 Gaussian 09, Revision D.01,
 Gaussian 09:  ES64L-G09RevD.01 24-Apr-2013

 -----------------------------
 # b3lyp 6-31G(2df,p) opt Freq
 -----------------------------

 -----
 titel
 -----
 Symbolic Z-matrix:
 Charge =  0 Multiplicity = 1

 SCF Done:  E(RB3LYP) =  -423.119555096     A.U. after   14 cycles
 Optimization completed.
    -- Stationary point found.
 Normal termination of Gaussian 09 at Mon Jan 27 12:08:19 2020.

 ----------------------------------------------------------------------
 #N Geom=AllCheck Guess=TCheck SCRF=Check GenChk RB3LYP/6-31G(2df,p) Fr
 eq
 ----------------------------------------------------------------------

 Structure from the checkpoint file:  "/scratch/puck/g09_be4d6fe6-3bfe-4eba-b00f-ee17325dabd2/Gau-71564.chk"
 -----
 titel
 -----
 Charge =  0 Multiplicity = 1

                         Standard orientation:
 ---------------------------------------------------------------------
 Center     Atomic      Atomic             Coordinates (Angstroms)
 Number     Number       Type             X           Y           Z
 ---------------------------------------------------------------------
      1          6           0       -2.748348    0.112771   -0.120163
      2          8           0       -2.040050   -1.125268   -0.027090
      3          6           0       -1.381602    0.069191    0.410664
      4          6           0       -0.198400    0.485851   -0.420061
      5          8           0        0.263758    1.813235   -0.069755
      6          6           0        1.586042    1.330395    0.269595
      7          6           0        1.165221   -0.099603   -0.046931
      8          6           0        1.936635   -1.186635   -0.723892
      9          6           0        1.462669   -1.363096    0.701829
     10          1           0       -2.919718    0.478253   -1.131809
     11          1           0       -3.587263    0.223034    0.564869
     12          1           0       -1.238191    0.142249    1.489039
     13          1           0       -0.454088    0.409880   -1.486422
     14          1           0        2.356086    1.759004   -0.385064
     15          1           0        1.842584    1.544593    1.315185
     16          1           0        1.438192   -1.757502   -1.500933
     17          1           0        2.996203   -1.024917   -0.896533
     18          1           0        0.642734   -2.050120    0.883165
     19          1           0        2.200491   -1.321460    1.497018
 ---------------------------------------------------------------------

 SCF Done:  E(RB3LYP) =  -423.119555096     A.U. after    1 cycles

 The electronic state is 1-A.
 Alpha  occ. eigenvalues --  -19.15497 -19.13619 -10.23758 -10.23711 -10.23612
 Alpha  occ. eigenvalues --  -10.23167 -10.20224 -10.19081 -10.19046  -1.07392
 Alpha  occ. eigenvalues --   -1.03927  -0.85989  -0.73156  -0.68607  -0.66384
 Alpha  occ. eigenvalues --   -0.61626  -0.60279  -0.54897  -0.50618  -0.49407
 Alpha  occ. eigenvalues --   -0.49085  -0.47803  -0.44508  -0.42622  -0.39333
 Alpha  occ. eigenvalues --   -0.38273  -0.36746  -0.36489  -0.34028  -0.30516
 Alpha  occ. eigenvalues --   -0.29528  -0.27968  -0.27695  -0.24698
 Alpha virt. eigenvalues --    0.05739   0.09537   0.09780   0.10653   0.11468
 Alpha virt. eigenvalues --    0.11873   0.13160   0.13882   0.14511   0.16248
 Alpha virt. eigenvalues --    0.17109   0.18355   0.19576   0.21035   0.22308

 Mulliken charges:
               1
     1  C   -0.178126
     2  O   -0.240707
     3  C    0.071571
     4  C    0.047052
     5  O   -0.300367
     6  C   -0.139612
     7  C    0.285285
     8  C   -0.324463
     9  C   -0.328441
    10  H    0.118500
    11  H    0.118672
    12  H    0.095856
    13  H    0.078699
    14  H    0.103197
    15  H    0.103836
    16  H    0.123596
    17  H    0.114461
    18  H    0.136543
    19  H    0.114450
 Sum of Mulliken charges =   0.00000

 Dipole moment (field-independent basis, Debye):
    X=              0.7930    Y=              0.0113    Z=              0.2616  Tot=              0.8351
 Quadrupole moment (field-independent basis, Debye-Ang):
   XX=            -47.6860   YY=            -59.8719   ZZ=            -50.8609
   XY=             -2.2388   XZ=              0.4785   YZ=              0.2118

  Exact polarizability:  90.363  -0.129  69.204   2.135   0.375  67.659
 Approx polarizability: 114.697   0.547 105.304   4.240   1.148 101.790

                      1                      2                      3
                      A                      A                      A
 Frequencies --     54.0699                78.9815               147.5589
 Red. masses --      4.1750                 3.1453                 2.8659
 Frc consts  --      0.0072                 0.0116                 0.0368
 IR Inten    --      3.1451                 0.4098                 2.3567

                      4                      5                      6
                      A                      A                      A
 Frequencies --    219.6772               272.7216               300.9845
 Red. masses --      3.1238                 2.9827                 2.2352
 Frc consts  --      0.0888                 0.1307                 0.1193
 IR Inten    --      6.6471                 4.2897                 1.9497

                      7                      8                      9
                      A                      A                      A
 Frequencies --    360.2096               425.9698               487.9757
 Red. masses --      3.3912                 3.8453                 3.2578
 Frc consts  --      0.2592                 0.4111                 0.4571
 IR Inten    --      1.3481                 1.4313                 2.4538

                     10                     11                     12
                      A                      A                      A
 Frequencies --    592.5598               776.6514               828.6679
 Red. masses --      4.7707                 1.0390                 1.9301
 Frc consts  --      0.9870                 0.3692                 0.7809
 IR Inten    --      3.3437                 0.0180                 1.8122

                     13                     14                     15
                      A                      A                      A
 Frequencies --    860.3021               867.7225               885.4300
 Red. masses --      6.1666                 2.0122                 2.7493
 Frc consts  --      2.6890                 0.8927                 1.2699
 IR Inten    --     11.8456                 7.4388                25.8998

                     16                     17                     18
                      A                      A                      A
 Frequencies --    912.0508               937.6080               966.8058
 Red. masses --      2.1966                 1.4586                 3.5285
 Frc consts  --      1.0766                 0.7555                 1.9432
 IR Inten    --     18.6287                 4.2293                33.1366

                     19                     20                     21
                      A                      A                      A
 Frequencies --    978.5596              1019.3988              1039.9493
 Red. masses --      2.2548                 7.6284                 1.9654
 Frc consts  --      1.2721                 4.6706                 1.2523
 IR Inten    --      0.8197               108.8610                14.1404

                     22                     23                     24
                      A                      A                      A
 Frequencies --   1061.6359              1081.5493              1087.0819
 Red. masses --      1.6633                 1.4959                 1.4108
 Frc consts  --      1.1045                 1.0310                 0.9823
 IR Inten    --      3.5788                 0.3963                 4.1376

                     25                     26                     27
                      A                      A                      A
 Frequencies --   1103.2815              1148.0375              1152.2385
 Red. masses --      1.6940                 1.3463                 1.2519
 Frc consts  --      1.2149                 1.0455                 0.9793
 IR Inten    --      0.9300                 0.5149                 0.1060

                     28                     29                     30
                      A                      A                      A
 Frequencies --   1162.6870              1183.8675              1190.7515
 Red. masses --      1.4468                 1.9585                 1.3166
 Frc consts  --      1.1523                 1.6173                 1.0999
 IR Inten    --      3.1424                 3.9709                 0.3139

                     31                     32                     33
                      A                      A                      A
 Frequencies --   1244.3869              1267.8478              1281.3523
 Red. masses --      1.4321                 2.0928                 1.4912
 Frc consts  --      1.3065                 1.9820                 1.4425
 IR Inten    --      1.7264                 0.4115                 6.6335

                     34                     35                     36
                      A                      A                      A
 Frequencies --   1312.3953              1328.9501              1410.2340
 Red. masses --      1.4424                 1.4830                 2.0724
 Frc consts  --      1.4638                 1.5432                 2.4283
 IR Inten    --     15.9446                 8.0276                 1.8140

                     37                     38                     39
                      A                      A                      A
 Frequencies --   1456.3217              1463.2675              1507.4740
 Red. masses --      1.7233                 1.1088                 1.7118
 Frc consts  --      2.1534                 1.3988                 2.2919
 IR Inten    --      3.4242                 1.4607                 0.4153

                     40                     41                     42
                      A                      A                      A
 Frequencies --   1523.9292              1527.9617              3001.3835
 Red. masses --      1.1262                 1.3314                 1.0655
 Frc consts  --      1.5409                 1.8314                 5.6550
 IR Inten    --      0.6307                 2.5795                98.3273

                     43                     44                     45
                      A                      A                      A
 Frequencies --   3008.5889              3046.0592              3085.9544
 Red. masses --      1.0736                 1.1110                 1.0499
 Frc consts  --      5.7254                 6.0735                 5.8910
 IR Inten    --     21.0119                41.2099                28.2999

                     46                     47                     48
                      A                      A                      A
 Frequencies --   3112.1699              3123.2264              3127.7837
 Red. masses --      1.0890                 1.0515                 1.0572
 Frc consts  --      6.2143                 6.0430                 6.0935
 IR Inten    --     17.1409                16.9158                 8.8321

                     49                     50                     51
                      A                      A                      A
 Frequencies --   3174.6984              3203.1698              3218.3428
 Red. masses --      1.1196                 1.1178                 1.1156
 Frc consts  --      6.6484                 6.7575                 6.8083
 IR Inten    --     24.4653                 0.6558                12.1014

 - Thermochemistry -
 -------------------
 Temperature   298.150 Kelvin.  Pressure   1.00000 Atm.
 Atom     1 has atomic number  6 and mass  12.00000

 Molecular mass:   126.06808 amu.
 Principal axes and moments of inertia in atomic units:
                           1         2         3
     Eigenvalues --   657.147341354.408921785.93351
           X            0.99962  -0.02756   0.00201
           Y            0.02755   0.99962   0.00241
           Z           -0.00207  -0.00235   1.00000
 This molecule is an asymmetric top.
 Rotational symmetry number  1.
 Warning -- assumption of classical behavior for rotation
           may cause significant error
 Rotational temperatures (Kelvin)      0.13180     0.06395     0.04850
 Rotational constants (GHZ):           2.74633     1.33249     1.01053
 Zero-point vibrational energy     416363.1 (Joules/Mol)
                                   99.51318 (Kcal/Mol)
 Warning -- explicit consideration of  10 degrees of freedom as
           vibrations may cause significant error
 Vibrational temperatures:     77.79   113.64   212.30   316.07   392.39
          (Kelvin)            433.05   518.26   612.87   702.09   852.56
                             1117.43  1192.27  1237.78  1248.46  1273.93
                             1312.24  1349.01  1391.02  1407.93  1466.69
                             1496.25  1527.46  1556.11  1564.07  1587.37
                             1651.77  1657.81  1672.85  1703.32  1713.22
                             1790.39  1824.15  1843.58  1888.24  1912.06
                             2029.01  2095.32  2105.31  2168.92  2192.59
                             2198.39  4318.32  4328.68  4382.59  4439.99
                             4477.71  4493.62  4500.18  4567.68  4608.64
                             4630.47

 Zero-point correction=                           0.158584 (Hartree/Particle)
 Thermal correction to Energy=                    0.166980
 Thermal correction to Enthalpy=                  0.167925
 Thermal correction to Gibbs Free Energy=         0.124745
 Sum of electronic and zero-point Energies=           -422.960971
 Sum of electronic and thermal Energies=              -422.952575
 Sum of electronic and thermal Enthalpies=            -422.951631
 Sum of electronic and thermal Free Energies=         -422.994810

                     E (Thermal)             CV                S
                      KCal/Mol        Cal/Mol-Kelvin    Cal/Mol-Kelvin
 Total                  104.782             31.242             90.880
 Electronic               0.000              0.000              0.000
 Translational            0.889              2.981             40.409
 Rotational               0.889              2.981             28.854
 Vibrational            103.004             25.281             21.617
 Vibration     1          0.596              1.976              4.663
 Vibration     2          0.600              1.963              3.916
 Vibration     3          0.617              1.905              2.703
 Vibration     4          0.647              1.811              1.962
 Vibration     5          0.676              1.724              1.579
 Vibration     6          0.693              1.672              1.411
 Vibration     7          0.735              1.554              1.121
 Vibration     8          0.788              1.414              0.872
 Vibration     9          0.844              1.277              0.689
 Vibration    10          0.950              1.048              0.463

 Optimization completed.
    -- Stationary point found.
 Normal termination of Gaussian 09 at Mon Jan 27 12:50:20 2020.
