 Gaussian 09, Revision D.01,
 Gaussian 09:  ES64L-G09RevD.01 24-Apr-2013

 -----------------------------
 # b3lyp 6-31G(2df,p) opt Freq
 -----------------------------

 -----
 titel
 -----
 Symbolic Z-matrix:
 Charge =  0 Multiplicity = 1

 SCF Done:  E(RB3LYP) =  -423.188884880     A.U. after   14 cycles
 Optimization completed.
    -- Stationary point found.
 Normal termination of Gaussian 09 at Mon Jan 27 17:16:12 2020.

 ----------------------------------------------------------------------
 #N Geom=AllCheck Guess=TCheck SCRF=Check GenChk RB3LYP/6-31G(2df,p) Fr
 eq
 ----------------------------------------------------------------------

 Structure from the checkpoint file:  "/scratch/puck/g09_ae896909-e153-43aa-9116-9de9d6f3517f/Gau-179381.chk"
 -----
 titel
 -----
 Charge =  0 Multiplicity = 1

                         Standard orientation:
 ---------------------------------------------------------------------
 Center     Atomic      Atomic             Coordinates (Angstroms)
 Number     Number       Type             X           Y           Z
 ---------------------------------------------------------------------
      1          6           0        2.415122    0.145314    0.299844
      2          6           0        0.933165    0.038661   -0.001321
      3          6           0        0.285442    1.394069   -0.370385
      4          8           0       -1.107357    1.255408   -0.624159
      5          6           0       -1.805692    0.483973    0.344913
      6          6           0       -1.034980   -0.811786    0.659520
      7          8           0        0.231344   -0.394450    1.181705
      8          6           0       -0.647233   -1.526838   -0.627201
      9          6           0        0.513011   -1.016319   -1.023189
     10          1           0        2.798136   -0.821085    0.638033
     11          1           0        2.971592    0.449570   -0.592174
     12          1           0        2.596356    0.881858    1.088449
     13          1           0        0.463227    2.090858    0.464360
     14          1           0        0.714696    1.819085   -1.283609
     15          1           0       -1.927128    1.047595    1.283285
     16          1           0       -2.794784    0.285522   -0.080411
     17          1           0       -1.550596   -1.418721    1.409372
     18          1           0       -1.272253   -2.242894   -1.144175
     19          1           0        1.055847   -1.221900   -1.936587
 ---------------------------------------------------------------------

 SCF Done:  E(RB3LYP) =  -423.188884880     A.U. after    1 cycles

 The electronic state is 1-A.
 Alpha  occ. eigenvalues --  -19.13670 -19.13384 -10.23844 -10.23350 -10.22542
 Alpha  occ. eigenvalues --  -10.22420 -10.18445 -10.18295 -10.17876  -1.05481
 Alpha  occ. eigenvalues --   -1.01084  -0.79569  -0.78549  -0.71397  -0.66843
 Alpha  occ. eigenvalues --   -0.63414  -0.56348  -0.54980  -0.50124  -0.48048
 Alpha  occ. eigenvalues --   -0.47363  -0.45978  -0.43841  -0.41660  -0.39271
 Alpha  occ. eigenvalues --   -0.38476  -0.38035  -0.36120  -0.35207  -0.32988
 Alpha  occ. eigenvalues --   -0.32138  -0.26879  -0.25336  -0.22839
 Alpha virt. eigenvalues --    0.00974   0.09633   0.10750   0.12265   0.12481
 Alpha virt. eigenvalues --    0.14239   0.15134   0.15764   0.16390   0.17203
 Alpha virt. eigenvalues --    0.17881   0.19191   0.19759   0.21185   0.22475

 Mulliken charges:
               1
     1  C   -0.465345
     2  C    0.300595
     3  C   -0.089413
     4  O   -0.258881
     5  C   -0.074466
     6  C   -0.004743
     7  O   -0.288834
     8  C   -0.074731
     9  C   -0.104129
    10  H    0.131379
    11  H    0.117127
    12  H    0.126241
    13  H    0.092008
    14  H    0.103160
    15  H    0.095460
    16  H    0.105005
    17  H    0.080539
    18  H    0.106285
    19  H    0.102745
 Sum of Mulliken charges =   0.00000

 Dipole moment (field-independent basis, Debye):
    X=              0.2295    Y=             -0.5778    Z=             -0.5081  Tot=              0.8029
 Quadrupole moment (field-independent basis, Debye-Ang):
   XX=            -49.2312   YY=            -53.4205   ZZ=            -54.5320
   XY=              3.8895   XZ=             -3.4478   YZ=              2.2426

  Exact polarizability:  87.646   7.888  70.731  -6.012   2.927  66.621
 Approx polarizability: 126.332  14.542 102.210 -10.402   0.505 105.272

                      1                      2                      3
                      A                      A                      A
 Frequencies --    188.1283               222.9164               262.5749
 Red. masses --      1.0302                 2.3777                 3.1954
 Frc consts  --      0.0215                 0.0696                 0.1298
 IR Inten    --      0.0642                 0.4359                 9.4351

                      4                      5                      6
                      A                      A                      A
 Frequencies --    279.0398               346.6971               373.3990
 Red. masses --      2.9643                 2.7930                 2.0012
 Frc consts  --      0.1360                 0.1978                 0.1644
 IR Inten    --      1.6036                 1.2355                 1.3400

                      7                      8                      9
                      A                      A                      A
 Frequencies --    412.9975               461.1853               601.4256
 Red. masses --      2.6020                 6.4979                 3.7409
 Frc consts  --      0.2615                 0.8143                 0.7972
 IR Inten    --      1.5062                 0.2502                 3.6974

                     10                     11                     12
                      A                      A                      A
 Frequencies --    642.1048               652.5606               742.0251
 Red. masses --      4.0492                 2.6731                 2.0301
 Frc consts  --      0.9836                 0.6707                 0.6586
 IR Inten    --      1.9014                 5.9909                32.3814

                     13                     14                     15
                      A                      A                      A
 Frequencies --    830.0095               838.6113               853.7394
 Red. masses --      3.2491                 4.4674                 2.9475
 Frc consts  --      1.3188                 1.8511                 1.2658
 IR Inten    --     17.3018                12.6789                 6.0784

                     16                     17                     18
                      A                      A                      A
 Frequencies --    875.3390               894.6970               932.8471
 Red. masses --      2.4199                 1.9116                 2.5406
 Frc consts  --      1.0925                 0.9016                 1.3026
 IR Inten    --     31.6307                 8.1142                11.2981

                     19                     20                     21
                      A                      A                      A
 Frequencies --    939.8424               977.7566              1012.6525
 Red. masses --      1.3171                 2.8829                 1.6607
 Frc consts  --      0.6854                 1.6238                 1.0034
 IR Inten    --      3.7063                10.6605                 5.1695

                     22                     23                     24
                      A                      A                      A
 Frequencies --   1021.7940              1068.9422              1102.3362
 Red. masses --      1.9821                 1.4905                 2.3377
 Frc consts  --      1.2193                 1.0035                 1.6736
 IR Inten    --      2.9892                 9.7813                60.6345

                     25                     26                     27
                      A                      A                      A
 Frequencies --   1123.9887              1179.3497              1198.1860
 Red. masses --      5.5846                 1.8429                 2.4148
 Frc consts  --      4.1568                 1.5102                 2.0426
 IR Inten    --     69.7772                 2.3541                13.8034

                     28                     29                     30
                      A                      A                      A
 Frequencies --   1232.1200              1249.7602              1279.4797
 Red. masses --      2.2395                 1.3853                 1.2840
 Frc consts  --      2.0031                 1.2749                 1.2385
 IR Inten    --     13.6882                 2.7637                 5.2736

                     31                     32                     33
                      A                      A                      A
 Frequencies --   1312.5135              1330.2771              1346.9866
 Red. masses --      1.4169                 1.6050                 1.4507
 Frc consts  --      1.4381                 1.6734                 1.5508
 IR Inten    --      3.1735                 2.0201                 8.0981

                     34                     35                     36
                      A                      A                      A
 Frequencies --   1377.0129              1408.2320              1410.2039
 Red. masses --      1.4344                 1.3117                 1.4209
 Frc consts  --      1.6025                 1.5327                 1.6648
 IR Inten    --      2.5441                 8.3903                 3.3571

                     37                     38                     39
                      A                      A                      A
 Frequencies --   1477.5726              1483.7392              1490.2709
 Red. masses --      1.0700                 1.0694                 1.0987
 Frc consts  --      1.3764                 1.3871                 1.4376
 IR Inten    --      0.8741                 0.8959                 3.0178

                     40                     41                     42
                      A                      A                      A
 Frequencies --   1495.8862              1670.5122              2977.6953
 Red. masses --      1.0502                 6.7832                 1.0668
 Frc consts  --      1.3846                11.1528                 5.5730
 IR Inten    --      3.1996                 1.3495                48.1555

                     43                     44                     45
                      A                      A                      A
 Frequencies --   2985.4837              3041.4617              3072.5739
 Red. masses --      1.0671                 1.0353                 1.0900
 Frc consts  --      5.6040                 5.6424                 6.0629
 IR Inten    --     64.8380                18.4538                34.7205

                     46                     47                     48
                      A                      A                      A
 Frequencies --   3075.6482              3079.4563              3113.4444
 Red. masses --      1.0949                 1.0946                 1.1013
 Frc consts  --      6.1026                 6.1158                 6.2900
 IR Inten    --     38.7143                35.1117                18.9652

                     49                     50                     51
                      A                      A                      A
 Frequencies --   3122.2723              3209.0051              3234.7409
 Red. masses --      1.1018                 1.0856                 1.1080
 Frc consts  --      6.3286                 6.5863                 6.8306
 IR Inten    --     14.9581                 3.2153                 9.5207

 - Thermochemistry -
 -------------------
 Temperature   298.150 Kelvin.  Pressure   1.00000 Atm.
 Atom     1 has atomic number  6 and mass  12.00000

 Molecular mass:   126.06808 amu.
 Principal axes and moments of inertia in atomic units:
                           1         2         3
     Eigenvalues --   675.21664 967.808431160.17798
           X            0.99819   0.05708  -0.01918
           Y           -0.05596   0.99695   0.05442
           Z            0.02223  -0.05325   0.99833
 This molecule is an asymmetric top.
 Rotational symmetry number  1.
 Warning -- assumption of classical behavior for rotation
           may cause significant error
 Rotational temperatures (Kelvin)      0.12828     0.08949     0.07466
 Rotational constants (GHZ):           2.67283     1.86477     1.55557
 Zero-point vibrational energy     421752.4 (Joules/Mol)
                                  100.80124 (Kcal/Mol)
 Warning -- explicit consideration of   9 degrees of freedom as
           vibrations may cause significant error
 Vibrational temperatures:    270.67   320.73   377.79   401.48   498.82
          (Kelvin)            537.24   594.21   663.54   865.32   923.84
                              938.89  1067.61  1194.20  1206.57  1228.34
                             1259.42  1287.27  1342.16  1352.22  1406.77
                             1456.98  1470.13  1537.97  1586.01  1617.17
                             1696.82  1723.92  1772.74  1798.12  1840.88
                             1888.41  1913.97  1938.01  1981.21  2026.13
                             2028.97  2125.89  2134.77  2144.16  2152.24
                             2403.49  4284.23  4295.44  4375.98  4420.74
                             4425.17  4430.65  4479.55  4492.25  4617.04
                             4654.06

 Zero-point correction=                           0.160637 (Hartree/Particle)
 Thermal correction to Energy=                    0.168018
 Thermal correction to Enthalpy=                  0.168962
 Thermal correction to Gibbs Free Energy=         0.129441
 Sum of electronic and zero-point Energies=           -423.028248
 Sum of electronic and thermal Energies=              -423.020867
 Sum of electronic and thermal Enthalpies=            -423.019923
 Sum of electronic and thermal Free Energies=         -423.059444

                     E (Thermal)             CV                S
                      KCal/Mol        Cal/Mol-Kelvin    Cal/Mol-Kelvin
 Total                  105.433             30.302             83.179
 Electronic               0.000              0.000              0.000
 Translational            0.889              2.981             40.409
 Rotational               0.889              2.981             28.119
 Vibrational            103.655             24.340             14.652
 Vibration     1          0.633              1.856              2.246
 Vibration     2          0.649              1.806              1.935
 Vibration     3          0.670              1.741              1.645
 Vibration     4          0.679              1.712              1.540
 Vibration     5          0.725              1.582              1.181
 Vibration     6          0.745              1.527              1.066
 Vibration     7          0.777              1.442              0.916
 Vibration     8          0.819              1.336              0.763
 Vibration     9          0.960              1.029              0.447

 Optimization completed.
    -- Stationary point found.
 Normal termination of Gaussian 09 at Mon Jan 27 18:03:01 2020.
