 Gaussian 09, Revision D.01,
 Gaussian 09:  ES64L-G09RevD.01 24-Apr-2013

 -----------------------------
 # b3lyp 6-31G(2df,p) opt Freq
 -----------------------------

 -----
 titel
 -----
 Symbolic Z-matrix:
 Charge =  0 Multiplicity = 1

 SCF Done:  E(RB3LYP) =  -423.185313015     A.U. after   14 cycles
 Optimization completed.
    -- Stationary point found.
 Normal termination of Gaussian 09 at Tue Jan 28 08:14:19 2020.

 ----------------------------------------------------------------------
 #N Geom=AllCheck Guess=TCheck SCRF=Check GenChk RB3LYP/6-31G(2df,p) Fr
 eq
 ----------------------------------------------------------------------

 Structure from the checkpoint file:  "/scratch/puck/g09_44b0b187-18a1-43a2-a753-92a85370a060/Gau-17799.chk"
 -----
 titel
 -----
 Charge =  0 Multiplicity = 1

                         Standard orientation:
 ---------------------------------------------------------------------
 Center     Atomic      Atomic             Coordinates (Angstroms)
 Number     Number       Type             X           Y           Z
 ---------------------------------------------------------------------
      1          6           0       -2.526799   -0.768239    0.007313
      2          6           0       -1.125359   -0.378739   -0.471506
      3          6           0       -0.973329    1.159557   -0.535004
      4          8           0        0.377435    1.614630   -0.457989
      5          6           0        1.201718    0.838273    0.411093
      6          6           0        0.379709    0.124198    1.525953
      7          6           0       -0.004238   -0.942292    0.447561
      8          6           0        1.336292   -0.574154   -0.213502
      9          8           0        2.162790   -1.161732   -0.845985
     10          1           0       -2.701732   -0.431563    1.035362
     11          1           0       -3.298785   -0.319154   -0.626979
     12          1           0       -2.661705   -1.853608   -0.020276
     13          1           0       -0.972103   -0.796653   -1.473777
     14          1           0       -1.369753    1.554151   -1.474713
     15          1           0       -1.559856    1.611539    0.278371
     16          1           0        2.082231    1.434422    0.652982
     17          1           0        1.038055   -0.286202    2.294931
     18          1           0       -0.422570    0.692239    1.998583
     19          1           0       -0.183533   -1.979982    0.735856
 ---------------------------------------------------------------------

 SCF Done:  E(RB3LYP) =  -423.185313015     A.U. after    1 cycles

 The electronic state is 1-A.
 Alpha  occ. eigenvalues --  -19.15123 -19.13994 -10.26514 -10.24274 -10.23679
 Alpha  occ. eigenvalues --  -10.20812 -10.20365 -10.20082 -10.18936  -1.05387
 Alpha  occ. eigenvalues --   -1.03729  -0.85429  -0.79794  -0.70128  -0.65892
 Alpha  occ. eigenvalues --   -0.63137  -0.59690  -0.52492  -0.51779  -0.46975
 Alpha  occ. eigenvalues --   -0.45965  -0.45106  -0.43375  -0.41968  -0.40627
 Alpha  occ. eigenvalues --   -0.39827  -0.39290  -0.37335  -0.36692  -0.35490
 Alpha  occ. eigenvalues --   -0.32769  -0.30290  -0.27922  -0.22388
 Alpha virt. eigenvalues --   -0.01993   0.07450   0.10001   0.10316   0.12179
 Alpha virt. eigenvalues --    0.13235   0.14504   0.15131   0.15405   0.16103
 Alpha virt. eigenvalues --    0.17164   0.18149   0.19546   0.20211   0.21307

 Mulliken charges:
               1
     1  C   -0.415011
     2  C   -0.002785
     3  C   -0.075668
     4  O   -0.280323
     5  C    0.010066
     6  C   -0.284022
     7  C   -0.153195
     8  C    0.423737
     9  O   -0.316858
    10  H    0.120544
    11  H    0.121548
    12  H    0.123254
    13  H    0.099498
    14  H    0.117662
    15  H    0.096328
    16  H    0.096747
    17  H    0.119002
    18  H    0.114774
    19  H    0.084701
 Sum of Mulliken charges =   0.00000

 Dipole moment (field-independent basis, Debye):
    X=             -2.7586    Y=              0.1447    Z=              1.8707  Tot=              3.3362
 Quadrupole moment (field-independent basis, Debye-Ang):
   XX=            -55.9222   YY=            -56.5120   ZZ=            -52.5312
   XY=              2.6370   XZ=              5.0764   YZ=             -0.7070

  Exact polarizability:  85.177  -0.656  71.366   0.723   1.165  68.393
 Approx polarizability: 118.787  -5.287 108.174  -4.778   3.454 106.296

                      1                      2                      3
                      A                      A                      A
 Frequencies --    129.5119               140.1997               237.7754
 Red. masses --      4.7127                 3.1899                 1.4060
 Frc consts  --      0.0466                 0.0369                 0.0468
 IR Inten    --      2.5660                 0.9559                 2.5668

                      4                      5                      6
                      A                      A                      A
 Frequencies --    247.4730               276.3842               377.0292
 Red. masses --      2.2452                 2.5351                 2.8760
 Frc consts  --      0.0810                 0.1141                 0.2409
 IR Inten    --      3.2081                 1.2094                 0.3241

                      7                      8                      9
                      A                      A                      A
 Frequencies --    432.1457               441.3879               510.2187
 Red. masses --      2.6819                 3.8377                 2.7597
 Frc consts  --      0.2951                 0.4405                 0.4233
 IR Inten    --      0.2783                 8.0502                 0.8318

                     10                     11                     12
                      A                      A                      A
 Frequencies --    526.9657               646.3958               760.6093
 Red. masses --      4.9095                 2.8197                 3.0046
 Frc consts  --      0.8033                 0.6941                 1.0241
 IR Inten    --      0.7645                 2.8701                 2.1717

                     13                     14                     15
                      A                      A                      A
 Frequencies --    805.9284               826.0005               891.2066
 Red. masses --      3.4240                 3.6668                 2.1347
 Frc consts  --      1.3103                 1.4740                 0.9989
 IR Inten    --      0.3243                 7.1757                 5.0249

                     16                     17                     18
                      A                      A                      A
 Frequencies --    902.3309               929.0783               945.1039
 Red. masses --      3.0140                 1.9729                 1.4736
 Frc consts  --      1.4459                 1.0033                 0.7755
 IR Inten    --     17.3391                 9.7525                 0.1741

                     19                     20                     21
                      A                      A                      A
 Frequencies --   1007.3032              1019.8782              1034.4193
 Red. masses --      2.4724                 2.1374                 2.0737
 Frc consts  --      1.4780                 1.3099                 1.3073
 IR Inten    --     10.1278                 1.9943                43.9835

                     22                     23                     24
                      A                      A                      A
 Frequencies --   1058.2143              1107.8994              1110.7981
 Red. masses --      1.9853                 1.9861                 2.2840
 Frc consts  --      1.3098                 1.4363                 1.6604
 IR Inten    --     29.8511                 5.8551                 5.0352

                     25                     26                     27
                      A                      A                      A
 Frequencies --   1147.5754              1161.6170              1166.6265
 Red. masses --      1.7641                 2.4868                 1.8937
 Frc consts  --      1.3688                 1.9771                 1.5186
 IR Inten    --      3.8057                56.1566                 6.2268

                     28                     29                     30
                      A                      A                      A
 Frequencies --   1231.0065              1237.7135              1259.4082
 Red. masses --      1.6047                 1.6613                 1.4336
 Frc consts  --      1.4327                 1.4995                 1.3398
 IR Inten    --      0.4675                 3.6604                 1.5770

                     31                     32                     33
                      A                      A                      A
 Frequencies --   1290.2039              1331.1144              1351.4667
 Red. masses --      1.2475                 1.3363                 1.3674
 Frc consts  --      1.2235                 1.3950                 1.4715
 IR Inten    --      1.1147                 3.5109                 2.9993

                     34                     35                     36
                      A                      A                      A
 Frequencies --   1356.8377              1406.7377              1416.9666
 Red. masses --      1.2726                 1.3156                 1.2349
 Frc consts  --      1.3804                 1.5339                 1.4608
 IR Inten    --      6.6701                 0.3224                 3.3721

                     37                     38                     39
                      A                      A                      A
 Frequencies --   1482.1366              1495.8021              1497.6025
 Red. masses --      1.0999                 1.0534                 1.0442
 Frc consts  --      1.4236                 1.3886                 1.3799
 IR Inten    --      3.3269                 2.8163                 4.1042

                     40                     41                     42
                      A                      A                      A
 Frequencies --   1523.3872              1897.9783              2992.4825
 Red. masses --      1.0796                12.1401                 1.0710
 Frc consts  --      1.4761                25.7665                 5.6509
 IR Inten    --      4.1924               274.2322                39.4021

                     43                     44                     45
                      A                      A                      A
 Frequencies --   3029.6819              3032.8750              3077.3197
 Red. masses --      1.0450                 1.0731                 1.0599
 Frc consts  --      5.6516                 5.8156                 5.9137
 IR Inten    --     15.1490                25.5114                11.6396

                     46                     47                     48
                      A                      A                      A
 Frequencies --   3085.8196              3096.2663              3097.6142
 Red. masses --      1.0936                 1.0891                 1.0993
 Frc consts  --      6.1354                 6.1516                 6.2145
 IR Inten    --     21.4445                17.3055                40.6299

                     49                     50                     51
                      A                      A                      A
 Frequencies --   3108.3344              3115.3525              3136.7130
 Red. masses --      1.1011                 1.0904                 1.1076
 Frc consts  --      6.2680                 6.2353                 6.4210
 IR Inten    --     26.4050                30.9368                15.1541

 - Thermochemistry -
 -------------------
 Temperature   298.150 Kelvin.  Pressure   1.00000 Atm.
 Atom     1 has atomic number  6 and mass  12.00000

 Molecular mass:   126.06808 amu.
 Principal axes and moments of inertia in atomic units:
                           1         2         3
     Eigenvalues --   703.727731166.552321371.37423
           X            0.99858   0.04681   0.02537
           Y           -0.04660   0.99887  -0.00907
           Z           -0.02577   0.00787   0.99964
 This molecule is an asymmetric top.
 Rotational symmetry number  1.
 Warning -- assumption of classical behavior for rotation
           may cause significant error
 Rotational temperatures (Kelvin)      0.12308     0.07425     0.06316
 Rotational constants (GHZ):           2.56454     1.54707     1.31601
 Zero-point vibrational energy     421031.1 (Joules/Mol)
                                  100.62884 (Kcal/Mol)
 Warning -- explicit consideration of  10 degrees of freedom as
           vibrations may cause significant error
 Vibrational temperatures:    186.34   201.72   342.11   356.06   397.65
          (Kelvin)            542.46   621.76   635.06   734.09   758.19
                              930.02  1094.35  1159.55  1188.43  1282.25
                             1298.25  1336.73  1359.79  1449.28  1467.38
                             1488.30  1522.53  1594.02  1598.19  1651.10
                             1671.31  1678.51  1771.14  1780.79  1812.01
                             1856.31  1915.17  1944.46  1952.18  2023.98
                             2038.70  2132.46  2152.12  2154.71  2191.81
                             2730.76  4305.51  4359.03  4363.63  4427.57
                             4439.80  4454.83  4456.77  4472.19  4482.29
                             4513.02

 Zero-point correction=                           0.160362 (Hartree/Particle)
 Thermal correction to Energy=                    0.168217
 Thermal correction to Enthalpy=                  0.169162
 Thermal correction to Gibbs Free Energy=         0.128222
 Sum of electronic and zero-point Energies=           -423.024951
 Sum of electronic and thermal Energies=              -423.017096
 Sum of electronic and thermal Enthalpies=            -423.016151
 Sum of electronic and thermal Free Energies=         -423.057091

                     E (Thermal)             CV                S
                      KCal/Mol        Cal/Mol-Kelvin    Cal/Mol-Kelvin
 Total                  105.558             30.818             86.166
 Electronic               0.000              0.000              0.000
 Translational            0.889              2.981             40.409
 Rotational               0.889              2.981             28.511
 Vibrational            103.781             24.857             17.246
 Vibration     1          0.612              1.924              2.953
 Vibration     2          0.615              1.913              2.801
 Vibration     3          0.656              1.783              1.819
 Vibration     4          0.661              1.767              1.749
 Vibration     5          0.678              1.717              1.556
 Vibration     6          0.748              1.519              1.051
 Vibration     7          0.793              1.400              0.852
 Vibration     8          0.801              1.380              0.822
 Vibration     9          0.865              1.227              0.633
 Vibration    10          0.882              1.190              0.594

 Optimization completed.
    -- Stationary point found.
 Normal termination of Gaussian 09 at Tue Jan 28 09:01:10 2020.
