 Gaussian 09, Revision D.01,
 Gaussian 09:  ES64L-G09RevD.01 24-Apr-2013

 -----------------------------
 # b3lyp 6-31G(2df,p) opt Freq
 -----------------------------

 -----
 titel
 -----
 Symbolic Z-matrix:
 Charge =  0 Multiplicity = 1

 SCF Done:  E(RB3LYP) =  -423.179082744     A.U. after   13 cycles
 Optimization completed.
    -- Stationary point found.
 Normal termination of Gaussian 09 at Mon Jan 27 18:07:10 2020.

 ----------------------------------------------------------------------
 #N Geom=AllCheck Guess=TCheck SCRF=Check GenChk RB3LYP/6-31G(2df,p) Fr
 eq
 ----------------------------------------------------------------------

 Structure from the checkpoint file:  "/scratch/puck/g09_573662c5-dd57-447b-9b0d-0a1463f5ef35/Gau-88630.chk"
 -----
 titel
 -----
 Charge =  0 Multiplicity = 1

                         Standard orientation:
 ---------------------------------------------------------------------
 Center     Atomic      Atomic             Coordinates (Angstroms)
 Number     Number       Type             X           Y           Z
 ---------------------------------------------------------------------
      1          8           0       -2.177129   -0.994081    0.103452
      2          6           0       -1.040433   -0.193701    0.059594
      3          6           0       -1.180417    1.253378   -0.462596
      4          6           0        0.343827    1.121263   -0.681596
      5          6           0        0.116769   -0.380244   -1.013893
      6          6           0        1.382801   -1.104728   -0.569659
      7          8           0        1.979149   -0.213231    0.387331
      8          6           0        0.975011    0.757116    0.691912
      9          6           0       -0.234378    0.040313    1.355301
     10          1           0       -1.980037   -1.779351    0.624832
     11          1           0       -1.725324    1.299888   -1.408309
     12          1           0       -1.558364    2.011206    0.229784
     13          1           0        0.912132    1.783756   -1.331170
     14          1           0       -0.257638   -0.608854   -2.011239
     15          1           0        1.180860   -2.082974   -0.108869
     16          1           0        2.089502   -1.261894   -1.392936
     17          1           0        1.443071    1.554079    1.269114
     18          1           0        0.091949   -0.874114    1.860780
     19          1           0       -0.791384    0.656368    2.067367
 ---------------------------------------------------------------------

 SCF Done:  E(RB3LYP) =  -423.179082744     A.U. after    1 cycles

 The electronic state is 1-A.
 Alpha  occ. eigenvalues --  -19.14482 -19.13070 -10.24244 -10.23134 -10.22324
 Alpha  occ. eigenvalues --  -10.18991 -10.18716 -10.18248 -10.17977  -1.03642
 Alpha  occ. eigenvalues --   -1.02630  -0.87559  -0.74598  -0.70155  -0.67697
 Alpha  occ. eigenvalues --   -0.61463  -0.56129  -0.54948  -0.52854  -0.48273
 Alpha  occ. eigenvalues --   -0.47375  -0.45522  -0.42223  -0.41265  -0.39120
 Alpha  occ. eigenvalues --   -0.37350  -0.35860  -0.35200  -0.34571  -0.32841
 Alpha  occ. eigenvalues --   -0.31730  -0.28595  -0.25702  -0.24098
 Alpha virt. eigenvalues --    0.06908   0.09628   0.11635   0.12128   0.13311
 Alpha virt. eigenvalues --    0.13894   0.14896   0.15676   0.16449   0.17094
 Alpha virt. eigenvalues --    0.17992   0.18987   0.20372   0.20602   0.22797

 Mulliken charges:
               1
     1  O   -0.489694
     2  C    0.409555
     3  C   -0.275445
     4  C   -0.053296
     5  C   -0.099931
     6  C   -0.120150
     7  O   -0.271890
     8  C    0.111012
     9  C   -0.306434
    10  H    0.280000
    11  H    0.106127
    12  H    0.092026
    13  H    0.072165
    14  H    0.078270
    15  H    0.087770
    16  H    0.105585
    17  H    0.077484
    18  H    0.096266
    19  H    0.100579
 Sum of Mulliken charges =   0.00000

 Dipole moment (field-independent basis, Debye):
    X=             -0.3604    Y=             -0.3248    Z=              0.0160  Tot=              0.4854
 Quadrupole moment (field-independent basis, Debye-Ang):
   XX=            -61.8395   YY=            -48.4544   ZZ=            -50.8805
   XY=              0.6792   XZ=             -2.8897   YZ=             -0.5785

  Exact polarizability:  74.246  -2.627  74.615  -1.773   0.561  70.979
 Approx polarizability: 108.563  -1.456 111.207  -0.888   1.035 105.435

                      1                      2                      3
                      A                      A                      A
 Frequencies --    223.0520               243.9814               259.5037
 Red. masses --      3.0124                 1.5904                 1.6706
 Frc consts  --      0.0883                 0.0558                 0.0663
 IR Inten    --     21.2100                20.0021                49.1238

                      4                      5                      6
                      A                      A                      A
 Frequencies --    357.2846               416.8635               458.1722
 Red. masses --      3.4513                 2.5505                 2.9324
 Frc consts  --      0.2596                 0.2611                 0.3627
 IR Inten    --     10.3607                 4.0375                 2.4596

                      7                      8                      9
                      A                      A                      A
 Frequencies --    490.5277               562.9284               634.9856
 Red. masses --      2.0287                 5.5856                 4.1521
 Frc consts  --      0.2876                 1.0429                 0.9864
 IR Inten    --      0.2508                 4.2748                 4.7762

                     10                     11                     12
                      A                      A                      A
 Frequencies --    698.3787               743.5050               807.5392
 Red. masses --      3.5406                 3.6723                 3.9012
 Frc consts  --      1.0174                 1.1961                 1.4989
 IR Inten    --      1.6274                 4.9225                 0.8907

                     13                     14                     15
                      A                      A                      A
 Frequencies --    851.8132               878.1440               896.9412
 Red. masses --      2.1290                 2.9476                 2.5253
 Frc consts  --      0.9102                 1.3392                 1.1970
 IR Inten    --      2.8452                 1.4728                15.2141

                     16                     17                     18
                      A                      A                      A
 Frequencies --    922.3657               945.2302               960.9103
 Red. masses --      2.2353                 2.5208                 1.7212
 Frc consts  --      1.1205                 1.3270                 0.9364
 IR Inten    --     16.5332                 3.9149                14.5601

                     19                     20                     21
                      A                      A                      A
 Frequencies --    977.9955              1003.8539              1019.4572
 Red. masses --      1.9783                 1.4091                 1.8859
 Frc consts  --      1.1149                 0.8366                 1.1548
 IR Inten    --      5.1376                 1.0274                22.0805

                     22                     23                     24
                      A                      A                      A
 Frequencies --   1047.7922              1067.0147              1094.5602
 Red. masses --      2.8228                 1.3098                 2.0502
 Frc consts  --      1.8259                 0.8786                 1.4472
 IR Inten    --     25.9551                 2.5759                39.0164

                     25                     26                     27
                      A                      A                      A
 Frequencies --   1110.6481              1133.6335              1157.0638
 Red. masses --      2.0710                 2.2267                 1.3544
 Frc consts  --      1.5051                 1.6860                 1.0683
 IR Inten    --      3.7987                45.7285                 8.5616

                     28                     29                     30
                      A                      A                      A
 Frequencies --   1197.4379              1218.2679              1235.5816
 Red. masses --      1.3938                 1.4213                 1.6468
 Frc consts  --      1.1775                 1.2429                 1.4813
 IR Inten    --      1.3630                 6.9993                 9.7214

                     31                     32                     33
                      A                      A                      A
 Frequencies --   1239.6049              1251.0447              1273.9585
 Red. masses --      1.6017                 2.0688                 1.4230
 Frc consts  --      1.4501                 1.9077                 1.3608
 IR Inten    --     18.4944                58.6751                 1.7979

                     34                     35                     36
                      A                      A                      A
 Frequencies --   1311.7176              1316.3303              1345.4245
 Red. masses --      1.6672                 1.3828                 2.1780
 Frc consts  --      1.6901                 1.4117                 2.3229
 IR Inten    --      4.7379                43.2744                95.4021

                     37                     38                     39
                      A                      A                      A
 Frequencies --   1382.7171              1388.0234              1490.1693
 Red. masses --      1.4195                 1.8551                 1.0977
 Frc consts  --      1.5990                 2.1058                 1.4362
 IR Inten    --      3.6182                 2.5111                 2.1187

                     40                     41                     42
                      A                      A                      A
 Frequencies --   1516.1014              1528.2961              2993.0217
 Red. masses --      1.1464                 1.0945                 1.0669
 Frc consts  --      1.5525                 1.5062                 5.6310
 IR Inten    --      2.3608                 1.0893                66.7566

                     43                     44                     45
                      A                      A                      A
 Frequencies --   3047.0852              3047.8526              3054.7978
 Red. masses --      1.0879                 1.0668                 1.0587
 Frc consts  --      5.9515                 5.8385                 5.8206
 IR Inten    --     22.8087                49.7639                39.8931

                     46                     47                     48
                      A                      A                      A
 Frequencies --   3096.4094              3116.8185              3121.7142
 Red. masses --      1.1068                 1.1062                 1.0904
 Frc consts  --      6.2524                 6.3314                 6.2605
 IR Inten    --     20.5051                 8.4857                41.9329

                     49                     50                     51
                      A                      A                      A
 Frequencies --   3126.2296              3140.7393              3809.5442
 Red. masses --      1.0882                 1.0920                 1.0659
 Frc consts  --      6.2661                 6.3466                 9.1140
 IR Inten    --     27.0071                34.0040                18.9831

 - Thermochemistry -
 -------------------
 Temperature   298.150 Kelvin.  Pressure   1.00000 Atm.
 Atom     1 has atomic number  8 and mass  15.99491

 Molecular mass:   126.06808 amu.
 Principal axes and moments of inertia in atomic units:
                           1         2         3
     Eigenvalues --   609.558991064.824401142.82440
           X            0.99948  -0.02728  -0.01695
           Y            0.02738   0.99961   0.00518
           Z            0.01680  -0.00564   0.99984
 This molecule is an asymmetric top.
 Rotational symmetry number  1.
 Warning -- assumption of classical behavior for rotation
           may cause significant error
 Rotational temperatures (Kelvin)      0.14209     0.08134     0.07579
 Rotational constants (GHZ):           2.96073     1.69487     1.57919
 Zero-point vibrational energy     425948.5 (Joules/Mol)
                                  101.80414 (Kcal/Mol)
 Warning -- explicit consideration of   8 degrees of freedom as
           vibrations may cause significant error
 Vibrational temperatures:    320.92   351.03   373.37   514.05   599.77
          (Kelvin)            659.21   705.76   809.93   913.60  1004.81
                             1069.74  1161.87  1225.57  1263.45  1290.50
                             1327.08  1359.97  1382.53  1407.12  1444.32
                             1466.77  1507.54  1535.19  1574.83  1597.97
                             1631.04  1664.75  1722.84  1752.81  1777.72
                             1783.51  1799.97  1832.94  1887.27  1893.90
                             1935.76  1989.42  1997.05  2144.02  2181.33
                             2198.87  4306.29  4384.07  4385.17  4395.17
                             4455.04  4484.40  4491.44  4497.94  4518.82
                             5481.08

 Zero-point correction=                           0.162235 (Hartree/Particle)
 Thermal correction to Energy=                    0.169030
 Thermal correction to Enthalpy=                  0.169974
 Thermal correction to Gibbs Free Energy=         0.131545
 Sum of electronic and zero-point Energies=           -423.016848
 Sum of electronic and thermal Energies=              -423.010053
 Sum of electronic and thermal Enthalpies=            -423.009109
 Sum of electronic and thermal Free Energies=         -423.047538

                     E (Thermal)             CV                S
                      KCal/Mol        Cal/Mol-Kelvin    Cal/Mol-Kelvin
 Total                  106.068             28.880             80.881
 Electronic               0.000              0.000              0.000
 Translational            0.889              2.981             40.409
 Rotational               0.889              2.981             28.097
 Vibrational            104.290             22.919             12.376
 Vibration     1          0.649              1.806              1.934
 Vibration     2          0.659              1.773              1.774
 Vibration     3          0.668              1.747              1.665
 Vibration     4          0.732              1.560              1.134
 Vibration     5          0.780              1.434              0.903
 Vibration     6          0.816              1.343              0.771
 Vibration     7          0.846              1.271              0.682
 Vibration     8          0.919              1.111              0.518

 Optimization completed.
    -- Stationary point found.
 Normal termination of Gaussian 09 at Mon Jan 27 18:53:11 2020.
