 Gaussian 09, Revision D.01,
 Gaussian 09:  ES64L-G09RevD.01 24-Apr-2013

 -----------------------------
 # b3lyp 6-31G(2df,p) opt Freq
 -----------------------------

 -----
 titel
 -----
 Symbolic Z-matrix:
 Charge =  0 Multiplicity = 1

 SCF Done:  E(RB3LYP) =  -423.152050276     A.U. after   14 cycles
 Optimization completed.
    -- Stationary point found.
 Normal termination of Gaussian 09 at Mon Jan 27 14:14:55 2020.

 ----------------------------------------------------------------------
 #N Geom=AllCheck Guess=TCheck SCRF=Check GenChk RB3LYP/6-31G(2df,p) Fr
 eq
 ----------------------------------------------------------------------

 Structure from the checkpoint file:  "/scratch/puck/g09_e761e18e-de10-41e4-a2c8-ccb84ecc04c4/Gau-78377.chk"
 -----
 titel
 -----
 Charge =  0 Multiplicity = 1

                         Standard orientation:
 ---------------------------------------------------------------------
 Center     Atomic      Atomic             Coordinates (Angstroms)
 Number     Number       Type             X           Y           Z
 ---------------------------------------------------------------------
      1          6           0       -1.528945    1.843064    0.082479
      2          6           0       -1.048824    0.409309    0.382156
      3          6           0       -2.091511   -0.571741    0.094455
      4          6           0       -2.967246   -1.352686   -0.165044
      5          6           0        0.228208    0.080074   -0.411268
      6          8           0        1.223290    1.028595   -0.095685
      7          6           0        2.463474    0.339436   -0.161242
      8          6           0        2.088698   -1.047890    0.359642
      9          8           0        0.740177   -1.199530   -0.069695
     10          1           0       -0.745867    2.560862    0.334474
     11          1           0       -1.777784    1.952819   -0.977578
     12          1           0       -2.425372    2.071372    0.663567
     13          1           0       -0.771465    0.337325    1.441620
     14          1           0       -3.731899   -2.056421   -0.382473
     15          1           0        0.012753    0.088468   -1.493707
     16          1           0        2.833607    0.292892   -1.196316
     17          1           0        3.189019    0.871602    0.457414
     18          1           0        2.694255   -1.853298   -0.066446
     19          1           0        2.151890   -1.095545    1.455425
 ---------------------------------------------------------------------

 SCF Done:  E(RB3LYP) =  -423.152050276     A.U. after    1 cycles

 The electronic state is 1-A.
 Alpha  occ. eigenvalues --  -19.15515 -19.14506 -10.28126 -10.24048 -10.23676
 Alpha  occ. eigenvalues --  -10.21016 -10.17862 -10.17492 -10.16590  -1.09250
 Alpha  occ. eigenvalues --   -0.99654  -0.82034  -0.75555  -0.71789  -0.65581
 Alpha  occ. eigenvalues --   -0.63477  -0.60350  -0.53126  -0.51351  -0.50557
 Alpha  occ. eigenvalues --   -0.48609  -0.45346  -0.43015  -0.42521  -0.41477
 Alpha  occ. eigenvalues --   -0.38701  -0.37488  -0.36404  -0.34277  -0.33758
 Alpha  occ. eigenvalues --   -0.27826  -0.26961  -0.25897  -0.24775
 Alpha virt. eigenvalues --    0.05634   0.06043   0.09210   0.11492   0.11619
 Alpha virt. eigenvalues --    0.12708   0.13397   0.13429   0.15026   0.15673
 Alpha virt. eigenvalues --    0.16837   0.17885   0.18125   0.19975   0.22424

 Mulliken charges:
               1
     1  C   -0.397805
     2  C   -0.184430
     3  C    0.331380
     4  C   -0.472598
     5  C    0.231607
     6  O   -0.259550
     7  C   -0.100810
     8  C   -0.089560
     9  O   -0.267726
    10  H    0.135494
    11  H    0.125225
    12  H    0.126224
    13  H    0.109138
    14  H    0.193844
    15  H    0.079435
    16  H    0.103214
    17  H    0.119713
    18  H    0.112826
    19  H    0.104380
 Sum of Mulliken charges =   0.00000

 Dipole moment (field-independent basis, Debye):
    X=              1.5772    Y=              0.3056    Z=              0.0786  Tot=              1.6084
 Quadrupole moment (field-independent basis, Debye-Ang):
   XX=            -45.7563   YY=            -54.9475   ZZ=            -52.2864
   XY=             -0.3077   XZ=              1.0070   YZ=              0.5729

  Exact polarizability:  96.359   8.209  76.097   3.994   1.891  60.916
 Approx polarizability: 125.064  19.949 112.697   8.962   6.358  92.714

                      1                      2                      3
                      A                      A                      A
 Frequencies --     31.4960                68.5660               123.1383
 Red. masses --      3.4762                 3.7966                 4.0081
 Frc consts  --      0.0020                 0.0105                 0.0358
 IR Inten    --      5.0690                 0.0526                 0.3951

                      4                      5                      6
                      A                      A                      A
 Frequencies --    205.8411               220.7037               234.5702
 Red. masses --      2.1657                 1.3634                 3.6302
 Frc consts  --      0.0541                 0.0391                 0.1177
 IR Inten    --      0.7726                 0.6018                 0.1214

                      7                      8                      9
                      A                      A                      A
 Frequencies --    246.3494               382.8981               412.0211
 Red. masses --      1.8439                 4.8528                 4.5576
 Frc consts  --      0.0659                 0.4192                 0.4559
 IR Inten    --      0.5467                 0.9300                 5.8681

                     10                     11                     12
                      A                      A                      A
 Frequencies --    496.6780               557.3635               629.1662
 Red. masses --      4.6484                 4.4063                 1.2262
 Frc consts  --      0.6756                 0.8065                 0.2860
 IR Inten    --      7.4245                10.0121                43.0712

                     13                     14                     15
                      A                      A                      A
 Frequencies --    643.3805               660.8891               745.2384
 Red. masses --      1.2305                 2.2316                 7.6908
 Frc consts  --      0.3001                 0.5743                 2.5166
 IR Inten    --     43.0771                 2.5226                 3.3384

                     16                     17                     18
                      A                      A                      A
 Frequencies --    853.5031               902.3704               913.0531
 Red. masses --      2.0800                 1.9661                 2.0392
 Frc consts  --      0.8927                 0.9433                 1.0016
 IR Inten    --      5.0718                 6.9498                 7.3128

                     19                     20                     21
                      A                      A                      A
 Frequencies --    953.5084               984.8312              1013.7452
 Red. masses --      2.3366                 3.5075                 3.8790
 Frc consts  --      1.2517                 2.0044                 2.3487
 IR Inten    --      9.0413                37.7475                20.5594

                     22                     23                     24
                      A                      A                      A
 Frequencies --   1068.5183              1079.2876              1094.4837
 Red. masses --      4.4238                 3.2293                 2.0772
 Frc consts  --      2.9758                 2.2163                 1.4660
 IR Inten    --     23.7977                11.2959                 8.9116

                     25                     26                     27
                      A                      A                      A
 Frequencies --   1142.9692              1151.2336              1176.3178
 Red. masses --      3.5995                 1.7889                 2.2518
 Frc consts  --      2.7705                 1.3969                 1.8358
 IR Inten    --    208.8999                 4.5743                97.5703

                     28                     29                     30
                      A                      A                      A
 Frequencies --   1227.1108              1247.7811              1287.7848
 Red. masses --      1.1725                 1.1916                 1.3724
 Frc consts  --      1.0403                 1.0931                 1.3409
 IR Inten    --      2.0974                19.5191                 2.6341

                     31                     32                     33
                      A                      A                      A
 Frequencies --   1313.7783              1335.4922              1383.4827
 Red. masses --      1.3177                 1.2494                 1.3178
 Frc consts  --      1.3401                 1.3129                 1.4861
 IR Inten    --     11.4303                 0.7489                 8.6729

                     34                     35                     36
                      A                      A                      A
 Frequencies --   1389.5391              1397.8352              1420.3109
 Red. masses --      1.3472                 1.2420                 1.3538
 Frc consts  --      1.5325                 1.4299                 1.6090
 IR Inten    --      3.4233                 3.5672                43.4575

                     37                     38                     39
                      A                      A                      A
 Frequencies --   1494.9024              1498.2082              1513.0695
 Red. masses --      1.0431                 1.0562                 1.0987
 Frc consts  --      1.3734                 1.3968                 1.4819
 IR Inten    --      5.2540                 5.0451                 1.4066

                     40                     41                     42
                      A                      A                      A
 Frequencies --   1526.8208              2238.7689              2955.1542
 Red. masses --      1.0979                 5.9303                 1.0830
 Frc consts  --      1.5080                17.5124                 5.5726
 IR Inten    --      0.7366                 1.6119                62.2260

                     43                     44                     45
                      A                      A                      A
 Frequencies --   2996.0595              3011.0960              3031.4160
 Red. masses --      1.0718                 1.0650                 1.0821
 Frc consts  --      5.6685                 5.6890                 5.8588
 IR Inten    --     52.1558                62.2126                17.1238

                     46                     47                     48
                      A                      A                      A
 Frequencies --   3049.4533              3083.4981              3112.4206
 Red. masses --      1.0353                 1.0974                 1.0962
 Frc consts  --      5.6724                 6.1478                 6.2568
 IR Inten    --     21.1654                41.0431                28.0145

                     49                     50                     51
                      A                      A                      A
 Frequencies --   3121.2639              3140.8012              3506.0831
 Red. masses --      1.1009                 1.1030                 1.1621
 Frc consts  --      6.3191                 6.4108                 8.4168
 IR Inten    --     20.7128                14.6232                65.3568

 - Thermochemistry -
 -------------------
 Temperature   298.150 Kelvin.  Pressure   1.00000 Atm.
 Atom     1 has atomic number  6 and mass  12.00000

 Molecular mass:   126.06808 amu.
 Principal axes and moments of inertia in atomic units:
                           1         2         3
     Eigenvalues --   585.122761531.534092001.06311
           X            0.99968  -0.02507   0.00300
           Y            0.02507   0.99969   0.00019
           Z           -0.00300  -0.00012   1.00000
 This molecule is an asymmetric top.
 Rotational symmetry number  1.
 Warning -- assumption of classical behavior for rotation
           may cause significant error
 Rotational temperatures (Kelvin)      0.14803     0.05655     0.04328
 Rotational constants (GHZ):           3.08438     1.17839     0.90189
 Zero-point vibrational energy     414352.0 (Joules/Mol)
                                   99.03251 (Kcal/Mol)
 Warning -- explicit consideration of  11 degrees of freedom as
           vibrations may cause significant error
 Vibrational temperatures:     45.32    98.65   177.17   296.16   317.54
          (Kelvin)            337.49   354.44   550.90   592.81   714.61
                              801.92   905.23   925.68   950.87  1072.23
                             1228.00  1298.31  1313.68  1371.88  1416.95
                             1458.55  1537.36  1552.85  1574.72  1644.48
                             1656.37  1692.46  1765.54  1795.28  1852.83
                             1890.23  1921.47  1990.52  1999.23  2011.17
                             2043.51  2150.83  2155.58  2176.97  2196.75
                             3221.09  4251.80  4310.66  4332.29  4361.53
                             4387.48  4436.46  4478.07  4490.80  4518.91
                             5044.47

 Zero-point correction=                           0.157818 (Hartree/Particle)
 Thermal correction to Energy=                    0.167175
 Thermal correction to Enthalpy=                  0.168119
 Thermal correction to Gibbs Free Energy=         0.122559
 Sum of electronic and zero-point Energies=           -422.994232
 Sum of electronic and thermal Energies=              -422.984875
 Sum of electronic and thermal Enthalpies=            -422.983931
 Sum of electronic and thermal Free Energies=         -423.029492

                     E (Thermal)             CV                S
                      KCal/Mol        Cal/Mol-Kelvin    Cal/Mol-Kelvin
 Total                  104.904             33.781             95.890
 Electronic               0.000              0.000              0.000
 Translational            0.889              2.981             40.409
 Rotational               0.889              2.981             28.974
 Vibrational            103.126             27.820             26.508
 Vibration     1          0.594              1.983              5.733
 Vibration     2          0.598              1.969              4.194
 Vibration     3          0.610              1.930              3.051
 Vibration     4          0.640              1.832              2.080
 Vibration     5          0.647              1.810              1.953
 Vibration     6          0.654              1.788              1.844
 Vibration     7          0.661              1.769              1.757
 Vibration     8          0.752              1.507              1.028
 Vibration     9          0.776              1.444              0.920
 Vibration    10          0.852              1.257              0.666
 Vibration    11          0.913              1.124              0.529

 Optimization completed.
    -- Stationary point found.
 Normal termination of Gaussian 09 at Mon Jan 27 14:56:45 2020.
