 Gaussian 09, Revision D.01,
 Gaussian 09:  ES64L-G09RevD.01 24-Apr-2013

 -----------------------------
 # b3lyp 6-31G(2df,p) opt Freq
 -----------------------------

 -----
 titel
 -----
 Symbolic Z-matrix:
 Charge =  0 Multiplicity = 1

 SCF Done:  E(RB3LYP) =  -423.154804919     A.U. after   13 cycles
 Optimization completed.
    -- Stationary point found.
 Normal termination of Gaussian 09 at Mon Jan 27 17:29:12 2020.

 ----------------------------------------------------------------------
 #N Geom=AllCheck Guess=TCheck SCRF=Check GenChk RB3LYP/6-31G(2df,p) Fr
 eq
 ----------------------------------------------------------------------

 Structure from the checkpoint file:  "/scratch/puck/g09_a4ab0147-7591-4c5d-a238-9fa43a3a3103/Gau-39955.chk"
 -----
 titel
 -----
 Charge =  0 Multiplicity = 1

                         Standard orientation:
 ---------------------------------------------------------------------
 Center     Atomic      Atomic             Coordinates (Angstroms)
 Number     Number       Type             X           Y           Z
 ---------------------------------------------------------------------
      1          8           0       -2.299721   -1.065593    0.356638
      2          6           0       -1.234599   -0.281308   -0.097417
      3          6           0       -1.519344    1.125477   -0.550026
      4          6           0       -0.756505    0.877450    0.743210
      5          6           0        0.756529    0.877454    0.743192
      6          6           0        1.519343    1.125487   -0.550058
      7          6           0        1.234603   -0.281301   -0.097437
      8          8           0        2.299737   -1.065545    0.356666
      9          6           0        0.000003   -1.021129   -0.631264
     10          1           0       -2.854454   -1.282176   -0.400588
     11          1           0       -1.016155    1.542495   -1.415419
     12          1           0       -2.546179    1.454429   -0.428693
     13          1           0       -1.265014    1.120194    1.668451
     14          1           0        1.265053    1.120195    1.668426
     15          1           0        1.016141    1.542517   -1.415439
     16          1           0        2.546185    1.454418   -0.428740
     17          1           0        2.854122   -1.282698   -0.400653
     18          1           0       -0.000007   -1.129968   -1.722706
     19          1           0       -0.000001   -2.023080   -0.192265
 ---------------------------------------------------------------------

 SCF Done:  E(RB3LYP) =  -423.154804919     A.U. after    1 cycles

 The electronic state is 1-A.
 Alpha  occ. eigenvalues --  -19.13891 -19.13890 -10.23289 -10.23288 -10.18642
 Alpha  occ. eigenvalues --  -10.18619 -10.18151 -10.18150 -10.17876  -1.02646
 Alpha  occ. eigenvalues --   -1.02282  -0.88328  -0.81074  -0.72024  -0.64125
 Alpha  occ. eigenvalues --   -0.59035  -0.57223  -0.54225  -0.52744  -0.49227
 Alpha  occ. eigenvalues --   -0.47629  -0.42774  -0.42614  -0.41367  -0.41355
 Alpha  occ. eigenvalues --   -0.38605  -0.35778  -0.35555  -0.33401  -0.30826
 Alpha  occ. eigenvalues --   -0.28282  -0.26886  -0.24797  -0.23929
 Alpha virt. eigenvalues --    0.07199   0.08805   0.09318   0.10604   0.11888
 Alpha virt. eigenvalues --    0.13045   0.15272   0.16646   0.16699   0.18698
 Alpha virt. eigenvalues --    0.19087   0.19844   0.20183   0.21781   0.23888

 Mulliken charges:
               1
     1  O   -0.463504
     2  C    0.403258
     3  C   -0.363596
     4  C   -0.086114
     5  C   -0.086113
     6  C   -0.363587
     7  C    0.403260
     8  O   -0.463503
     9  C   -0.383672
    10  H    0.280523
    11  H    0.108202
    12  H    0.110944
    13  H    0.095319
    14  H    0.095321
    15  H    0.108196
    16  H    0.110949
    17  H    0.280520
    18  H    0.090429
    19  H    0.123166
 Sum of Mulliken charges =   0.00000

 Dipole moment (field-independent basis, Debye):
    X=             -0.0005    Y=              0.4252    Z=             -2.4185  Tot=              2.4556
 Quadrupole moment (field-independent basis, Debye-Ang):
   XX=            -48.8327   YY=            -53.9639   ZZ=            -52.0992
   XY=             -0.0020   XZ=             -0.0001   YZ=              3.9103

  Exact polarizability:  84.417  -0.001  71.809   0.000   1.139  65.897
 Approx polarizability: 111.905  -0.001 106.628   0.001   0.433 105.813

                      1                      2                      3
                      A                      A                      A
 Frequencies --    164.4242               185.8072               271.1327
 Red. masses --      3.4366                 2.9779                 1.2266
 Frc consts  --      0.0547                 0.0606                 0.0531
 IR Inten    --      1.8972                 0.4519                43.8424

                      4                      5                      6
                      A                      A                      A
 Frequencies --    285.1157               319.8120               365.7798
 Red. masses --      1.0685                 5.1952                 2.8375
 Frc consts  --      0.0512                 0.3131                 0.2237
 IR Inten    --    114.8016                11.8085                25.1416

                      7                      8                      9
                      A                      A                      A
 Frequencies --    399.8772               414.6648               423.7565
 Red. masses --      1.8959                 3.3143                 4.0859
 Frc consts  --      0.1786                 0.3358                 0.4323
 IR Inten    --      1.4942                 4.7117                 6.7488

                     10                     11                     12
                      A                      A                      A
 Frequencies --    509.7874               560.2355               617.4866
 Red. masses --      1.9462                 3.2201                 3.3565
 Frc consts  --      0.2980                 0.5955                 0.7540
 IR Inten    --      4.3082                 5.6915                 0.7608

                     13                     14                     15
                      A                      A                      A
 Frequencies --    707.0371               751.8137               812.6505
 Red. masses --      3.6643                 3.0581                 1.9624
 Frc consts  --      1.0793                 1.0184                 0.7636
 IR Inten    --      3.8918                 1.0648                 3.6812

                     16                     17                     18
                      A                      A                      A
 Frequencies --    871.1429               876.8961               919.8043
 Red. masses --      2.5201                 2.6259                 1.6189
 Frc consts  --      1.1268                 1.1897                 0.8070
 IR Inten    --      2.7583                30.6036                 0.6431

                     19                     20                     21
                      A                      A                      A
 Frequencies --    920.8196               946.5590               947.1439
 Red. masses --      1.7465                 1.6485                 1.9670
 Frc consts  --      0.8725                 0.8702                 1.0397
 IR Inten    --      9.1747                23.4460                 3.0450

                     22                     23                     24
                      A                      A                      A
 Frequencies --   1006.7658              1009.8047              1037.2361
 Red. masses --      2.2790                 2.4074                 1.1545
 Frc consts  --      1.3609                 1.4464                 0.7318
 IR Inten    --      0.6669                12.6149                 1.3642

                     25                     26                     27
                      A                      A                      A
 Frequencies --   1046.1326              1059.9666              1099.8646
 Red. masses --      1.3954                 1.2850                 1.7268
 Frc consts  --      0.8998                 0.8507                 1.2307
 IR Inten    --      0.8490                10.8816                 6.1432

                     28                     29                     30
                      A                      A                      A
 Frequencies --   1113.6389              1132.6319              1231.2322
 Red. masses --      2.0554                 1.3464                 1.4656
 Frc consts  --      1.5019                 1.0177                 1.3091
 IR Inten    --      2.1112                65.3086                 6.0473

                     31                     32                     33
                      A                      A                      A
 Frequencies --   1251.5035              1255.3575              1288.5918
 Red. masses --      2.3570                 1.7483                 1.7182
 Frc consts  --      2.1750                 1.6233                 1.6809
 IR Inten    --    107.7772                 0.1742               107.6120

                     34                     35                     36
                      A                      A                      A
 Frequencies --   1290.3485              1335.4604              1344.2916
 Red. masses --      2.9805                 1.5750                 1.6486
 Frc consts  --      2.9238                 1.6550                 1.7553
 IR Inten    --      8.7947                 0.3382                31.2830

                     37                     38                     39
                      A                      A                      A
 Frequencies --   1388.3079              1399.4103              1478.0328
 Red. masses --      2.5370                 1.5026                 1.1084
 Frc consts  --      2.8810                 1.7337                 1.4266
 IR Inten    --     18.9263                 8.3215                 2.2241

                     40                     41                     42
                      A                      A                      A
 Frequencies --   1480.3877              1500.8906              3031.1154
 Red. masses --      1.6321                 1.2691                 1.0649
 Frc consts  --      2.1074                 1.6844                 5.7644
 IR Inten    --      0.2553                11.3072                36.9732

                     43                     44                     45
                      A                      A                      A
 Frequencies --   3095.1868              3126.5923              3134.2222
 Red. masses --      1.0979                 1.0544                 1.0537
 Frc consts  --      6.1971                 6.0727                 6.0984
 IR Inten    --      9.8548                 4.6867                19.4599

                     46                     47                     48
                      A                      A                      A
 Frequencies --   3180.5505              3192.2294              3213.3971
 Red. masses --      1.0902                 1.0931                 1.1158
 Frc consts  --      6.4978                 6.5631                 6.7884
 IR Inten    --      2.3693                 9.1863                13.6997

                     49                     50                     51
                      A                      A                      A
 Frequencies --   3219.1361              3794.0296              3794.3602
 Red. masses --      1.1141                 1.0663                 1.0662
 Frc consts  --      6.8023                 9.0432                 9.0443
 IR Inten    --      9.9123                18.5065                16.0611

 - Thermochemistry -
 -------------------
 Temperature   298.150 Kelvin.  Pressure   1.00000 Atm.
 Atom     1 has atomic number  8 and mass  15.99491

 Molecular mass:   126.06808 amu.
 Principal axes and moments of inertia in atomic units:
                           1         2         3
     Eigenvalues --   581.277641259.049611534.15496
           X            1.00000  -0.00001   0.00000
           Y            0.00001   0.99983   0.01833
           Z            0.00000  -0.01833   0.99983
 This molecule is an asymmetric top.
 Rotational symmetry number  1.
 Warning -- assumption of classical behavior for rotation
           may cause significant error
 Rotational temperatures (Kelvin)      0.14901     0.06879     0.05646
 Rotational constants (GHZ):           3.10478     1.43342     1.17637
 Zero-point vibrational energy     417511.2 (Joules/Mol)
                                   99.78757 (Kcal/Mol)
 Warning -- explicit consideration of  12 degrees of freedom as
           vibrations may cause significant error
 Vibrational temperatures:    236.57   267.33   390.10   410.22   460.14
          (Kelvin)            526.27   575.33   596.61   609.69   733.47
                              806.05   888.42  1017.27  1081.69  1169.22
                             1253.38  1261.66  1323.39  1324.85  1361.89
                             1362.73  1448.51  1452.88  1492.35  1505.15
                             1525.05  1582.46  1602.28  1629.60  1771.47
                             1800.63  1806.18  1853.99  1856.52  1921.43
                             1934.13  1997.46  2013.44  2126.56  2129.95
                             2159.44  4361.09  4453.28  4498.46  4509.44
                             4576.10  4592.90  4623.36  4631.61  5458.76
                             5459.23

 Zero-point correction=                           0.159022 (Hartree/Particle)
 Thermal correction to Energy=                    0.167072
 Thermal correction to Enthalpy=                  0.168016
 Thermal correction to Gibbs Free Energy=         0.127189
 Sum of electronic and zero-point Energies=           -422.995783
 Sum of electronic and thermal Energies=              -422.987733
 Sum of electronic and thermal Enthalpies=            -422.986789
 Sum of electronic and thermal Free Energies=         -423.027616

                     E (Thermal)             CV                S
                      KCal/Mol        Cal/Mol-Kelvin    Cal/Mol-Kelvin
 Total                  104.839             33.128             85.929
 Electronic               0.000              0.000              0.000
 Translational            0.889              2.981             40.409
 Rotational               0.889              2.981             28.509
 Vibrational            103.062             27.167             17.011
 Vibration     1          0.623              1.886              2.498
 Vibration     2          0.632              1.859              2.269
 Vibration     3          0.675              1.726              1.589
 Vibration     4          0.683              1.701              1.503
 Vibration     5          0.706              1.636              1.311
 Vibration     6          0.739              1.543              1.097
 Vibration     7          0.766              1.470              0.963
 Vibration     8          0.778              1.438              0.910
 Vibration     9          0.786              1.419              0.879
 Vibration    10          0.865              1.228              0.634
 Vibration    11          0.916              1.117              0.523
 Vibration    12          0.977              0.995              0.421

 Normal termination of Gaussian 09 at Mon Jan 27 18:25:46 2020.
