 Gaussian 09, Revision D.01,
 Gaussian 09:  ES64L-G09RevD.01 24-Apr-2013

 -----------------------------
 # b3lyp 6-31G(2df,p) opt Freq
 -----------------------------

 -----
 titel
 -----
 Symbolic Z-matrix:
 Charge =  0 Multiplicity = 1

 SCF Done:  E(RB3LYP) =  -423.164607785     A.U. after   14 cycles
 Optimization completed.
    -- Stationary point found.
 Normal termination of Gaussian 09 at Mon Jan 27 23:05:16 2020.

 ----------------------------------------------------------------------
 #N Geom=AllCheck Guess=TCheck SCRF=Check GenChk RB3LYP/6-31G(2df,p) Fr
 eq
 ----------------------------------------------------------------------

 Structure from the checkpoint file:  "/scratch/puck/g09_e5a97592-d3e6-4573-902e-82443e80c3a5/Gau-185886.chk"
 -----
 titel
 -----
 Charge =  0 Multiplicity = 1

                         Standard orientation:
 ---------------------------------------------------------------------
 Center     Atomic      Atomic             Coordinates (Angstroms)
 Number     Number       Type             X           Y           Z
 ---------------------------------------------------------------------
      1          6           0        2.330720   -0.731603   -1.059049
      2          6           0        1.511647   -0.181752    0.100845
      3          6           0        0.438545   -1.139906    0.648612
      4          8           0       -0.320269   -0.461008    1.631384
      5          6           0       -0.653072   -0.199388    0.255833
      6          6           0       -2.014894   -0.534736   -0.192387
      7          8           0       -2.539947   -0.043831   -1.162838
      8          6           0        0.355101    0.812173   -0.307519
      9          6           0        0.344749    2.212175    0.287753
     10          1           0        3.015944   -1.518142   -0.724790
     11          1           0        1.685954   -1.157150   -1.836214
     12          1           0        2.929199    0.060256   -1.520455
     13          1           0        2.161688    0.200924    0.894061
     14          1           0        0.437514   -2.225379    0.675184
     15          1           0       -2.517932   -1.299139    0.439191
     16          1           0        0.262683    0.844983   -1.397117
     17          1           0        0.370367    2.166154    1.380196
     18          1           0        1.214312    2.785452   -0.050350
     19          1           0       -0.554773    2.758979   -0.012603
 ---------------------------------------------------------------------

 SCF Done:  E(RB3LYP) =  -423.164607785     A.U. after    1 cycles

 The electronic state is 1-A.
 Alpha  occ. eigenvalues --  -19.17460 -19.14238 -10.27530 -10.25703 -10.25021
 Alpha  occ. eigenvalues --  -10.20589 -10.20279 -10.18990 -10.17840  -1.10124
 Alpha  occ. eigenvalues --   -1.04784  -0.83350  -0.74871  -0.71157  -0.68514
 Alpha  occ. eigenvalues --   -0.62830  -0.58550  -0.54598  -0.51181  -0.47947
 Alpha  occ. eigenvalues --   -0.46017  -0.45331  -0.43035  -0.42170  -0.40919
 Alpha  occ. eigenvalues --   -0.40076  -0.39008  -0.37864  -0.34981  -0.34473
 Alpha  occ. eigenvalues --   -0.33289  -0.29979  -0.26971  -0.25710
 Alpha virt. eigenvalues --   -0.03785   0.08410   0.09941   0.11056   0.11463
 Alpha virt. eigenvalues --    0.12702   0.12835   0.14224   0.15088   0.15940
 Alpha virt. eigenvalues --    0.16709   0.17034   0.18376   0.19231   0.20933

 Mulliken charges:
               1
     1  C   -0.414759
     2  C   -0.018691
     3  C   -0.042556
     4  O   -0.278219
     5  C    0.312086
     6  C    0.062646
     7  O   -0.263948
     8  C   -0.071367
     9  C   -0.420625
    10  H    0.120336
    11  H    0.123059
    12  H    0.127188
    13  H    0.088042
    14  H    0.114896
    15  H    0.086248
    16  H    0.098235
    17  H    0.131174
    18  H    0.116535
    19  H    0.129721
 Sum of Mulliken charges =   0.00000

 Dipole moment (field-independent basis, Debye):
    X=              2.5453    Y=             -0.8848    Z=              0.1648  Tot=              2.6998
 Quadrupole moment (field-independent basis, Debye-Ang):
   XX=            -56.6051   YY=            -49.7355   ZZ=            -58.4494
   XY=              0.7349   XZ=             -4.1521   YZ=              0.0610

  Exact polarizability:  88.643  -1.608  75.327   2.816  -4.143  68.101
 Approx polarizability: 124.111  -8.150 106.346  13.241 -11.728 115.926

                      1                      2                      3
                      A                      A                      A
 Frequencies --     77.6311               144.3688               156.6670
 Red. masses --      4.5528                 4.0537                 3.2728
 Frc consts  --      0.0162                 0.0498                 0.0473
 IR Inten    --      2.0372                 5.3604                 5.0492

                      4                      5                      6
                      A                      A                      A
 Frequencies --    211.4446               224.1811               231.9733
 Red. masses --      2.2860                 1.0982                 1.1276
 Frc consts  --      0.0602                 0.0325                 0.0358
 IR Inten    --      2.4507                 0.5939                 0.1814

                      7                      8                      9
                      A                      A                      A
 Frequencies --    276.5061               309.2694               365.1453
 Red. masses --      2.4446                 2.4816                 2.6758
 Frc consts  --      0.1101                 0.1398                 0.2102
 IR Inten    --      4.7752                 2.4110                 1.4683

                     10                     11                     12
                      A                      A                      A
 Frequencies --    484.5202               510.5504               569.4116
 Red. masses --      6.1471                 5.1208                 3.7232
 Frc consts  --      0.8502                 0.7864                 0.7112
 IR Inten    --      0.5841                 8.6573                11.5975

                     13                     14                     15
                      A                      A                      A
 Frequencies --    676.4271               734.4666               810.9430
 Red. masses --      4.4477                 3.3658                 2.0316
 Frc consts  --      1.1990                 1.0697                 0.7872
 IR Inten    --     18.4449                 9.9793                 1.2541

                     16                     17                     18
                      A                      A                      A
 Frequencies --    841.3193               881.2964               902.8595
 Red. masses --      3.1074                 2.5848                 3.2594
 Frc consts  --      1.2959                 1.1828                 1.5654
 IR Inten    --     28.9100                 6.4037                12.6257

                     19                     20                     21
                      A                      A                      A
 Frequencies --    979.4610               996.3253              1030.6718
 Red. masses --      1.3486                 1.2123                 1.7293
 Frc consts  --      0.7623                 0.7090                 1.0823
 IR Inten    --      3.2603                 2.8164                 7.6560

                     22                     23                     24
                      A                      A                      A
 Frequencies --   1066.9085              1085.8270              1111.0287
 Red. masses --      1.9681                 2.4039                 1.8303
 Frc consts  --      1.3199                 1.6699                 1.3311
 IR Inten    --      0.8404                 1.2466                 2.8926

                     25                     26                     27
                      A                      A                      A
 Frequencies --   1119.6175              1160.8720              1198.0061
 Red. masses --      1.8843                 2.3161                 1.6892
 Frc consts  --      1.3917                 1.8390                 1.4284
 IR Inten    --      8.8842                 0.7269                19.0748

                     28                     29                     30
                      A                      A                      A
 Frequencies --   1230.2134              1256.4096              1282.0080
 Red. masses --      1.5803                 1.5018                 2.2357
 Frc consts  --      1.4091                 1.3968                 2.1650
 IR Inten    --      2.1143                 4.9721                 6.0918

                     31                     32                     33
                      A                      A                      A
 Frequencies --   1324.2388              1366.0828              1388.8381
 Red. masses --      1.5380                 1.7269                 1.6656
 Frc consts  --      1.5890                 1.8988                 1.8929
 IR Inten    --     13.0549                 1.3662                 4.5929

                     34                     35                     36
                      A                      A                      A
 Frequencies --   1404.2359              1413.8174              1438.4969
 Red. masses --      1.2607                 1.2405                 2.3344
 Frc consts  --      1.4646                 1.4610                 2.8460
 IR Inten    --      3.6544                 2.6357                33.4107

                     37                     38                     39
                      A                      A                      A
 Frequencies --   1493.4561              1495.7284              1500.0777
 Red. masses --      1.0427                 1.0459                 1.0495
 Frc consts  --      1.3702                 1.3787                 1.3915
 IR Inten    --      7.5388                 2.0619                 3.4328

                     40                     41                     42
                      A                      A                      A
 Frequencies --   1502.5945              1804.8802              2899.7175
 Red. masses --      1.0538                10.5174                 1.0839
 Frc consts  --      1.4019                20.1862                 5.3698
 IR Inten    --      2.7768               204.2898                96.9291

                     43                     44                     45
                      A                      A                      A
 Frequencies --   3029.2523              3036.0701              3058.0749
 Red. masses --      1.0354                 1.0353                 1.0851
 Frc consts  --      5.5977                 5.6228                 5.9788
 IR Inten    --     23.4858                20.4279                12.4583

                     46                     47                     48
                      A                      A                      A
 Frequencies --   3072.5774              3096.8316              3102.0526
 Red. masses --      1.0853                 1.1006                 1.1013
 Frc consts  --      6.0365                 6.2189                 6.2437
 IR Inten    --      7.4829                29.2048                13.2454

                     49                     50                     51
                      A                      A                      A
 Frequencies --   3103.6940              3117.6313              3169.1528
 Red. masses --      1.1012                 1.1012                 1.0930
 Frc consts  --      6.2498                 6.3063                 6.4681
 IR Inten    --     26.3214                19.9706                15.5386

 - Thermochemistry -
 -------------------
 Temperature   298.150 Kelvin.  Pressure   1.00000 Atm.
 Atom     1 has atomic number  6 and mass  12.00000

 Molecular mass:   126.06808 amu.
 Principal axes and moments of inertia in atomic units:
                           1         2         3
     Eigenvalues --   803.687981383.284291493.39898
           X            0.99900   0.00148  -0.04462
           Y            0.00264   0.99575   0.09204
           Z            0.04457  -0.09207   0.99475
 This molecule is an asymmetric top.
 Rotational symmetry number  1.
 Warning -- assumption of classical behavior for rotation
           may cause significant error
 Rotational temperatures (Kelvin)      0.10777     0.06261     0.05800
 Rotational constants (GHZ):           2.24557     1.30468     1.20848
 Zero-point vibrational energy     411179.4 (Joules/Mol)
                                   98.27424 (Kcal/Mol)
 Warning -- explicit consideration of  12 degrees of freedom as
           vibrations may cause significant error
 Vibrational temperatures:    111.69   207.71   225.41   304.22   322.55
          (Kelvin)            333.76   397.83   444.97   525.36   697.12
                              734.57   819.26   973.23  1056.73  1166.76
                             1210.47  1267.99  1299.01  1409.22  1433.49
                             1482.90  1535.04  1562.26  1598.52  1610.88
                             1670.23  1723.66  1770.00  1807.69  1844.52
                             1905.28  1965.49  1998.23  2020.38  2034.17
                             2069.67  2148.75  2152.02  2158.27  2161.90
                             2596.82  4172.04  4358.41  4368.22  4399.88
                             4420.75  4455.64  4463.16  4465.52  4485.57
                             4559.70

 Zero-point correction=                           0.156610 (Hartree/Particle)
 Thermal correction to Energy=                    0.165751
 Thermal correction to Enthalpy=                  0.166696
 Thermal correction to Gibbs Free Energy=         0.122783
 Sum of electronic and zero-point Energies=           -423.007998
 Sum of electronic and thermal Energies=              -422.998856
 Sum of electronic and thermal Enthalpies=            -422.997912
 Sum of electronic and thermal Free Energies=         -423.041825

                     E (Thermal)             CV                S
                      KCal/Mol        Cal/Mol-Kelvin    Cal/Mol-Kelvin
 Total                  104.011             33.761             92.421
 Electronic               0.000              0.000              0.000
 Translational            0.889              2.981             40.409
 Rotational               0.889              2.981             28.897
 Vibrational            102.233             27.799             23.116
 Vibration     1          0.599              1.964              3.950
 Vibration     2          0.616              1.909              2.745
 Vibration     3          0.620              1.895              2.590
 Vibration     4          0.643              1.823              2.031
 Vibration     5          0.649              1.804              1.925
 Vibration     6          0.653              1.792              1.864
 Vibration     7          0.678              1.717              1.555
 Vibration     8          0.699              1.656              1.366
 Vibration     9          0.738              1.544              1.100
 Vibration    10          0.841              1.284              0.698
 Vibration    11          0.866              1.227              0.632
 Vibration    12          0.925              1.097              0.505

 Optimization completed.
    -- Stationary point found.
 Normal termination of Gaussian 09 at Mon Jan 27 23:50:58 2020.
