 Gaussian 09, Revision D.01,
 Gaussian 09:  ES64L-G09RevD.01 24-Apr-2013

 -----------------------------
 # b3lyp 6-31G(2df,p) opt Freq
 -----------------------------

 -----
 titel
 -----
 Symbolic Z-matrix:
 Charge =  0 Multiplicity = 1

 SCF Done:  E(RB3LYP) =  -423.237515264     A.U. after   14 cycles
 Optimization completed.
    -- Stationary point found.
 Normal termination of Gaussian 09 at Tue Jan 28 00:42:49 2020.

 ----------------------------------------------------------------------
 #N Geom=AllCheck Guess=TCheck SCRF=Check GenChk RB3LYP/6-31G(2df,p) Fr
 eq
 ----------------------------------------------------------------------

 Structure from the checkpoint file:  "/scratch/puck/g09_6a69e296-e794-4cb2-a64e-37890f1313f3/Gau-37440.chk"
 -----
 titel
 -----
 Charge =  0 Multiplicity = 1

                         Standard orientation:
 ---------------------------------------------------------------------
 Center     Atomic      Atomic             Coordinates (Angstroms)
 Number     Number       Type             X           Y           Z
 ---------------------------------------------------------------------
      1          6           0       -2.577142   -0.261101    0.829587
      2          6           0       -1.614228   -0.055216   -0.342178
      3          8           0       -0.621752   -1.097517   -0.267620
      4          6           0        0.716183   -0.911091   -0.238884
      5          8           0        1.427532   -1.876929   -0.154925
      6          6           0        1.290511    0.502604   -0.316659
      7          6           0        2.289764    0.717059    0.839567
      8          6           0        0.252244    1.582365   -0.379358
      9          6           0       -1.048838    1.327693   -0.387642
     10          1           0       -3.425202    0.425576    0.747503
     11          1           0       -2.955521   -1.286090    0.827712
     12          1           0       -2.068181   -0.074453    1.779461
     13          1           0       -2.162253   -0.248721   -1.276008
     14          1           0        1.875328    0.515074   -1.248350
     15          1           0        2.801403    1.677141    0.723283
     16          1           0        1.773758    0.722011    1.804627
     17          1           0        3.030297   -0.084052    0.843600
     18          1           0        0.614863    2.606828   -0.415246
     19          1           0       -1.781702    2.128374   -0.432824
 ---------------------------------------------------------------------

 SCF Done:  E(RB3LYP) =  -423.237515264     A.U. after    1 cycles

 The electronic state is 1-A.
 Alpha  occ. eigenvalues --  -19.17681 -19.11173 -10.30127 -10.25940 -10.21034
 Alpha  occ. eigenvalues --  -10.19893 -10.19743 -10.18947 -10.18451  -1.09204
 Alpha  occ. eigenvalues --   -1.00964  -0.83000  -0.79559  -0.73498  -0.66535
 Alpha  occ. eigenvalues --   -0.63428  -0.61419  -0.52639  -0.50451  -0.48697
 Alpha  occ. eigenvalues --   -0.47197  -0.43898  -0.42974  -0.41952  -0.40597
 Alpha  occ. eigenvalues --   -0.39760  -0.39394  -0.37483  -0.36673  -0.35247
 Alpha  occ. eigenvalues --   -0.32551  -0.29009  -0.26320  -0.25838
 Alpha virt. eigenvalues --    0.00327   0.01825   0.07936   0.11442   0.12034
 Alpha virt. eigenvalues --    0.13365   0.13859   0.14378   0.16165   0.16705
 Alpha virt. eigenvalues --    0.16853   0.18379   0.18880   0.20066   0.22251

 Mulliken charges:
               1
     1  C   -0.386506
     2  C    0.088854
     3  O   -0.250499
     4  C    0.420449
     5  O   -0.333836
     6  C   -0.203494
     7  C   -0.385807
     8  C   -0.065398
     9  C   -0.090557
    10  H    0.120075
    11  H    0.136996
    12  H    0.129001
    13  H    0.107526
    14  H    0.122994
    15  H    0.114491
    16  H    0.123091
    17  H    0.148937
    18  H    0.100753
    19  H    0.102927
 Sum of Mulliken charges =   0.00000

 Dipole moment (field-independent basis, Debye):
    X=             -1.8109    Y=              3.6193    Z=             -0.1035  Tot=              4.0484
 Quadrupole moment (field-independent basis, Debye-Ang):
   XX=            -49.7187   YY=            -58.8342   ZZ=            -52.4498
   XY=              4.0748   XZ=              0.1128   YZ=             -0.7963

  Exact polarizability: 101.656  -0.076  75.952   0.963  -1.123  57.501
 Approx polarizability: 145.746  -3.645 112.105   1.874  -1.395  86.146

                      1                      2                      3
                      A                      A                      A
 Frequencies --     24.6508                68.0937               209.6814
 Red. masses --      3.0603                 6.1537                 2.0348
 Frc consts  --      0.0011                 0.0168                 0.0527
 IR Inten    --      1.5568                 0.0728                 0.2135

                      4                      5                      6
                      A                      A                      A
 Frequencies --    232.4094               240.5690               282.2139
 Red. masses --      1.1400                 1.2042                 2.6040
 Frc consts  --      0.0363                 0.0411                 0.1222
 IR Inten    --      0.4530                 0.1094                 4.9849

                      7                      8                      9
                      A                      A                      A
 Frequencies --    317.6964               375.8732               467.4281
 Red. masses --      2.7326                 3.2297                 5.5680
 Frc consts  --      0.1625                 0.2688                 0.7168
 IR Inten    --      0.8937                 2.1539                 1.5922

                     10                     11                     12
                      A                      A                      A
 Frequencies --    505.5533               535.9005               576.0308
 Red. masses --      6.3723                 3.9803                 3.3276
 Frc consts  --      0.9596                 0.6735                 0.6505
 IR Inten    --      4.9094                 3.7330                 0.4201

                     13                     14                     15
                      A                      A                      A
 Frequencies --    666.9393               725.7075               782.8834
 Red. masses --      5.2899                 2.3725                 1.6241
 Frc consts  --      1.3863                 0.7362                 0.5865
 IR Inten    --      1.4863                24.2721                11.1121

                     16                     17                     18
                      A                      A                      A
 Frequencies --    822.7447               878.2087               921.7942
 Red. masses --      2.6516                 2.4175                 2.6026
 Frc consts  --      1.0575                 1.0985                 1.3029
 IR Inten    --      1.1976                 2.5864                14.2454

                     19                     20                     21
                      A                      A                      A
 Frequencies --    983.0271              1004.3266              1017.7460
 Red. masses --      1.8383                 1.2168                 2.0070
 Frc consts  --      1.0466                 0.7231                 1.2248
 IR Inten    --      5.8708                 0.2690                 3.8434

                     22                     23                     24
                      A                      A                      A
 Frequencies --   1066.1328              1091.3956              1108.8412
 Red. masses --      1.9383                 2.2512                 2.4403
 Frc consts  --      1.2980                 1.5799                 1.7678
 IR Inten    --     16.6046                 5.2797                21.5554

                     25                     26                     27
                      A                      A                      A
 Frequencies --   1128.6656              1152.7109              1188.0743
 Red. masses --      1.7936                 1.8354                 1.6437
 Frc consts  --      1.3462                 1.4369                 1.3670
 IR Inten    --     21.0709               113.5928                43.5236

                     28                     29                     30
                      A                      A                      A
 Frequencies --   1240.0817              1299.5596              1342.6319
 Red. masses --      1.7717                 1.3074                 1.3459
 Frc consts  --      1.6052                 1.3010                 1.4294
 IR Inten    --    136.4607                 1.6822                11.2746

                     31                     32                     33
                      A                      A                      A
 Frequencies --   1345.0387              1393.4641              1396.3359
 Red. masses --      1.8110                 1.3613                 1.4224
 Frc consts  --      1.9304                 1.5574                 1.6340
 IR Inten    --     30.7877                23.6612                23.4608

                     34                     35                     36
                      A                      A                      A
 Frequencies --   1403.3029              1426.3557              1485.9515
 Red. masses --      1.2534                 1.5391                 1.0578
 Frc consts  --      1.4543                 1.8449                 1.3761
 IR Inten    --      7.5474                 7.0884                 2.9327

                     37                     38                     39
                      A                      A                      A
 Frequencies --   1494.0538              1494.9089              1503.4900
 Red. masses --      1.0495                 1.0575                 1.0560
 Frc consts  --      1.3802                 1.3924                 1.4064
 IR Inten    --      5.3916                 1.8369                 5.8070

                     40                     41                     42
                      A                      A                      A
 Frequencies --   1750.6796              1829.1210              2996.4861
 Red. masses --      7.5512                12.6542                 1.0828
 Frc consts  --     13.6357                24.9442                 5.7282
 IR Inten    --      3.4857               295.3765                32.3514

                     43                     44                     45
                      A                      A                      A
 Frequencies --   3000.4060              3044.0792              3044.5577
 Red. masses --      1.0807                 1.0352                 1.0346
 Frc consts  --      5.7319                 5.6516                 5.6504
 IR Inten    --      9.5185                21.2286                16.5882

                     46                     47                     48
                      A                      A                      A
 Frequencies --   3111.7108              3119.9308              3132.0503
 Red. masses --      1.1024                 1.1018                 1.1031
 Frc consts  --      6.2893                 6.3188                 6.3756
 IR Inten    --     21.7293                18.9210                15.9531

                     49                     50                     51
                      A                      A                      A
 Frequencies --   3146.3497              3151.2474              3177.1828
 Red. masses --      1.1010                 1.0844                 1.0969
 Frc consts  --      6.4220                 6.3447                 6.5239
 IR Inten    --      8.6678                 8.4382                17.2086

 - Thermochemistry -
 -------------------
 Temperature   298.150 Kelvin.  Pressure   1.00000 Atm.
 Atom     1 has atomic number  6 and mass  12.00000

 Molecular mass:   126.06808 amu.
 Principal axes and moments of inertia in atomic units:
                           1         2         3
     Eigenvalues --   716.499551241.764211690.25634
           X            0.99875   0.05005  -0.00024
           Y           -0.05005   0.99874  -0.00468
           Z            0.00000   0.00468   0.99999
 This molecule is an asymmetric top.
 Rotational symmetry number  1.
 Warning -- assumption of classical behavior for rotation
           may cause significant error
 Rotational temperatures (Kelvin)      0.12088     0.06975     0.05124
 Rotational constants (GHZ):           2.51883     1.45337     1.06773
 Zero-point vibrational energy     416924.1 (Joules/Mol)
                                   99.64726 (Kcal/Mol)
 Warning -- explicit consideration of  12 degrees of freedom as
           vibrations may cause significant error
 Vibrational temperatures:     35.47    97.97   301.68   334.38   346.12
          (Kelvin)            406.04   457.09   540.80   672.52   727.38
                              771.04   828.78   959.58  1044.13  1126.39
                             1183.74  1263.54  1326.25  1414.35  1445.00
                             1464.31  1533.93  1570.27  1595.37  1623.90
                             1658.49  1709.37  1784.20  1869.77  1931.75
                             1935.21  2004.88  2009.01  2019.04  2052.21
                             2137.95  2149.61  2150.84  2163.18  2518.83
                             2631.69  4311.27  4316.91  4379.75  4380.43
                             4477.05  4488.88  4506.32  4526.89  4533.94
                             4571.25

 Zero-point correction=                           0.158798 (Hartree/Particle)
 Thermal correction to Energy=                    0.167730
 Thermal correction to Enthalpy=                  0.168674
 Thermal correction to Gibbs Free Energy=         0.124074
 Sum of electronic and zero-point Energies=           -423.078717
 Sum of electronic and thermal Energies=              -423.069786
 Sum of electronic and thermal Enthalpies=            -423.068842
 Sum of electronic and thermal Free Energies=         -423.113441

                     E (Thermal)             CV                S
                      KCal/Mol        Cal/Mol-Kelvin    Cal/Mol-Kelvin
 Total                  105.252             33.028             93.868
 Electronic               0.000              0.000              0.000
 Translational            0.889              2.981             40.409
 Rotational               0.889              2.981             28.799
 Vibrational            103.474             27.066             24.661
 Vibration     1          0.593              1.985              6.219
 Vibration     2          0.598              1.969              4.208
 Vibration     3          0.642              1.826              2.046
 Vibration     4          0.653              1.791              1.860
 Vibration     5          0.658              1.778              1.799
 Vibration     6          0.681              1.707              1.520
 Vibration     7          0.704              1.640              1.322
 Vibration     8          0.747              1.522              1.056
 Vibration     9          0.825              1.322              0.745
 Vibration    10          0.861              1.238              0.644
 Vibration    11          0.891              1.171              0.574
 Vibration    12          0.932              1.083              0.493

 Normal termination of Gaussian 09 at Tue Jan 28 02:42:17 2020.
