 Gaussian 09, Revision D.01,
 Gaussian 09:  ES64L-G09RevD.01 24-Apr-2013

 -----------------------------
 # b3lyp 6-31G(2df,p) opt Freq
 -----------------------------

 -----
 titel
 -----
 Symbolic Z-matrix:
 Charge =  0 Multiplicity = 1

 SCF Done:  E(RB3LYP) =  -423.181213199     A.U. after   13 cycles
 Optimization completed.
    -- Stationary point found.
 Normal termination of Gaussian 09 at Mon Jan 27 17:03:59 2020.

 ----------------------------------------------------------------------
 #N Geom=AllCheck Guess=TCheck SCRF=Check GenChk RB3LYP/6-31G(2df,p) Fr
 eq
 ----------------------------------------------------------------------

 Structure from the checkpoint file:  "/scratch/puck/g09_ff81fc60-7c2f-4af2-844c-4ede553be04f/Gau-49240.chk"
 -----
 titel
 -----
 Charge =  0 Multiplicity = 1

                         Standard orientation:
 ---------------------------------------------------------------------
 Center     Atomic      Atomic             Coordinates (Angstroms)
 Number     Number       Type             X           Y           Z
 ---------------------------------------------------------------------
      1          6           0       -2.366301    0.014999   -0.497131
      2          6           0       -0.920322    0.020658   -0.080952
      3          6           0       -0.297158    0.891253    0.991220
      4          6           0        0.972646    1.496385    0.412453
      5          8           0        1.059588    1.040754   -0.941432
      6          6           0        0.241842   -0.114234   -1.090204
      7          6           0        0.963401   -1.372667   -0.592379
      8          8           0        0.849921   -1.326727    0.835812
      9          6           0       -0.329105   -0.619503    1.138504
     10          1           0       -2.591509    0.855445   -1.163321
     11          1           0       -2.630247   -0.910080   -1.022409
     12          1           0       -3.024198    0.096982    0.373876
     13          1           0       -0.918343    1.488689    1.649970
     14          1           0        0.930901    2.590774    0.402259
     15          1           0        1.862855    1.183998    0.974193
     16          1           0       -0.068942   -0.178859   -2.135888
     17          1           0        0.479316   -2.280977   -0.984243
     18          1           0        2.023385   -1.381565   -0.856766
     19          1           0       -0.929301   -1.077977    1.918224
 ---------------------------------------------------------------------

 SCF Done:  E(RB3LYP) =  -423.181213199     A.U. after    1 cycles

 The electronic state is 1-A.
 Alpha  occ. eigenvalues --  -19.14168 -19.13311 -10.23413 -10.23307 -10.22517
 Alpha  occ. eigenvalues --  -10.22396 -10.19842 -10.19076 -10.18800  -1.05474
 Alpha  occ. eigenvalues --   -1.01767  -0.85744  -0.76426  -0.71332  -0.68913
 Alpha  occ. eigenvalues --   -0.60277  -0.57698  -0.56936  -0.51515  -0.47061
 Alpha  occ. eigenvalues --   -0.45441  -0.43855  -0.43295  -0.42271  -0.41778
 Alpha  occ. eigenvalues --   -0.41188  -0.40371  -0.35464  -0.33874  -0.32780
 Alpha  occ. eigenvalues --   -0.31296  -0.27271  -0.24733  -0.23524
 Alpha virt. eigenvalues --    0.08908   0.10177   0.10254   0.12066   0.13621
 Alpha virt. eigenvalues --    0.13992   0.14479   0.15368   0.15602   0.16645
 Alpha virt. eigenvalues --    0.17319   0.18525   0.18681   0.20358   0.21592

 Mulliken charges:
               1
     1  C   -0.511651
     2  C    0.286553
     3  C   -0.167261
     4  C   -0.097358
     5  O   -0.267994
     6  C    0.011005
     7  C   -0.091777
     8  O   -0.265594
     9  C    0.047162
    10  H    0.126391
    11  H    0.121531
    12  H    0.120985
    13  H    0.089396
    14  H    0.104018
    15  H    0.108459
    16  H    0.084000
    17  H    0.089478
    18  H    0.117541
    19  H    0.095116
 Sum of Mulliken charges =   0.00000

 Dipole moment (field-independent basis, Debye):
    X=             -1.8858    Y=              0.0496    Z=             -0.0276  Tot=              1.8866
 Quadrupole moment (field-independent basis, Debye-Ang):
   XX=            -53.0768   YY=            -53.5182   ZZ=            -52.7688
   XY=              0.0529   XZ=             -0.7313   YZ=              4.5215

  Exact polarizability:  75.443   0.755  74.353  -0.087   5.270  70.651
 Approx polarizability: 103.782   1.012 108.529   0.512   4.526 108.886

                      1                      2                      3
                      A                      A                      A
 Frequencies --    158.5130               192.3682               210.1321
 Red. masses --      3.1969                 1.0419                 2.1875
 Frc consts  --      0.0473                 0.0227                 0.0569
 IR Inten    --      3.5462                 0.0066                 1.9417

                      4                      5                      6
                      A                      A                      A
 Frequencies --    241.6724               269.1663               400.8911
 Red. masses --      4.3403                 2.5452                 2.3968
 Frc consts  --      0.1494                 0.1086                 0.2270
 IR Inten    --      3.5890                 0.3101                 2.4627

                      7                      8                      9
                      A                      A                      A
 Frequencies --    530.4079               558.5432               617.8233
 Red. masses --      3.0810                 3.6877                 4.9676
 Frc consts  --      0.5107                 0.6778                 1.1172
 IR Inten    --      1.7837                 1.1770                 3.6212

                     10                     11                     12
                      A                      A                      A
 Frequencies --    720.4138               754.7051               773.0170
 Red. masses --      4.8390                 5.1174                 3.7442
 Frc consts  --      1.4797                 1.7173                 1.3182
 IR Inten    --      8.6309                 4.2520                 5.9825

                     13                     14                     15
                      A                      A                      A
 Frequencies --    850.2022               874.2287               886.5075
 Red. masses --      2.8049                 1.9340                 2.5440
 Frc consts  --      1.1946                 0.8709                 1.1780
 IR Inten    --     12.2455                 0.0543                22.4784

                     16                     17                     18
                      A                      A                      A
 Frequencies --    926.8577               958.6359               977.5915
 Red. masses --      2.3971                 2.2673                 1.7555
 Frc consts  --      1.2133                 1.2277                 0.9885
 IR Inten    --     25.4174                 6.0500                12.9127

                     19                     20                     21
                      A                      A                      A
 Frequencies --   1003.6183              1015.6627              1050.0923
 Red. masses --      2.6830                 1.7310                 1.9049
 Frc consts  --      1.5922                 1.0520                 1.2376
 IR Inten    --      0.4644                 5.4831                30.1837

                     22                     23                     24
                      A                      A                      A
 Frequencies --   1069.7172              1079.7615              1102.6650
 Red. masses --      1.9734                 1.8515                 4.0116
 Frc consts  --      1.3304                 1.2718                 2.8738
 IR Inten    --     16.0310                 8.3214                19.6757

                     25                     26                     27
                      A                      A                      A
 Frequencies --   1135.2900              1138.7458              1201.9682
 Red. masses --      4.0698                 1.9881                 1.7944
 Frc consts  --      3.0905                 1.5190                 1.5274
 IR Inten    --    125.1159                 0.9403                 9.0586

                     28                     29                     30
                      A                      A                      A
 Frequencies --   1231.7154              1235.4522              1249.0360
 Red. masses --      1.2043                 1.2088                 1.6558
 Frc consts  --      1.0764                 1.0871                 1.5220
 IR Inten    --      3.0271                 0.1811                 1.0135

                     31                     32                     33
                      A                      A                      A
 Frequencies --   1277.7744              1315.4284              1342.2717
 Red. masses --      2.1328                 1.3000                 1.3475
 Frc consts  --      2.0517                 1.3253                 1.4304
 IR Inten    --      7.6242                 3.9220                 5.1480

                     34                     35                     36
                      A                      A                      A
 Frequencies --   1367.0150              1383.3661              1418.6562
 Red. masses --      1.5535                 1.3513                 1.2477
 Frc consts  --      1.7104                 1.5236                 1.4795
 IR Inten    --      4.4871                 6.2404                 0.7228

                     37                     38                     39
                      A                      A                      A
 Frequencies --   1453.7805              1490.1652              1498.5910
 Red. masses --      3.0413                 1.0455                 1.0585
 Frc consts  --      3.7872                 1.3679                 1.4006
 IR Inten    --      5.1603                 4.1606                 4.9039

                     40                     41                     42
                      A                      A                      A
 Frequencies --   1499.9347              1516.2384              2983.9534
 Red. masses --      1.1151                 1.0907                 1.0699
 Frc consts  --      1.4781                 1.4773                 5.6126
 IR Inten    --      2.2250                 0.4137                66.1192

                     43                     44                     45
                      A                      A                      A
 Frequencies --   3015.6348              3024.6170              3065.5583
 Red. masses --      1.0620                 1.0357                 1.1022
 Frc consts  --      5.6900                 5.5827                 6.1028
 IR Inten    --     62.3392                33.6763                34.6630

                     46                     47                     48
                      A                      A                      A
 Frequencies --   3085.6396              3088.7368              3098.9772
 Red. masses --      1.1009                 1.0893                 1.1001
 Frc consts  --      6.1756                 6.1231                 6.2250
 IR Inten    --     21.4574                28.0574                23.6233

                     49                     50                     51
                      A                      A                      A
 Frequencies --   3106.8907              3157.3350              3171.7174
 Red. masses --      1.0943                 1.0899                 1.0920
 Frc consts  --      6.2235                 6.4016                 6.4724
 IR Inten    --     23.5088                15.2908                19.2031

 - Thermochemistry -
 -------------------
 Temperature   298.150 Kelvin.  Pressure   1.00000 Atm.
 Atom     1 has atomic number  6 and mass  12.00000

 Molecular mass:   126.06808 amu.
 Principal axes and moments of inertia in atomic units:
                           1         2         3
     Eigenvalues --   793.80350 918.810211058.27065
           X            0.99981   0.00016   0.01954
           Y           -0.00336   0.98650   0.16371
           Z           -0.01925  -0.16374   0.98632
 This molecule is an asymmetric top.
 Rotational symmetry number  1.
 Warning -- assumption of classical behavior for rotation
           may cause significant error
 Rotational temperatures (Kelvin)      0.10911     0.09427     0.08184
 Rotational constants (GHZ):           2.27354     1.96422     1.70537
 Zero-point vibrational energy     423344.6 (Joules/Mol)
                                  101.18178 (Kcal/Mol)
 Warning -- explicit consideration of   9 degrees of freedom as
           vibrations may cause significant error
 Vibrational temperatures:    228.06   276.77   302.33   347.71   387.27
          (Kelvin)            576.79   763.14   803.62   888.91  1036.51
                             1085.85  1112.20  1223.25  1257.82  1275.49
                             1333.54  1379.26  1406.53  1443.98  1461.31
                             1510.85  1539.08  1553.53  1586.49  1633.43
                             1638.40  1729.36  1772.16  1777.54  1797.08
                             1838.43  1892.61  1931.23  1966.83  1990.35
                             2041.13  2091.66  2144.01  2156.14  2158.07
                             2181.53  4293.24  4338.82  4351.74  4410.65
                             4439.54  4444.00  4458.73  4470.12  4542.70
                             4563.39

 Zero-point correction=                           0.161243 (Hartree/Particle)
 Thermal correction to Energy=                    0.168589
 Thermal correction to Enthalpy=                  0.169533
 Thermal correction to Gibbs Free Energy=         0.129754
 Sum of electronic and zero-point Energies=           -423.019970
 Sum of electronic and thermal Energies=              -423.012624
 Sum of electronic and thermal Enthalpies=            -423.011680
 Sum of electronic and thermal Free Energies=         -423.051459

                     E (Thermal)             CV                S
                      KCal/Mol        Cal/Mol-Kelvin    Cal/Mol-Kelvin
 Total                  105.791             29.270             83.722
 Electronic               0.000              0.000              0.000
 Translational            0.889              2.981             40.409
 Rotational               0.889              2.981             28.136
 Vibrational            104.014             23.308             15.177
 Vibration     1          0.621              1.893              2.567
 Vibration     2          0.634              1.850              2.205
 Vibration     3          0.642              1.825              2.043
 Vibration     4          0.658              1.777              1.791
 Vibration     5          0.674              1.730              1.602
 Vibration     6          0.767              1.468              0.959
 Vibration     7          0.885              1.183              0.586
 Vibration     8          0.914              1.121              0.527
 Vibration     9          0.978              0.994              0.420

 Optimization completed.
    -- Stationary point found.
 Normal termination of Gaussian 09 at Mon Jan 27 17:51:08 2020.
