 Gaussian 09, Revision D.01,
 Gaussian 09:  ES64L-G09RevD.01 24-Apr-2013

 -----------------------------
 # b3lyp 6-31G(2df,p) opt Freq
 -----------------------------

 -----
 titel
 -----
 Symbolic Z-matrix:
 Charge =  0 Multiplicity = 1

 SCF Done:  E(RB3LYP) =  -423.128752538     A.U. after   12 cycles
 Optimization completed.
    -- Stationary point found.
 Normal termination of Gaussian 09 at Mon Jan 27 22:04:32 2020.

 ----------------------------------------------------------------------
 #N Geom=AllCheck Guess=TCheck SCRF=Check GenChk RB3LYP/6-31G(2df,p) Fr
 eq
 ----------------------------------------------------------------------

 Structure from the checkpoint file:  "/scratch/puck/g09_cc623e82-ce4f-408a-a043-fe5154c80d08/Gau-62992.chk"
 -----
 titel
 -----
 Charge =  0 Multiplicity = 1

                         Standard orientation:
 ---------------------------------------------------------------------
 Center     Atomic      Atomic             Coordinates (Angstroms)
 Number     Number       Type             X           Y           Z
 ---------------------------------------------------------------------
      1          6           0        2.439586   -0.882424   -0.000001
      2          6           0        0.929489   -0.945632    0.000000
      3          6           0        0.026054    0.005385    0.753476
      4          6           0        0.471161    1.480329    0.785729
      5          6           0        0.471157    1.480330   -0.785730
      6          6           0        0.026052    0.005385   -0.753477
      7          8           0       -1.230366   -0.469220   -1.155234
      8          6           0       -2.061845   -0.327743    0.000001
      9          8           0       -1.230365   -0.469219    1.155234
     10          1           0        2.845722   -1.381452    0.885916
     11          1           0        2.845723   -1.381480   -0.885902
     12          1           0        2.810470    0.146123   -0.000016
     13          1           0        0.510833   -1.947032    0.000002
     14          1           0       -0.303687    2.125864    1.203453
     15          1           0        1.415460    1.693422    1.294656
     16          1           0       -0.303689    2.125867   -1.203452
     17          1           0        1.415456    1.693420   -1.294658
     18          1           0       -2.548189    0.661627    0.000000
     19          1           0       -2.812184   -1.122636    0.000001
 ---------------------------------------------------------------------

 SCF Done:  E(RB3LYP) =  -423.128752538     A.U. after    1 cycles

 The electronic state is 1-A.
 Alpha  occ. eigenvalues --  -19.15401 -19.15401 -10.27781 -10.22764 -10.22737
 Alpha  occ. eigenvalues --  -10.20481 -10.19563 -10.19546 -10.18325  -1.09337
 Alpha  occ. eigenvalues --   -0.99825  -0.88705  -0.76125  -0.71270  -0.66421
 Alpha  occ. eigenvalues --   -0.65060  -0.56546  -0.55531  -0.50686  -0.48978
 Alpha  occ. eigenvalues --   -0.45883  -0.45572  -0.43258  -0.41563  -0.39530
 Alpha  occ. eigenvalues --   -0.39276  -0.37937  -0.37349  -0.35305  -0.34329
 Alpha  occ. eigenvalues --   -0.33276  -0.27699  -0.24999  -0.22315
 Alpha virt. eigenvalues --    0.07163   0.07703   0.09164   0.12310   0.13486
 Alpha virt. eigenvalues --    0.13636   0.14214   0.16528   0.16607   0.17593
 Alpha virt. eigenvalues --    0.17695   0.18306   0.18728   0.19576   0.20741

 Mulliken charges:
               1
     1  C   -0.424323
     2  C   -0.103269
     3  C    0.272189
     4  C   -0.296513
     5  C   -0.296514
     6  C    0.272189
     7  O   -0.284539
     8  C   -0.002560
     9  O   -0.284539
    10  H    0.126125
    11  H    0.126125
    12  H    0.121920
    13  H    0.108571
    14  H    0.116881
    15  H    0.106055
    16  H    0.116881
    17  H    0.106055
    18  H    0.094493
    19  H    0.124773
 Sum of Mulliken charges =   0.00000

 Dipole moment (field-independent basis, Debye):
    X=              0.6508    Y=              0.9608    Z=              0.0000  Tot=              1.1605
 Quadrupole moment (field-independent basis, Debye-Ang):
   XX=            -49.3267   YY=            -51.0521   ZZ=            -58.1681
   XY=             -1.0950   XZ=              0.0000   YZ=              0.0000

  Exact polarizability:  86.177  -1.272  72.896   0.000   0.000  62.589
 Approx polarizability: 114.710  -0.294 104.219   0.000   0.000 105.412

                      1                      2                      3
                      A                      A                      A
 Frequencies --    176.1181               179.1678               211.0721
 Red. masses --      2.2335                 1.0633                 1.8493
 Frc consts  --      0.0408                 0.0201                 0.0485
 IR Inten    --      2.3827                 0.1790                 0.0598

                      4                      5                      6
                      A                      A                      A
 Frequencies --    221.0880               240.6725               377.6429
 Red. masses --      2.8078                 3.2065                 3.1855
 Frc consts  --      0.0809                 0.1094                 0.2677
 IR Inten    --      0.0584                 1.8201                 1.0606

                      7                      8                      9
                      A                      A                      A
 Frequencies --    385.4023               471.3197               542.4020
 Red. masses --      3.7280                 3.6273                 4.4467
 Frc consts  --      0.3262                 0.4748                 0.7708
 IR Inten    --     12.6596                 1.7243                25.2895

                     10                     11                     12
                      A                      A                      A
 Frequencies --    679.4269               689.8939               746.7826
 Red. masses --      4.1216                 4.5792                 1.7315
 Frc consts  --      1.1210                 1.2841                 0.5689
 IR Inten    --      0.0248                 6.8393                 1.1527

                     13                     14                     15
                      A                      A                      A
 Frequencies --    758.5404               763.1028               836.1659
 Red. masses --      2.1192                 2.8633                 4.0640
 Frc consts  --      0.7184                 0.9824                 1.6741
 IR Inten    --      5.8310                 0.1112                 2.9849

                     16                     17                     18
                      A                      A                      A
 Frequencies --    912.3514               942.6662               949.7857
 Red. masses --      3.1729                 2.9705                 2.8513
 Frc consts  --      1.5561                 1.5552                 1.5154
 IR Inten    --     36.0747                 5.1249                10.5612

                     19                     20                     21
                      A                      A                      A
 Frequencies --    978.5487               993.1129              1019.7076
 Red. masses --      2.1343                 2.2433                 3.6978
 Frc consts  --      1.2041                 1.3036                 2.2654
 IR Inten    --      9.5320                 2.1250                71.6336

                     22                     23                     24
                      A                      A                      A
 Frequencies --   1079.1127              1101.8441              1115.5860
 Red. masses --      1.5887                 1.6246                 2.5281
 Frc consts  --      1.0900                 1.1621                 1.8537
 IR Inten    --     31.6295                 3.2989                21.3128

                     25                     26                     27
                      A                      A                      A
 Frequencies --   1157.3827              1160.6140              1186.1631
 Red. masses --      1.6665                 3.1064                 1.6683
 Frc consts  --      1.3152                 2.4653                 1.3829
 IR Inten    --     17.4259                 0.3551                 3.2090

                     28                     29                     30
                      A                      A                      A
 Frequencies --   1213.6931              1230.3538              1233.0176
 Red. masses --      1.1130                 1.4456                 1.3264
 Frc consts  --      0.9660                 1.2893                 1.1881
 IR Inten    --      0.0399                15.3089                 1.2474

                     31                     32                     33
                      A                      A                      A
 Frequencies --   1261.3826              1277.5970              1298.7136
 Red. masses --      2.2938                 1.7664                 2.2451
 Frc consts  --      2.1503                 1.6987                 2.2311
 IR Inten    --     85.6867                 4.1302                 7.3125

                     34                     35                     36
                      A                      A                      A
 Frequencies --   1409.8470              1411.1916              1435.3680
 Red. masses --      1.3049                 1.2469                 2.2895
 Frc consts  --      1.5282                 1.4631                 2.7792
 IR Inten    --      5.0821                 5.3295                12.8132

                     37                     38                     39
                      A                      A                      A
 Frequencies --   1465.3601              1488.5330              1494.5370
 Red. masses --      1.0780                 1.2074                 1.0468
 Frc consts  --      1.3639                 1.5762                 1.3776
 IR Inten    --      1.7905                 8.0367                 0.8817

                     40                     41                     42
                      A                      A                      A
 Frequencies --   1498.7083              1534.2998              2966.5834
 Red. masses --      1.0850                 1.1116                 1.0687
 Frc consts  --      1.4359                 1.5418                 5.5416
 IR Inten    --      4.5676                 1.8956                89.1577

                     43                     44                     45
                      A                      A                      A
 Frequencies --   3037.6996              3055.4165              3060.9891
 Red. masses --      1.0360                 1.0598                 1.0628
 Frc consts  --      5.6326                 5.8293                 5.8673
 IR Inten    --     25.4469                35.0953                45.8418

                     46                     47                     48
                      A                      A                      A
 Frequencies --   3100.2572              3100.9372              3110.4396
 Red. masses --      1.1016                 1.0970                 1.1056
 Frc consts  --      6.2382                 6.2152                 6.3025
 IR Inten    --     17.8006                41.8834                 0.0168

                     49                     50                     51
                      A                      A                      A
 Frequencies --   3112.4952              3128.7014              3172.3254
 Red. masses --      1.0993                 1.1045                 1.0877
 Frc consts  --      6.2746                 6.3698                 6.4493
 IR Inten    --     20.4730                28.4700                 4.9902

 - Thermochemistry -
 -------------------
 Temperature   298.150 Kelvin.  Pressure   1.00000 Atm.
 Atom     1 has atomic number  6 and mass  12.00000

 Molecular mass:   126.06808 amu.
 Principal axes and moments of inertia in atomic units:
                           1         2         3
     Eigenvalues --   657.658571102.355461195.68170
           X            0.99964  -0.02667   0.00000
           Y            0.02667   0.99964   0.00000
           Z            0.00000   0.00000   1.00000
 This molecule is an asymmetric top.
 Rotational symmetry number  1.
 Warning -- assumption of classical behavior for rotation
           may cause significant error
 Rotational temperatures (Kelvin)      0.13170     0.07857     0.07244
 Rotational constants (GHZ):           2.74419     1.63717     1.50938
 Zero-point vibrational energy     418538.2 (Joules/Mol)
                                  100.03303 (Kcal/Mol)
 Warning -- explicit consideration of   9 degrees of freedom as
           vibrations may cause significant error
 Vibrational temperatures:    253.39   257.78   303.69   318.10   346.27
          (Kelvin)            543.34   554.51   678.12   780.39   977.54
                              992.60  1074.45  1091.37  1097.93  1203.05
                             1312.67  1356.28  1366.53  1407.91  1428.87
                             1467.13  1552.60  1585.31  1605.08  1665.21
                             1669.86  1706.62  1746.23  1770.20  1774.04
                             1814.85  1838.17  1868.56  2028.45  2030.39
                             2065.17  2108.32  2141.66  2150.30  2156.30
                             2207.51  4268.25  4370.57  4396.06  4404.08
                             4460.57  4461.55  4475.22  4478.18  4501.50
                             4564.26

 Zero-point correction=                           0.159413 (Hartree/Particle)
 Thermal correction to Energy=                    0.167204
 Thermal correction to Enthalpy=                  0.168148
 Thermal correction to Gibbs Free Energy=         0.127587
 Sum of electronic and zero-point Energies=           -422.969340
 Sum of electronic and thermal Energies=              -422.961549
 Sum of electronic and thermal Enthalpies=            -422.960605
 Sum of electronic and thermal Free Energies=         -423.001166

                     E (Thermal)             CV                S
                      KCal/Mol        Cal/Mol-Kelvin    Cal/Mol-Kelvin
 Total                  104.922             30.842             85.368
 Electronic               0.000              0.000              0.000
 Translational            0.889              2.981             40.409
 Rotational               0.889              2.981             28.252
 Vibrational            103.144             24.880             16.708
 Vibration     1          0.628              1.872              2.369
 Vibration     2          0.629              1.868              2.337
 Vibration     3          0.643              1.824              2.034
 Vibration     4          0.648              1.809              1.950
 Vibration     5          0.658              1.778              1.798
 Vibration     6          0.748              1.518              1.049
 Vibration     7          0.754              1.501              1.018
 Vibration     8          0.828              1.314              0.734
 Vibration     9          0.898              1.156              0.560

 Optimization completed.
    -- Stationary point found.
 Normal termination of Gaussian 09 at Mon Jan 27 22:52:04 2020.
