 Gaussian 09, Revision D.01,
 Gaussian 09:  ES64L-G09RevD.01 24-Apr-2013

 -----------------------------
 # b3lyp 6-31G(2df,p) opt Freq
 -----------------------------

 -----
 titel
 -----
 Symbolic Z-matrix:
 Charge =  0 Multiplicity = 1

 SCF Done:  E(RB3LYP) =  -423.157247215     A.U. after   14 cycles
 Optimization completed.
    -- Stationary point found.
 Normal termination of Gaussian 09 at Mon Jan 27 11:21:41 2020.

 ----------------------------------------------------------------------
 #N Geom=AllCheck Guess=TCheck SCRF=Check GenChk RB3LYP/6-31G(2df,p) Fr
 eq
 ----------------------------------------------------------------------

 Structure from the checkpoint file:  "/scratch/puck/g09_e6a3e710-c67f-48fa-8131-a43d2b993bd1/Gau-131285.chk"
 -----
 titel
 -----
 Charge =  0 Multiplicity = 1

                         Standard orientation:
 ---------------------------------------------------------------------
 Center     Atomic      Atomic             Coordinates (Angstroms)
 Number     Number       Type             X           Y           Z
 ---------------------------------------------------------------------
      1          6           0       -2.500109   -0.143742    0.209820
      2          8           0       -1.695520   -0.703377   -0.835771
      3          6           0       -1.081709    0.190048    0.074827
      4          6           0       -0.394165    1.489584   -0.356639
      5          6           0        0.852083    1.083112    0.491127
      6          6           0        2.055270    0.532722   -0.289499
      7          6           0        1.631723   -0.913323   -0.605945
      8          8           0        0.863444   -1.333055    0.520508
      9          6           0        0.118409   -0.222915    0.960201
     10          1           0       -3.256926    0.570053   -0.114668
     11          1           0       -2.819963   -0.846626    0.978701
     12          1           0       -0.219051    1.559742   -1.434345
     13          1           0       -0.892865    2.403468   -0.023492
     14          1           0        1.134483    1.795691    1.266003
     15          1           0        2.284066    1.110575   -1.189411
     16          1           0        2.944321    0.529091    0.348462
     17          1           0        1.025601   -0.959484   -1.522287
     18          1           0        2.470399   -1.605646   -0.711977
     19          1           0       -0.102464   -0.358320    2.021771
 ---------------------------------------------------------------------

 SCF Done:  E(RB3LYP) =  -423.157247215     A.U. after    1 cycles

 The electronic state is 1-A.
 Alpha  occ. eigenvalues --  -19.15001 -19.13767 -10.23519 -10.23150 -10.22783
 Alpha  occ. eigenvalues --  -10.22343 -10.19166 -10.18592 -10.18588  -1.07203
 Alpha  occ. eigenvalues --   -1.03511  -0.83154  -0.75701  -0.67784  -0.66222
 Alpha  occ. eigenvalues --   -0.62337  -0.58022  -0.53718  -0.51529  -0.49078
 Alpha  occ. eigenvalues --   -0.47820  -0.46216  -0.42621  -0.42310  -0.40877
 Alpha  occ. eigenvalues --   -0.38268  -0.36312  -0.35074  -0.33380  -0.32373
 Alpha  occ. eigenvalues --   -0.30151  -0.29245  -0.26948  -0.24063
 Alpha virt. eigenvalues --    0.06019   0.09367   0.10741   0.11268   0.12475
 Alpha virt. eigenvalues --    0.14097   0.14340   0.14884   0.15524   0.15708
 Alpha virt. eigenvalues --    0.17604   0.18876   0.20030   0.20874   0.21812

 Mulliken charges:
               1
     1  C   -0.269398
     2  O   -0.258352
     3  C    0.428972
     4  C   -0.339306
     5  C   -0.042227
     6  C   -0.230894
     7  C   -0.091103
     8  O   -0.243631
     9  C    0.010898
    10  H    0.113231
    11  H    0.116621
    12  H    0.111385
    13  H    0.108067
    14  H    0.073969
    15  H    0.103231
    16  H    0.107620
    17  H    0.111728
    18  H    0.109377
    19  H    0.079810
 Sum of Mulliken charges =   0.00000

 Dipole moment (field-independent basis, Debye):
    X=              0.3115    Y=              2.2612    Z=              0.7113  Tot=              2.3908
 Quadrupole moment (field-independent basis, Debye-Ang):
   XX=            -49.0841   YY=            -55.5053   ZZ=            -52.7202
   XY=             -1.1389   XZ=             -3.9249   YZ=              0.0729

  Exact polarizability:  88.545  -0.001  69.459  -3.371  -0.754  65.661
 Approx polarizability: 113.926   0.283 103.419  -3.576   0.434 103.288

                      1                      2                      3
                      A                      A                      A
 Frequencies --     51.3006               169.8569               244.1570
 Red. masses --      3.4856                 3.0185                 3.1933
 Frc consts  --      0.0054                 0.0513                 0.1122
 IR Inten    --      1.9376                 1.3169                 1.7884

                      4                      5                      6
                      A                      A                      A
 Frequencies --    268.2645               349.5060               372.7317
 Red. masses --      2.7719                 3.0659                 1.8401
 Frc consts  --      0.1175                 0.2207                 0.1506
 IR Inten    --      1.6662                 2.4081                 0.3684

                      7                      8                      9
                      A                      A                      A
 Frequencies --    490.8596               554.8804               645.3081
 Red. masses --      3.6868                 4.3552                 2.4486
 Frc consts  --      0.5234                 0.7900                 0.6008
 IR Inten    --      1.4043                12.3374                 5.6835

                     10                     11                     12
                      A                      A                      A
 Frequencies --    710.0367               771.3326               835.9963
 Red. masses --      5.7085                 2.0272                 1.9647
 Frc consts  --      1.6957                 0.7106                 0.8090
 IR Inten    --      6.7906                 1.4446                 3.3969

                     13                     14                     15
                      A                      A                      A
 Frequencies --    847.4463               860.8274               876.9909
 Red. masses --      3.3579                 2.1129                 1.8810
 Frc consts  --      1.4208                 0.9225                 0.8524
 IR Inten    --     25.5004                 0.7363                 5.1872

                     16                     17                     18
                      A                      A                      A
 Frequencies --    912.9744               941.3676               954.3257
 Red. masses --      2.5239                 3.8430                 2.4627
 Frc consts  --      1.2395                 2.0065                 1.3215
 IR Inten    --     10.3514                 7.3413                10.2394

                     19                     20                     21
                      A                      A                      A
 Frequencies --    969.6869               990.0714              1055.8470
 Red. masses --      2.1246                 2.5338                 1.6796
 Frc consts  --      1.1771                 1.4634                 1.1032
 IR Inten    --     15.5123                23.8092                 8.0456

                     22                     23                     24
                      A                      A                      A
 Frequencies --   1093.7456              1121.0815              1127.5639
 Red. masses --      1.8517                 3.0767                 1.3981
 Frc consts  --      1.3051                 2.2783                 1.0473
 IR Inten    --     32.1742                31.3489                 2.8359

                     25                     26                     27
                      A                      A                      A
 Frequencies --   1148.0356              1157.3293              1175.8227
 Red. masses --      1.6960                 1.6521                 1.5732
 Frc consts  --      1.3170                 1.3038                 1.2815
 IR Inten    --     15.2690                13.4075                 4.2801

                     28                     29                     30
                      A                      A                      A
 Frequencies --   1195.2077              1216.9147              1235.8632
 Red. masses --      2.0202                 1.4109                 1.3300
 Frc consts  --      1.7003                 1.2310                 1.1968
 IR Inten    --      7.0838                 3.0329                 3.5065

                     31                     32                     33
                      A                      A                      A
 Frequencies --   1248.5911              1268.7830              1303.6886
 Red. masses --      1.5230                 1.4937                 1.3700
 Frc consts  --      1.3990                 1.4167                 1.3719
 IR Inten    --      3.3295                 1.5171                 2.1915

                     34                     35                     36
                      A                      A                      A
 Frequencies --   1329.2293              1344.7851              1389.2996
 Red. masses --      1.3417                 1.3528                 1.3745
 Frc consts  --      1.3968                 1.4414                 1.5631
 IR Inten    --      0.6352                 7.7508                 3.3254

                     37                     38                     39
                      A                      A                      A
 Frequencies --   1429.2744              1471.5947              1483.5417
 Red. masses --      2.2837                 1.1435                 1.0979
 Frc consts  --      2.7487                 1.4590                 1.4237
 IR Inten    --     14.2663                 4.5170                 3.3228

                     40                     41                     42
                      A                      A                      A
 Frequencies --   1520.3998              1530.6701              3001.8837
 Red. masses --      1.0996                 1.4984                 1.0699
 Frc consts  --      1.4976                 2.0684                 5.6803
 IR Inten    --      1.6375                 4.0701                37.4596

                     43                     44                     45
                      A                      A                      A
 Frequencies --   3052.5794              3053.2597              3074.9525
 Red. masses --      1.0600                 1.0594                 1.0502
 Frc consts  --      5.8198                 5.8187                 5.8503
 IR Inten    --     19.2168                25.7948                27.1626

                     46                     47                     48
                      A                      A                      A
 Frequencies --   3080.8804              3096.2843              3101.3975
 Red. masses --      1.0877                 1.0963                 1.0998
 Frc consts  --      6.0827                 6.1926                 6.2325
 IR Inten    --     35.4691                18.5850                 3.6989

                     49                     50                     51
                      A                      A                      A
 Frequencies --   3104.6192              3115.5265              3161.8519
 Red. masses --      1.1038                 1.0959                 1.1195
 Frc consts  --      6.2682                 6.2671                 6.5939
 IR Inten    --     39.7610                44.3238                22.2419

 - Thermochemistry -
 -------------------
 Temperature   298.150 Kelvin.  Pressure   1.00000 Atm.
 Atom     1 has atomic number  6 and mass  12.00000

 Molecular mass:   126.06808 amu.
 Principal axes and moments of inertia in atomic units:
                           1         2         3
     Eigenvalues --   569.167201187.517511399.33369
           X            0.99968  -0.00384  -0.02489
           Y            0.00377   0.99999  -0.00282
           Z            0.02490   0.00272   0.99969
 This molecule is an asymmetric top.
 Rotational symmetry number  1.
 Warning -- assumption of classical behavior for rotation
           may cause significant error
 Rotational temperatures (Kelvin)      0.15218     0.07294     0.06190
 Rotational constants (GHZ):           3.17085     1.51976     1.28971
 Zero-point vibrational energy     421734.0 (Joules/Mol)
                                  100.79685 (Kcal/Mol)
 Warning -- explicit consideration of   8 degrees of freedom as
           vibrations may cause significant error
 Vibrational temperatures:     73.81   244.39   351.29   385.97   502.86
          (Kelvin)            536.28   706.24   798.35   928.45  1021.58
                             1109.77  1202.81  1219.28  1238.54  1261.79
                             1313.56  1354.42  1373.06  1395.16  1424.49
                             1519.13  1573.65  1612.98  1622.31  1651.77
                             1665.14  1691.74  1719.64  1750.87  1778.13
                             1796.44  1825.49  1875.71  1912.46  1934.84
                             1998.89  2056.40  2117.29  2134.48  2187.51
                             2202.29  4319.04  4391.98  4392.95  4424.17
                             4432.69  4454.86  4462.21  4466.85  4482.54
                             4549.19

 Zero-point correction=                           0.160630 (Hartree/Particle)
 Thermal correction to Energy=                    0.168083
 Thermal correction to Enthalpy=                  0.169028
 Thermal correction to Gibbs Free Energy=         0.128330
 Sum of electronic and zero-point Energies=           -422.996617
 Sum of electronic and thermal Energies=              -422.989164
 Sum of electronic and thermal Enthalpies=            -422.988220
 Sum of electronic and thermal Free Energies=         -423.028917

                     E (Thermal)             CV                S
                      KCal/Mol        Cal/Mol-Kelvin    Cal/Mol-Kelvin
 Total                  105.474             29.348             85.656
 Electronic               0.000              0.000              0.000
 Translational            0.889              2.981             40.409
 Rotational               0.889              2.981             28.338
 Vibrational            103.697             23.386             16.909
 Vibration     1          0.596              1.977              4.767
 Vibration     2          0.625              1.880              2.437
 Vibration     3          0.659              1.772              1.772
 Vibration     4          0.673              1.731              1.607
 Vibration     5          0.727              1.576              1.168
 Vibration     6          0.744              1.528              1.069
 Vibration     7          0.847              1.270              0.681
 Vibration     8          0.910              1.129              0.534

 Optimization completed.
    -- Stationary point found.
 Normal termination of Gaussian 09 at Mon Jan 27 12:16:33 2020.
