 Gaussian 09, Revision D.01,
 Gaussian 09:  ES64L-G09RevD.01 24-Apr-2013

 -----------------------------
 # b3lyp 6-31G(2df,p) opt Freq
 -----------------------------

 -----
 titel
 -----
 Symbolic Z-matrix:
 Charge =  0 Multiplicity = 1

 SCF Done:  E(RB3LYP) =  -423.168444297     A.U. after   14 cycles
 Optimization completed.
    -- Stationary point found.
 Normal termination of Gaussian 09 at Mon Jan 27 16:12:05 2020.

 ----------------------------------------------------------------------
 #N Geom=AllCheck Guess=TCheck SCRF=Check GenChk RB3LYP/6-31G(2df,p) Fr
 eq
 ----------------------------------------------------------------------

 Structure from the checkpoint file:  "/scratch/puck/g09_fe549087-8eb9-4988-862d-60d9ccafae5c/Gau-63380.chk"
 -----
 titel
 -----
 Charge =  0 Multiplicity = 1

                         Standard orientation:
 ---------------------------------------------------------------------
 Center     Atomic      Atomic             Coordinates (Angstroms)
 Number     Number       Type             X           Y           Z
 ---------------------------------------------------------------------
      1          6           0       -1.916098   -0.043049    1.121226
      2          6           0       -0.944834    0.004144   -0.060043
      3          8           0       -1.604719   -0.359988   -1.278691
      4          6           0       -0.295604    1.377094   -0.191531
      5          6           0        1.029013    1.483595   -0.102857
      6          6           0        1.778536    0.190750    0.138811
      7          6           0        1.317800   -0.858292   -0.906203
      8          6           0        0.182114   -1.037635    0.119150
      9          8           0        1.066026   -0.565855    1.171798
     10          1           0       -2.667485    0.752114    1.043231
     11          1           0       -2.435188   -1.006883    1.142214
     12          1           0       -1.373505    0.092867    2.059938
     13          1           0       -2.391094    0.188754   -1.368105
     14          1           0       -0.947623    2.231322   -0.360239
     15          1           0        1.561175    2.422655   -0.213270
     16          1           0        2.838505    0.311669    0.368934
     17          1           0        1.068101   -0.517310   -1.910023
     18          1           0        1.970865   -1.732241   -0.930825
     19          1           0       -0.219772   -2.035854    0.311973
 ---------------------------------------------------------------------

 SCF Done:  E(RB3LYP) =  -423.168444297     A.U. after    1 cycles

 The electronic state is 1-A.
 Alpha  occ. eigenvalues --  -19.13818 -19.12894 -10.23965 -10.23653 -10.23035
 Alpha  occ. eigenvalues --  -10.18395 -10.18280 -10.18230 -10.17480  -1.04133
 Alpha  occ. eigenvalues --   -1.01730  -0.80287  -0.75525  -0.72978  -0.67883
 Alpha  occ. eigenvalues --   -0.60373  -0.59363  -0.52489  -0.51011  -0.48221
 Alpha  occ. eigenvalues --   -0.45788  -0.43531  -0.42229  -0.41689  -0.41350
 Alpha  occ. eigenvalues --   -0.38118  -0.37548  -0.36577  -0.33564  -0.32002
 Alpha  occ. eigenvalues --   -0.31194  -0.27052  -0.25590  -0.23445
 Alpha virt. eigenvalues --    0.00105   0.07442   0.09097   0.11295   0.13203
 Alpha virt. eigenvalues --    0.14387   0.15509   0.15791   0.16824   0.16992
 Alpha virt. eigenvalues --    0.18105   0.18584   0.19790   0.21178   0.22583

 Mulliken charges:
               1
     1  C   -0.450892
     2  C    0.351665
     3  O   -0.475449
     4  C   -0.113935
     5  C   -0.069543
     6  C    0.038241
     7  C   -0.251896
     8  C    0.071106
     9  O   -0.299865
    10  H    0.101473
    11  H    0.119158
    12  H    0.144849
    13  H    0.277558
    14  H    0.086110
    15  H    0.095698
    16  H    0.076230
    17  H    0.117818
    18  H    0.104796
    19  H    0.076878
 Sum of Mulliken charges =   0.00000

 Dipole moment (field-independent basis, Debye):
    X=             -0.6871    Y=              1.1970    Z=             -0.7818  Tot=              1.5863
 Quadrupole moment (field-independent basis, Debye-Ang):
   XX=            -46.9760   YY=            -51.2353   ZZ=            -57.6650
   XY=             -1.0793   XZ=             -1.6828   YZ=             -0.8171

  Exact polarizability:  90.759   0.773  73.711  -1.043  -0.305  61.397
 Approx polarizability: 133.853   2.762 106.560   4.660  -0.581  96.230

                      1                      2                      3
                      A                      A                      A
 Frequencies --    143.5361               211.6840               216.8411
 Red. masses --      3.5949                 1.5896                 1.4865
 Frc consts  --      0.0436                 0.0420                 0.0412
 IR Inten    --      2.3049                59.8437                40.0748

                      4                      5                      6
                      A                      A                      A
 Frequencies --    259.6740               331.6195               368.0525
 Red. masses --      1.0909                 3.2249                 2.5161
 Frc consts  --      0.0433                 0.2090                 0.2008
 IR Inten    --      0.3462                 2.8510                 4.4689

                      7                      8                      9
                      A                      A                      A
 Frequencies --    393.4296               439.5940               451.4764
 Red. masses --      2.8517                 3.5830                 3.8282
 Frc consts  --      0.2601                 0.4079                 0.4597
 IR Inten    --      4.0282                 1.3461                 5.9136

                     10                     11                     12
                      A                      A                      A
 Frequencies --    530.4002               600.4793               671.8447
 Red. masses --      4.0593                 3.3870                 4.8198
 Frc consts  --      0.6728                 0.7196                 1.2818
 IR Inten    --      1.1735                 5.5086                 1.1867

                     13                     14                     15
                      A                      A                      A
 Frequencies --    731.9502               754.0619               856.7086
 Red. masses --      2.1002                 2.1893                 2.2271
 Frc consts  --      0.6629                 0.7335                 0.9631
 IR Inten    --      8.3841                14.0012                13.2628

                     16                     17                     18
                      A                      A                      A
 Frequencies --    881.0929               917.9036               931.2831
 Red. masses --      2.8216                 2.8382                 2.2489
 Frc consts  --      1.2906                 1.4089                 1.1492
 IR Inten    --     14.7706                26.9011                11.0553

                     19                     20                     21
                      A                      A                      A
 Frequencies --    956.9802               963.1493               967.6550
 Red. masses --      2.1784                 2.7808                 3.6074
 Frc consts  --      1.1754                 1.5199                 1.9901
 IR Inten    --      9.7455                13.6079                43.4917

                     22                     23                     24
                      A                      A                      A
 Frequencies --    977.1530              1036.4425              1077.8310
 Red. masses --      1.3600                 1.6343                 2.3982
 Frc consts  --      0.7651                 1.0344                 1.6415
 IR Inten    --      4.2205                19.4504                 7.2348

                     25                     26                     27
                      A                      A                      A
 Frequencies --   1081.9196              1117.4913              1145.2996
 Red. masses --      1.2217                 2.1598                 2.7072
 Frc consts  --      0.8426                 1.5891                 2.0923
 IR Inten    --      1.6932                31.5037                62.2655

                     28                     29                     30
                      A                      A                      A
 Frequencies --   1166.8359              1204.5353              1219.1426
 Red. masses --      1.2284                 1.5467                 1.9273
 Frc consts  --      0.9854                 1.3222                 1.6877
 IR Inten    --     17.8779                15.4783                14.2949

                     31                     32                     33
                      A                      A                      A
 Frequencies --   1250.1061              1299.8435              1312.0353
 Red. masses --      1.3993                 1.4278                 1.3809
 Frc consts  --      1.2884                 1.4213                 1.4005
 IR Inten    --      2.7186                 0.1323                 3.1759

                     34                     35                     36
                      A                      A                      A
 Frequencies --   1351.5847              1372.2917              1395.2772
 Red. masses --      1.5073                 1.9150                 1.3830
 Frc consts  --      1.6223                 2.1248                 1.5863
 IR Inten    --      6.7036                24.8871                16.7932

                     37                     38                     39
                      A                      A                      A
 Frequencies --   1405.9918              1486.4270              1489.5846
 Red. masses --      1.5015                 1.1241                 1.0614
 Frc consts  --      1.7488                 1.4633                 1.3876
 IR Inten    --      0.4221                 2.7069                 2.0829

                     40                     41                     42
                      A                      A                      A
 Frequencies --   1498.2855              1693.2617              3026.4030
 Red. masses --      1.0705                 6.7318                 1.0376
 Frc consts  --      1.4159                11.3718                 5.5994
 IR Inten    --      6.7225                 0.8151                23.1662

                     43                     44                     45
                      A                      A                      A
 Frequencies --   3074.6549              3085.5505              3093.5946
 Red. masses --      1.0803                 1.0688                 1.0989
 Frc consts  --      6.0169                 5.9953                 6.1964
 IR Inten    --     29.7344                35.9563                29.3267

                     46                     47                     48
                      A                      A                      A
 Frequencies --   3099.5835              3128.7516              3147.9937
 Red. masses --      1.0876                 1.1002                 1.0867
 Frc consts  --      6.1562                 6.3454                 6.3449
 IR Inten    --     50.4476                10.2619                15.9495

                     49                     50                     51
                      A                      A                      A
 Frequencies --   3156.0803              3187.0973              3809.1499
 Red. masses --      1.1091                 1.0984                 1.0663
 Frc consts  --      6.5091                 6.5735                 9.1155
 IR Inten    --     15.6914                21.4195                18.3359

 - Thermochemistry -
 -------------------
 Temperature   298.150 Kelvin.  Pressure   1.00000 Atm.
 Atom     1 has atomic number  6 and mass  12.00000

 Molecular mass:   126.06808 amu.
 Principal axes and moments of inertia in atomic units:
                           1         2         3
     Eigenvalues --   663.694201114.311101155.69468
           X            0.99830  -0.00665  -0.05792
           Y            0.00860   0.99940   0.03349
           Z            0.05766  -0.03393   0.99776
 This molecule is an asymmetric top.
 Rotational symmetry number  1.
 Warning -- assumption of classical behavior for rotation
           may cause significant error
 Rotational temperatures (Kelvin)      0.13050     0.07773     0.07495
 Rotational constants (GHZ):           2.71924     1.61960     1.56161
 Zero-point vibrational energy     418511.2 (Joules/Mol)
                                  100.02659 (Kcal/Mol)
 Warning -- explicit consideration of  11 degrees of freedom as
           vibrations may cause significant error
 Vibrational temperatures:    206.52   304.57   311.99   373.61   477.13
          (Kelvin)            529.54   566.06   632.48   649.57   763.13
                              863.95   966.63  1053.11  1084.93  1232.61
                             1267.69  1320.66  1339.91  1376.88  1385.76
                             1392.24  1405.90  1491.21  1550.76  1556.64
                             1607.82  1647.83  1678.81  1733.06  1754.07
                             1798.62  1870.18  1887.72  1944.63  1974.42
                             2007.49  2022.91  2138.63  2143.18  2155.70
                             2436.22  4354.31  4423.74  4439.41  4450.99
                             4459.60  4501.57  4529.26  4540.89  4585.52
                             5480.51

 Zero-point correction=                           0.159403 (Hartree/Particle)
 Thermal correction to Energy=                    0.167349
 Thermal correction to Enthalpy=                  0.168294
 Thermal correction to Gibbs Free Energy=         0.127632
 Sum of electronic and zero-point Energies=           -423.009042
 Sum of electronic and thermal Energies=              -423.001095
 Sum of electronic and thermal Enthalpies=            -423.000151
 Sum of electronic and thermal Free Energies=         -423.040812

                     E (Thermal)             CV                S
                      KCal/Mol        Cal/Mol-Kelvin    Cal/Mol-Kelvin
 Total                  105.013             32.167             85.579
 Electronic               0.000              0.000              0.000
 Translational            0.889              2.981             40.409
 Rotational               0.889              2.981             28.238
 Vibrational            103.236             26.205             16.933
 Vibration     1          0.616              1.910              2.756
 Vibration     2          0.643              1.823              2.029
 Vibration     3          0.646              1.815              1.985
 Vibration     4          0.668              1.746              1.664
 Vibration     5          0.714              1.612              1.252
 Vibration     6          0.741              1.538              1.088
 Vibration     7          0.761              1.484              0.987
 Vibration     8          0.800              1.384              0.828
 Vibration     9          0.810              1.358              0.791
 Vibration    10          0.885              1.183              0.586
 Vibration    11          0.959              1.031              0.449

 Optimization completed.
    -- Stationary point found.
 Normal termination of Gaussian 09 at Mon Jan 27 17:01:52 2020.
 Normal termination of Gaussian 09 at Mon Jan 27 16:18:32 2020.
