 Gaussian 09, Revision D.01,
 Gaussian 09:  ES64L-G09RevD.01 24-Apr-2013

 -----------------------------
 # b3lyp 6-31G(2df,p) opt Freq
 -----------------------------

 -----
 titel
 -----
 Symbolic Z-matrix:
 Charge =  0 Multiplicity = 1

 SCF Done:  E(RB3LYP) =  -423.203729355     A.U. after   14 cycles
 Optimization completed.
    -- Stationary point found.
 Normal termination of Gaussian 09 at Tue Jan 28 13:33:07 2020.

 ----------------------------------------------------------------------
 #N Geom=AllCheck Guess=TCheck SCRF=Check GenChk RB3LYP/6-31G(2df,p) Fr
 eq
 ----------------------------------------------------------------------

 Structure from the checkpoint file:  "/scratch/puck/g09_4c976e96-1d74-48d5-b290-fc2a1bcf28d0/Gau-94020.chk"
 -----
 titel
 -----
 Charge =  0 Multiplicity = 1

                         Standard orientation:
 ---------------------------------------------------------------------
 Center     Atomic      Atomic             Coordinates (Angstroms)
 Number     Number       Type             X           Y           Z
 ---------------------------------------------------------------------
      1          6           0        3.425953   -0.157232   -0.297430
      2          6           0        2.041917    0.482806   -0.456511
      3          6           0        0.916977   -0.471807   -0.112496
      4          6           0        0.441047   -0.626130    1.304660
      5          6           0       -0.437269    0.056820    0.289148
      6          6           0       -1.036300    1.455677    0.238409
      7          8           0       -2.288882    0.875163   -0.258320
      8          6           0       -1.771438   -0.404674   -0.213950
      9          8           0       -2.310740   -1.423458   -0.507665
     10          1           0        4.218681    0.551399   -0.555050
     11          1           0        3.590328   -0.490181    0.732373
     12          1           0        3.532883   -1.030260   -0.949803
     13          1           0        1.972246    1.372590    0.182480
     14          1           0        1.916732    0.835649   -1.488068
     15          1           0        0.876484   -1.372439   -0.721407
     16          1           0        0.123064   -1.603114    1.652051
     17          1           0        0.892125    0.006101    2.063756
     18          1           0       -1.196590    1.957078    1.195747
     19          1           0       -0.614300    2.146776   -0.495188
 ---------------------------------------------------------------------

 SCF Done:  E(RB3LYP) =  -423.203729355     A.U. after    1 cycles

 The electronic state is 1-A.
 Alpha  occ. eigenvalues --  -19.17575 -19.12920 -10.30191 -10.25379 -10.21849
 Alpha  occ. eigenvalues --  -10.21398 -10.20820 -10.20136 -10.18599  -1.09915
 Alpha  occ. eigenvalues --   -1.02738  -0.88608  -0.77491  -0.71578  -0.66293
 Alpha  occ. eigenvalues --   -0.64980  -0.58827  -0.52963  -0.51238  -0.49422
 Alpha  occ. eigenvalues --   -0.48590  -0.45994  -0.44249  -0.41288  -0.40081
 Alpha  occ. eigenvalues --   -0.39789  -0.38482  -0.37687  -0.36040  -0.35091
 Alpha  occ. eigenvalues --   -0.31149  -0.30594  -0.29115  -0.26804
 Alpha virt. eigenvalues --    0.01025   0.07192   0.08226   0.10137   0.10562
 Alpha virt. eigenvalues --    0.11614   0.12852   0.13666   0.14946   0.15977
 Alpha virt. eigenvalues --    0.16771   0.17782   0.19689   0.20578   0.21583

 Mulliken charges:
               1
     1  C   -0.373408
     2  C   -0.202930
     3  C   -0.049874
     4  C   -0.342682
     5  C    0.096937
     6  C   -0.151578
     7  O   -0.255898
     8  C    0.433698
     9  O   -0.344514
    10  H    0.117192
    11  H    0.121967
    12  H    0.122212
    13  H    0.096408
    14  H    0.108278
    15  H    0.111125
    16  H    0.138996
    17  H    0.122459
    18  H    0.125554
    19  H    0.126057
 Sum of Mulliken charges =   0.00000

 Dipole moment (field-independent basis, Debye):
    X=              3.8428    Y=              1.9295    Z=              1.2534  Tot=              4.4790
 Quadrupole moment (field-independent basis, Debye-Ang):
   XX=            -62.5029   YY=            -53.8281   ZZ=            -51.5244
   XY=             -3.1915   XZ=             -3.1047   YZ=             -0.4698

  Exact polarizability:  89.231   1.465  76.283   1.084   0.810  65.166
 Approx polarizability: 114.880   4.312 119.909   4.677   3.699  99.555

                      1                      2                      3
                      A                      A                      A
 Frequencies --     77.2934               102.7202               131.5994
 Red. masses --      3.0069                 4.5389                 2.3112
 Frc consts  --      0.0106                 0.0282                 0.0236
 IR Inten    --      1.9015                 1.3355                 2.3456

                      4                      5                      6
                      A                      A                      A
 Frequencies --    168.3101               232.2448               251.2758
 Red. masses --      3.8427                 1.2975                 3.1374
 Frc consts  --      0.0641                 0.0412                 0.1167
 IR Inten    --      1.0051                 0.2320                 2.1555

                      7                      8                      9
                      A                      A                      A
 Frequencies --    283.5976               384.5080               415.3906
 Red. masses --      2.4689                 2.9129                 1.9285
 Frc consts  --      0.1170                 0.2537                 0.1961
 IR Inten    --      0.6003                 0.9305                 0.2126

                     10                     11                     12
                      A                      A                      A
 Frequencies --    565.9035               625.6171               723.3912
 Red. masses --      4.4102                 5.3247                 4.3353
 Frc consts  --      0.8321                 1.2279                 1.3366
 IR Inten    --      2.6013                 6.0806                 9.6181

                     13                     14                     15
                      A                      A                      A
 Frequencies --    774.4470               794.8551               823.8639
 Red. masses --      2.1016                 1.9684                 1.7986
 Frc consts  --      0.7426                 0.7327                 0.7193
 IR Inten    --      1.4924                 1.7242                 2.0353

                     16                     17                     18
                      A                      A                      A
 Frequencies --    871.3135               912.7344               942.3885
 Red. masses --      2.2088                 3.3205                 1.4295
 Frc consts  --      0.9880                 1.6298                 0.7480
 IR Inten    --      4.4529                12.6508                 5.5299

                     19                     20                     21
                      A                      A                      A
 Frequencies --    953.0809               984.4881              1045.8481
 Red. masses --      4.0371                 2.3538                 1.5458
 Frc consts  --      2.1606                 1.3441                 0.9962
 IR Inten    --     58.6573                12.2882                14.4018

                     22                     23                     24
                      A                      A                      A
 Frequencies --   1062.3072              1084.8712              1090.4271
 Red. masses --      1.5588                 1.9481                 2.7446
 Frc consts  --      1.0364                 1.3509                 1.9227
 IR Inten    --      1.0350                15.8155               100.5575

                     25                     26                     27
                      A                      A                      A
 Frequencies --   1115.2776              1134.0260              1146.8250
 Red. masses --      1.8931                 1.9579                 1.1193
 Frc consts  --      1.3874                 1.4835                 0.8674
 IR Inten    --     42.7483                 5.2419                 1.3011

                     28                     29                     30
                      A                      A                      A
 Frequencies --   1191.3823              1217.3462              1295.2721
 Red. masses --      1.7492                 2.2520                 1.2698
 Frc consts  --      1.4628                 1.9663                 1.2552
 IR Inten    --      3.2154                 9.7314                 3.6563

                     31                     32                     33
                      A                      A                      A
 Frequencies --   1310.1181              1341.4639              1373.1567
 Red. masses --      1.5993                 1.3593                 1.7128
 Frc consts  --      1.6173                 1.4412                 1.9029
 IR Inten    --     19.2943                 5.8134                23.7333

                     34                     35                     36
                      A                      A                      A
 Frequencies --   1412.1885              1435.2838              1484.7214
 Red. masses --      1.2445                 1.4833                 1.2172
 Frc consts  --      1.4623                 1.8004                 1.5809
 IR Inten    --      0.3137                 9.2123                 0.8245

                     37                     38                     39
                      A                      A                      A
 Frequencies --   1493.2477              1498.1383              1507.6928
 Red. masses --      1.6417                 1.0486                 1.0852
 Frc consts  --      2.1569                 1.3866                 1.4534
 IR Inten    --      9.0529                 6.2040                 2.8383

                     40                     41                     42
                      A                      A                      A
 Frequencies --   1515.6565              1933.9828              3018.7757
 Red. masses --      1.1001                12.7590                 1.0595
 Frc consts  --      1.4889                28.1171                 5.6884
 IR Inten    --      1.6786               437.8774                18.8651

                     43                     44                     45
                      A                      A                      A
 Frequencies --   3036.3934              3050.9393              3063.3540
 Red. masses --      1.0350                 1.1015                 1.0553
 Frc consts  --      5.6221                 6.0410                 5.8348
 IR Inten    --     26.1668                13.6951                33.7409

                     46                     47                     48
                      A                      A                      A
 Frequencies --   3105.4697              3110.5024              3121.4569
 Red. masses --      1.1019                 1.1019                 1.1130
 Frc consts  --      6.2611                 6.2811                 6.3891
 IR Inten    --     29.2141                29.6531                19.2529

                     49                     50                     51
                      A                      A                      A
 Frequencies --   3126.4028              3137.1744              3217.3685
 Red. masses --      1.0545                 1.0877                 1.1166
 Frc consts  --      6.0729                 6.3073                 6.8101
 IR Inten    --      8.6109                10.6944                 3.3575

 - Thermochemistry -
 -------------------
 Temperature   298.150 Kelvin.  Pressure   1.00000 Atm.
 Atom     1 has atomic number  6 and mass  12.00000

 Molecular mass:   126.06808 amu.
 Principal axes and moments of inertia in atomic units:
                           1         2         3
     Eigenvalues --   515.896321867.320622063.61000
           X            0.99989  -0.00948  -0.01147
           Y            0.00928   0.99980  -0.01759
           Z            0.01163   0.01748   0.99978
 This molecule is an asymmetric top.
 Rotational symmetry number  1.
 Warning -- assumption of classical behavior for rotation
           may cause significant error
 Rotational temperatures (Kelvin)      0.16789     0.04638     0.04197
 Rotational constants (GHZ):           3.49826     0.96649     0.87456
 Zero-point vibrational energy     416875.2 (Joules/Mol)
                                   99.63557 (Kcal/Mol)
 Warning -- explicit consideration of  10 degrees of freedom as
           vibrations may cause significant error
 Vibrational temperatures:    111.21   147.79   189.34   242.16   334.15
          (Kelvin)            361.53   408.03   553.22   597.65   814.21
                              900.12  1040.80  1114.26  1143.62  1185.35
                             1253.62  1313.22  1355.89  1371.27  1416.46
                             1504.74  1528.42  1560.89  1568.88  1604.63
                             1631.61  1650.02  1714.13  1751.49  1863.61
                             1884.97  1930.06  1975.66  2031.82  2065.05
                             2136.18  2148.45  2155.48  2169.23  2180.69
                             2782.57  4343.34  4368.69  4389.62  4407.48
                             4468.07  4475.31  4491.07  4498.19  4513.69
                             4629.07

 Zero-point correction=                           0.158779 (Hartree/Particle)
 Thermal correction to Energy=                    0.167664
 Thermal correction to Enthalpy=                  0.168608
 Thermal correction to Gibbs Free Energy=         0.124700
 Sum of electronic and zero-point Energies=           -423.044950
 Sum of electronic and thermal Energies=              -423.036066
 Sum of electronic and thermal Enthalpies=            -423.035121
 Sum of electronic and thermal Free Energies=         -423.079030

                     E (Thermal)             CV                S
                      KCal/Mol        Cal/Mol-Kelvin    Cal/Mol-Kelvin
 Total                  105.211             32.516             92.412
 Electronic               0.000              0.000              0.000
 Translational            0.889              2.981             40.409
 Rotational               0.889              2.981             29.076
 Vibrational            103.433             26.555             22.928
 Vibration     1          0.599              1.964              3.958
 Vibration     2          0.605              1.947              3.402
 Vibration     3          0.612              1.922              2.923
 Vibration     4          0.625              1.881              2.454
 Vibration     5          0.653              1.792              1.862
 Vibration     6          0.663              1.761              1.722
 Vibration     7          0.682              1.704              1.512
 Vibration     8          0.753              1.503              1.021
 Vibration     9          0.779              1.437              0.908
 Vibration    10          0.922              1.105              0.512

 Normal termination of Gaussian 09 at Tue Jan 28 14:52:10 2020.
