 Gaussian 09, Revision D.01,
 Gaussian 09:  ES64L-G09RevD.01 24-Apr-2013

 -----------------------------
 # b3lyp 6-31G(2df,p) opt Freq
 -----------------------------

 -----
 titel
 -----
 Symbolic Z-matrix:
 Charge =  0 Multiplicity = 1

 SCF Done:  E(RB3LYP) =  -423.127037967     A.U. after   13 cycles
 SCF Done:  E(RB3LYP) =  -423.127038073     A.U. after    6 cycles
 Optimization completed.
    -- Stationary point found.
 Normal termination of Gaussian 09 at Tue Jan 28 02:03:30 2020.

 ----------------------------------------------------------------------
 #N Geom=AllCheck Guess=TCheck SCRF=Check GenChk RB3LYP/6-31G(2df,p) Fr
 eq
 ----------------------------------------------------------------------

 Structure from the checkpoint file:  "/scratch/puck/g09_eb942580-7768-48f0-bac6-404cb8652569/Gau-26551.chk"
 -----
 titel
 -----
 Charge =  0 Multiplicity = 1

                         Standard orientation:
 ---------------------------------------------------------------------
 Center     Atomic      Atomic             Coordinates (Angstroms)
 Number     Number       Type             X           Y           Z
 ---------------------------------------------------------------------
      1          8           0       -2.692424   -0.723767    0.114818
      2          6           0       -1.887595    0.371920    0.410162
      3          6           0       -1.308408    1.210012   -0.727381
      4          6           0       -0.442754    0.262231    0.043975
      5          8           0       -0.037431   -0.994914   -0.529988
      6          6           0        1.156420   -1.007384    0.300611
      7          6           0        2.389203   -0.448020   -0.437788
      8          6           0        2.037415    0.984954    0.076299
      9          6           0        0.824756    0.407382    0.862718
     10          1           0       -2.087451   -1.437223   -0.137858
     11          1           0       -2.171825    0.881391    1.328154
     12          1           0       -1.580698    0.914316   -1.735432
     13          1           0       -1.176899    2.276779   -0.572492
     14          1           0        1.239071   -1.928608    0.880990
     15          1           0        3.335716   -0.828512   -0.044471
     16          1           0        2.364495   -0.604510   -1.518042
     17          1           0        2.806424    1.417106    0.719809
     18          1           0        1.774513    1.718406   -0.689632
     19          1           0        0.721283    0.653736    1.918760
 ---------------------------------------------------------------------

 SCF Done:  E(RB3LYP) =  -423.127038073     A.U. after    1 cycles

 The electronic state is 1-A.
 Alpha  occ. eigenvalues --  -19.14877 -19.13096 -10.24144 -10.24070 -10.22925
 Alpha  occ. eigenvalues --  -10.19861 -10.19035 -10.18757 -10.17978  -1.05720
 Alpha  occ. eigenvalues --   -1.01480  -0.83470  -0.82975  -0.69115  -0.65566
 Alpha  occ. eigenvalues --   -0.60097  -0.58945  -0.53914  -0.51322  -0.50541
 Alpha  occ. eigenvalues --   -0.47749  -0.45939  -0.42532  -0.42041  -0.39134
 Alpha  occ. eigenvalues --   -0.37899  -0.37171  -0.35246  -0.33793  -0.31933
 Alpha  occ. eigenvalues --   -0.31357  -0.29360  -0.24577  -0.22952
 Alpha virt. eigenvalues --    0.05880   0.08965   0.09478   0.10915   0.11867
 Alpha virt. eigenvalues --    0.12911   0.14071   0.14704   0.15835   0.16523
 Alpha virt. eigenvalues --    0.18220   0.18809   0.19430   0.21400   0.22067

 Mulliken charges:
               1
     1  O   -0.435714
     2  C    0.047597
     3  C   -0.391941
     4  C    0.421871
     5  O   -0.339100
     6  C    0.120390
     7  C   -0.229052
     8  C   -0.231480
     9  C   -0.193940
    10  H    0.293248
    11  H    0.096747
    12  H    0.127343
    13  H    0.114549
    14  H    0.082720
    15  H    0.105154
    16  H    0.115610
    17  H    0.104439
    18  H    0.109353
    19  H    0.082205
 Sum of Mulliken charges =   0.00000

 Dipole moment (field-independent basis, Debye):
    X=              2.6362    Y=              0.7833    Z=              0.9249  Tot=              2.9015
 Quadrupole moment (field-independent basis, Debye-Ang):
   XX=            -58.3901   YY=            -51.0081   ZZ=            -52.0179
   XY=             -2.1267   XZ=              0.9592   YZ=             -0.2308

  Exact polarizability:  87.965  -2.404  73.302  -0.025  -1.048  65.131
 Approx polarizability: 113.674  -1.788 109.346   0.250  -0.154  99.284

                      1                      2                      3
                      A                      A                      A
 Frequencies --     79.3978               140.2811               175.7044
 Red. masses --      3.0379                 3.5023                 3.5193
 Frc consts  --      0.0113                 0.0406                 0.0640
 IR Inten    --      0.0921                 0.9284                 3.1599

                      4                      5                      6
                      A                      A                      A
 Frequencies --    267.1881               312.5229               381.4328
 Red. masses --      2.5075                 3.7285                 2.2329
 Frc consts  --      0.1055                 0.2146                 0.1914
 IR Inten    --      2.1703                 2.6836                11.1012

                      7                      8                      9
                      A                      A                      A
 Frequencies --    424.4049               450.1485               554.6687
 Red. masses --      1.6637                 1.5416                 3.7253
 Frc consts  --      0.1766                 0.1841                 0.6753
 IR Inten    --     42.5987                 7.7572                 5.6059

                     10                     11                     12
                      A                      A                      A
 Frequencies --    620.6008               727.2036               753.7858
 Red. masses --      3.2643                 1.5592                 2.3799
 Frc consts  --      0.7407                 0.4858                 0.7967
 IR Inten    --      5.7989                 2.2045                 5.9480

                     13                     14                     15
                      A                      A                      A
 Frequencies --    804.6164               826.5566               836.2392
 Red. masses --      1.8786                 1.6199                 2.6764
 Frc consts  --      0.7166                 0.6521                 1.1027
 IR Inten    --      1.7236                 6.7601                12.6700

                     16                     17                     18
                      A                      A                      A
 Frequencies --    870.3638               917.9265               927.8574
 Red. masses --      1.9857                 3.1895                 2.7736
 Frc consts  --      0.8863                 1.5834                 1.4069
 IR Inten    --      8.1121                33.2501                24.6347

                     19                     20                     21
                      A                      A                      A
 Frequencies --    953.5514               975.1390              1000.8096
 Red. masses --      2.6438                 2.2113                 2.2841
 Frc consts  --      1.4163                 1.2389                 1.3479
 IR Inten    --     11.6671                 8.4668                15.3334

                     22                     23                     24
                      A                      A                      A
 Frequencies --   1014.5136              1033.6236              1063.4960
 Red. masses --      2.1279                 1.9248                 2.2640
 Frc consts  --      1.2904                 1.2116                 1.5087
 IR Inten    --     12.9422                63.0168                18.4959

                     25                     26                     27
                      A                      A                      A
 Frequencies --   1091.2069              1133.8802              1159.3700
 Red. masses --      1.4800                 1.5163                 2.7800
 Frc consts  --      1.0383                 1.1486                 2.2016
 IR Inten    --     10.2868                18.4662                73.5316

                     28                     29                     30
                      A                      A                      A
 Frequencies --   1170.5354              1184.9351              1209.3137
 Red. masses --      2.0843                 1.5892                 1.7001
 Frc consts  --      1.6826                 1.3147                 1.4649
 IR Inten    --      8.4287                 5.0644                12.7276

                     31                     32                     33
                      A                      A                      A
 Frequencies --   1241.1297              1262.1346              1275.9866
 Red. masses --      1.3157                 1.4214                 1.5745
 Frc consts  --      1.1941                 1.3341                 1.5104
 IR Inten    --      1.0353                 5.0564                14.4628

                     34                     35                     36
                      A                      A                      A
 Frequencies --   1284.6198              1317.8677              1332.2663
 Red. masses --      1.6118                 1.5255                 1.4505
 Frc consts  --      1.5672                 1.5610                 1.5169
 IR Inten    --      3.4583                 4.2472                13.4764

                     37                     38                     39
                      A                      A                      A
 Frequencies --   1391.9645              1416.7910              1462.1707
 Red. masses --      1.5525                 1.1513                 1.0910
 Frc consts  --      1.7723                 1.3616                 1.3742
 IR Inten    --     38.4406                44.9061                 1.6483

                     40                     41                     42
                      A                      A                      A
 Frequencies --   1481.7190              1490.5945              3061.9655
 Red. masses --      1.6649                 1.4023                 1.0594
 Frc consts  --      2.1536                 1.8357                 5.8519
 IR Inten    --     40.9314                10.0373                20.9001

                     43                     44                     45
                      A                      A                      A
 Frequencies --   3068.2368              3088.0651              3110.1062
 Red. masses --      1.0605                 1.0883                 1.1046
 Frc consts  --      5.8821                 6.1144                 6.2952
 IR Inten    --     40.4654                53.5581                 3.6065

                     46                     47                     48
                      A                      A                      A
 Frequencies --   3119.0052              3121.7429              3130.6477
 Red. masses --      1.0944                 1.0546                 1.1020
 Frc consts  --      6.2727                 6.0551                 6.3636
 IR Inten    --     11.0477                 3.8470                24.4231

                     49                     50                     51
                      A                      A                      A
 Frequencies --   3131.5944              3217.6939              3713.4470
 Red. masses --      1.0928                 1.1164                 1.0654
 Frc consts  --      6.3145                 6.8101                 8.6560
 IR Inten    --     44.9520                 4.0135                49.5486

 - Thermochemistry -
 -------------------
 Temperature   298.150 Kelvin.  Pressure   1.00000 Atm.
 Atom     1 has atomic number  8 and mass  15.99491

 Molecular mass:   126.06808 amu.
 Principal axes and moments of inertia in atomic units:
                           1         2         3
     Eigenvalues --   464.347111447.977071637.81409
           X            0.99997  -0.00713   0.00122
           Y            0.00716   0.99973  -0.02190
           Z           -0.00106   0.02190   0.99976
 This molecule is an asymmetric top.
 Rotational symmetry number  1.
 Warning -- assumption of classical behavior for rotation
           may cause significant error
 Rotational temperatures (Kelvin)      0.18653     0.05982     0.05288
 Rotational constants (GHZ):           3.88662     1.24639     1.10192
 Zero-point vibrational energy     417383.2 (Joules/Mol)
                                   99.75698 (Kcal/Mol)
 Warning -- explicit consideration of  10 degrees of freedom as
           vibrations may cause significant error
 Vibrational temperatures:    114.24   201.83   252.80   384.42   449.65
          (Kelvin)            548.80   610.62   647.66   798.04   892.91
                             1046.28  1084.53  1157.66  1189.23  1203.16
                             1252.26  1320.69  1334.98  1371.95  1403.01
                             1439.94  1459.66  1487.15  1530.13  1570.00
                             1631.40  1668.07  1684.14  1704.86  1739.93
                             1785.71  1815.93  1835.86  1848.28  1896.12
                             1916.83  2002.72  2038.44  2103.73  2131.86
                             2144.63  4405.48  4414.50  4443.03  4474.74
                             4487.55  4491.49  4504.30  4505.66  4629.54
                             5342.82

 Zero-point correction=                           0.158973 (Hartree/Particle)
 Thermal correction to Energy=                    0.166933
 Thermal correction to Enthalpy=                  0.167877
 Thermal correction to Gibbs Free Energy=         0.126444
 Sum of electronic and zero-point Energies=           -422.968065
 Sum of electronic and thermal Energies=              -422.960105
 Sum of electronic and thermal Enthalpies=            -422.959161
 Sum of electronic and thermal Free Energies=         -423.000594

                     E (Thermal)             CV                S
                      KCal/Mol        Cal/Mol-Kelvin    Cal/Mol-Kelvin
 Total                  104.752             31.360             87.202
 Electronic               0.000              0.000              0.000
 Translational            0.889              2.981             40.409
 Rotational               0.889              2.981             28.489
 Vibrational            102.974             25.398             18.304
 Vibration     1          0.600              1.963              3.906
 Vibration     2          0.615              1.913              2.800
 Vibration     3          0.628              1.872              2.374
 Vibration     4          0.672              1.733              1.614
 Vibration     5          0.701              1.650              1.349
 Vibration     6          0.751              1.510              1.033
 Vibration     7          0.786              1.417              0.877
 Vibration     8          0.809              1.361              0.795
 Vibration     9          0.910              1.129              0.535
 Vibration    10          0.981              0.988              0.416

 Normal termination of Gaussian 09 at Tue Jan 28 02:50:46 2020.
 Normal termination of Gaussian 09 at Tue Jan 28 01:52:28 2020.
