 Gaussian 09, Revision D.01,
 Gaussian 09:  ES64L-G09RevD.01 24-Apr-2013

 -----------------------------
 # b3lyp 6-31G(2df,p) opt Freq
 -----------------------------

 -----
 titel
 -----
 Symbolic Z-matrix:
 Charge =  0 Multiplicity = 1

 SCF Done:  E(RB3LYP) =  -423.198036795     A.U. after   14 cycles
 Optimization completed.
    -- Stationary point found.
 Normal termination of Gaussian 09 at Mon Jan 27 17:16:13 2020.

 ----------------------------------------------------------------------
 #N Geom=AllCheck Guess=TCheck SCRF=Check GenChk RB3LYP/6-31G(2df,p) Fr
 eq
 ----------------------------------------------------------------------

 Structure from the checkpoint file:  "/scratch/puck/g09_6215b14f-a368-4f24-ac69-11e771bdb4de/Gau-50120.chk"
 -----
 titel
 -----
 Charge =  0 Multiplicity = 1

                         Standard orientation:
 ---------------------------------------------------------------------
 Center     Atomic      Atomic             Coordinates (Angstroms)
 Number     Number       Type             X           Y           Z
 ---------------------------------------------------------------------
      1          6           0       -2.433220    0.143094   -0.259836
      2          6           0       -0.944037    0.072394    0.014713
      3          6           0       -0.278180    1.442442    0.289407
      4          6           0        1.245301    1.253028    0.467686
      5          8           0        1.814194    0.313632   -0.449170
      6          6           0        0.991112   -0.823971   -0.654881
      7          8           0       -0.263150   -0.422548   -1.158427
      8          6           0        0.627252   -1.493779    0.668226
      9          6           0       -0.505889   -0.934705    1.079185
     10          1           0       -2.818846   -0.847657   -0.515597
     11          1           0       -2.969826    0.512275    0.619900
     12          1           0       -2.635694    0.819129   -1.095661
     13          1           0       -0.488742    2.085434   -0.571355
     14          1           0       -0.686076    1.927941    1.183692
     15          1           0        1.775916    2.193232    0.296090
     16          1           0        1.452250    0.935821    1.498274
     17          1           0        1.504906   -1.436402   -1.397054
     18          1           0        1.263803   -2.192396    1.194216
     19          1           0       -1.020087   -1.077061    2.021276
 ---------------------------------------------------------------------

 SCF Done:  E(RB3LYP) =  -423.198036795     A.U. after    1 cycles

 The electronic state is 1-A.
 Alpha  occ. eigenvalues --  -19.13688 -19.13472 -10.27331 -10.24314 -10.22622
 Alpha  occ. eigenvalues --  -10.18939 -10.18543 -10.18516 -10.17870  -1.07210
 Alpha  occ. eigenvalues --   -0.99712  -0.80696  -0.78025  -0.72534  -0.66401
 Alpha  occ. eigenvalues --   -0.63384  -0.56762  -0.54775  -0.51036  -0.48371
 Alpha  occ. eigenvalues --   -0.46656  -0.45148  -0.42960  -0.41937  -0.40369
 Alpha  occ. eigenvalues --   -0.38641  -0.38102  -0.36838  -0.34040  -0.33619
 Alpha  occ. eigenvalues --   -0.30889  -0.26717  -0.25867  -0.25043
 Alpha virt. eigenvalues --    0.00112   0.09511   0.11513   0.12514   0.13045
 Alpha virt. eigenvalues --    0.14112   0.14843   0.15457   0.16147   0.17380
 Alpha virt. eigenvalues --    0.17685   0.19558   0.20978   0.21587   0.22356

 Mulliken charges:
               1
     1  C   -0.464620
     2  C    0.334946
     3  C   -0.237388
     4  C   -0.079451
     5  O   -0.264456
     6  C    0.124227
     7  O   -0.262996
     8  C   -0.102137
     9  C   -0.136250
    10  H    0.128666
    11  H    0.114712
    12  H    0.127612
    13  H    0.111827
    14  H    0.094358
    15  H    0.109192
    16  H    0.096963
    17  H    0.088536
    18  H    0.110545
    19  H    0.105715
 Sum of Mulliken charges =   0.00000

 Dipole moment (field-independent basis, Debye):
    X=             -0.9871    Y=              0.1668    Z=              1.9926  Tot=              2.2300
 Quadrupole moment (field-independent basis, Debye-Ang):
   XX=            -53.9534   YY=            -50.2877   ZZ=            -53.5959
   XY=             -2.1646   XZ=             -0.2105   YZ=             -0.0581

  Exact polarizability:  82.030  -5.407  74.344  -2.773  -0.329  66.540
 Approx polarizability: 120.815 -11.377 107.040  -9.767   1.978 105.083

                      1                      2                      3
                      A                      A                      A
 Frequencies --    210.8286               220.9523               268.6004
 Red. masses --      1.1267                 2.2266                 2.5289
 Frc consts  --      0.0295                 0.0640                 0.1075
 IR Inten    --      0.0412                 0.8647                 1.0762

                      4                      5                      6
                      A                      A                      A
 Frequencies --    290.2990               347.5088               392.5384
 Red. masses --      2.4087                 2.8287                 2.4310
 Frc consts  --      0.1196                 0.2013                 0.2207
 IR Inten    --      1.6767                 3.3555                 2.9644

                      7                      8                      9
                      A                      A                      A
 Frequencies --    427.6990               515.1816               597.9086
 Red. masses --      3.5969                 4.3214                 4.0364
 Frc consts  --      0.3877                 0.6758                 0.8502
 IR Inten    --      1.9364                 8.2237                 5.3143

                     10                     11                     12
                      A                      A                      A
 Frequencies --    631.0977               674.1308               751.3301
 Red. masses --      3.2718                 3.2027                 1.7520
 Frc consts  --      0.7678                 0.8575                 0.5827
 IR Inten    --      1.2233                 2.7064                20.8397

                     13                     14                     15
                      A                      A                      A
 Frequencies --    789.3362               832.9680               851.1204
 Red. masses --      2.4489                 4.2978                 3.4484
 Frc consts  --      0.8990                 1.7569                 1.4718
 IR Inten    --      1.3375                13.5834                 4.1069

                     16                     17                     18
                      A                      A                      A
 Frequencies --    876.8622               896.1134               939.2782
 Red. masses --      2.2644                 1.9434                 1.6606
 Frc consts  --      1.0258                 0.9195                 0.8632
 IR Inten    --      4.8260                 2.8268                13.1841

                     19                     20                     21
                      A                      A                      A
 Frequencies --    946.3403               961.7317               989.8042
 Red. masses --      1.9349                 3.2996                 2.0175
 Frc consts  --      1.0210                 1.7981                 1.1646
 IR Inten    --     37.1618                69.2280                23.2387

                     22                     23                     24
                      A                      A                      A
 Frequencies --   1027.2548              1044.0855              1057.8727
 Red. masses --      4.0507                 1.5368                 1.5972
 Frc consts  --      2.5184                 0.9870                 1.0531
 IR Inten    --     35.4620                 0.6524                30.3126

                     25                     26                     27
                      A                      A                      A
 Frequencies --   1127.7386              1167.2895              1191.8386
 Red. masses --      3.0294                 1.9779                 2.3754
 Frc consts  --      2.2700                 1.5879                 1.9880
 IR Inten    --     86.8561                29.5190                28.9867

                     28                     29                     30
                      A                      A                      A
 Frequencies --   1233.7914              1255.0156              1285.7264
 Red. masses --      2.3788                 1.3581                 1.3270
 Frc consts  --      2.1335                 1.2603                 1.2925
 IR Inten    --     10.8096                 6.9760                 7.2603

                     31                     32                     33
                      A                      A                      A
 Frequencies --   1315.5717              1340.3488              1365.3209
 Red. masses --      1.4727                 1.6270                 1.4409
 Frc consts  --      1.5017                 1.7221                 1.5825
 IR Inten    --      4.1384                15.7148                16.3787

                     34                     35                     36
                      A                      A                      A
 Frequencies --   1372.0230              1409.7505              1413.7167
 Red. masses --      1.3909                 1.3264                 1.2931
 Frc consts  --      1.5427                 1.5531                 1.5226
 IR Inten    --      4.3063                 2.3403                17.8830

                     37                     38                     39
                      A                      A                      A
 Frequencies --   1468.2601              1483.9882              1496.3257
 Red. masses --      1.0904                 1.0596                 1.0500
 Frc consts  --      1.3850                 1.3749                 1.3851
 IR Inten    --      0.7273                 2.4790                 3.4105

                     40                     41                     42
                      A                      A                      A
 Frequencies --   1504.8545              1663.6568              3015.1355
 Red. masses --      1.0838                 6.7077                 1.0686
 Frc consts  --      1.4460                10.9384                 5.7238
 IR Inten    --      2.1634                 1.1014                42.6331

                     43                     44                     45
                      A                      A                      A
 Frequencies --   3036.3061              3041.9606              3082.5929
 Red. masses --      1.0549                 1.0395                 1.0981
 Frc consts  --      5.7297                 5.6672                 6.1480
 IR Inten    --     15.2163                28.7550                23.7650

                     46                     47                     48
                      A                      A                      A
 Frequencies --   3094.6618              3113.4593              3114.2651
 Red. masses --      1.1010                 1.0903                 1.1012
 Frc consts  --      6.2127                 6.2269                 6.2926
 IR Inten    --     32.6484                41.8343                19.6232

                     49                     50                     51
                      A                      A                      A
 Frequencies --   3120.9522              3207.6328              3235.9077
 Red. masses --      1.1022                 1.0865                 1.1073
 Frc consts  --      6.3256                 6.5866                 6.8316
 IR Inten    --     16.9385                 3.4508                 7.0441

 - Thermochemistry -
 -------------------
 Temperature   298.150 Kelvin.  Pressure   1.00000 Atm.
 Atom     1 has atomic number  6 and mass  12.00000

 Molecular mass:   126.06808 amu.
 Principal axes and moments of inertia in atomic units:
                           1         2         3
     Eigenvalues --   658.62723 986.939471167.14456
           X            0.99960  -0.02509   0.01312
           Y            0.02503   0.99967   0.00503
           Z           -0.01325  -0.00470   0.99990
 This molecule is an asymmetric top.
 Rotational symmetry number  1.
 Warning -- assumption of classical behavior for rotation
           may cause significant error
 Rotational temperatures (Kelvin)      0.13151     0.08776     0.07421
 Rotational constants (GHZ):           2.74016     1.82862     1.54629
 Zero-point vibrational energy     422873.5 (Joules/Mol)
                                  101.06920 (Kcal/Mol)
 Warning -- explicit consideration of   9 degrees of freedom as
           vibrations may cause significant error
 Vibrational temperatures:    303.33   317.90   386.46   417.67   499.99
          (Kelvin)            564.77   615.36   741.23   860.26   908.01
                              969.92  1081.00  1135.68  1198.45  1224.57
                             1261.61  1289.31  1351.41  1361.57  1383.72
                             1424.11  1477.99  1502.20  1522.04  1622.56
                             1679.47  1714.79  1775.15  1805.69  1849.87
                             1892.81  1928.46  1964.39  1974.03  2028.31
                             2034.02  2112.50  2135.13  2152.88  2165.15
                             2393.63  4338.10  4368.56  4376.70  4435.16
                             4452.52  4479.57  4480.73  4490.35  4615.06
                             4655.74

 Zero-point correction=                           0.161064 (Hartree/Particle)
 Thermal correction to Energy=                    0.168330
 Thermal correction to Enthalpy=                  0.169275
 Thermal correction to Gibbs Free Energy=         0.130003
 Sum of electronic and zero-point Energies=           -423.036973
 Sum of electronic and thermal Energies=              -423.029706
 Sum of electronic and thermal Enthalpies=            -423.028762
 Sum of electronic and thermal Free Energies=         -423.068033

                     E (Thermal)             CV                S
                      KCal/Mol        Cal/Mol-Kelvin    Cal/Mol-Kelvin
 Total                  105.629             30.167             82.653
 Electronic               0.000              0.000              0.000
 Translational            0.889              2.981             40.409
 Rotational               0.889              2.981             28.119
 Vibrational            103.852             24.205             14.126
 Vibration     1          0.643              1.824              2.036
 Vibration     2          0.648              1.809              1.951
 Vibration     3          0.673              1.731              1.605
 Vibration     4          0.686              1.692              1.472
 Vibration     5          0.725              1.580              1.177
 Vibration     6          0.760              1.486              0.990
 Vibration     7          0.789              1.410              0.866
 Vibration     8          0.870              1.216              0.621
 Vibration     9          0.956              1.036              0.453

 Optimization completed.
    -- Stationary point found.
 Normal termination of Gaussian 09 at Mon Jan 27 18:02:32 2020.
