 Gaussian 09, Revision D.01,
 Gaussian 09:  ES64L-G09RevD.01 24-Apr-2013

 -----------------------------
 # b3lyp 6-31G(2df,p) opt Freq
 -----------------------------

 -----
 titel
 -----
 Symbolic Z-matrix:
 Charge =  0 Multiplicity = 1

 SCF Done:  E(RB3LYP) =  -423.187508061     A.U. after   13 cycles
 SCF Done:  E(RB3LYP) =  -423.187508095     A.U. after    6 cycles
 Optimization completed.
    -- Stationary point found.
 Normal termination of Gaussian 09 at Tue Jan 28 08:19:20 2020.

 ----------------------------------------------------------------------
 #N Geom=AllCheck Guess=TCheck SCRF=Check GenChk RB3LYP/6-31G(2df,p) Fr
 eq
 ----------------------------------------------------------------------

 Structure from the checkpoint file:  "/scratch/puck/g09_dcc19268-7ed2-4eb0-b61b-bda3536759c4/Gau-17855.chk"
 -----
 titel
 -----
 Charge =  0 Multiplicity = 1

                         Standard orientation:
 ---------------------------------------------------------------------
 Center     Atomic      Atomic             Coordinates (Angstroms)
 Number     Number       Type             X           Y           Z
 ---------------------------------------------------------------------
      1          6           0       -2.512315   -0.155455   -0.234681
      2          6           0       -1.191164    0.266121    0.387340
      3          8           0       -0.579235    1.190072   -0.517636
      4          6           0        0.761060    1.545442   -0.200809
      5          6           0        1.588909    0.293590    0.143384
      6          8           0        0.941521   -0.298565    1.277063
      7          6           0       -0.214569   -0.898926    0.678018
      8          6           0        0.343765   -1.482878   -0.613593
      9          6           0        1.420697   -0.772305   -0.931385
     10          1           0       -3.055988   -0.828940    0.435486
     11          1           0       -3.135602    0.722650   -0.422531
     12          1           0       -2.347475   -0.664105   -1.188851
     13          1           0       -1.368424    0.765652    1.353762
     14          1           0        1.151761    2.071371   -1.078315
     15          1           0        0.792300    2.225808    0.664372
     16          1           0        2.618523    0.547631    0.410375
     17          1           0       -0.645680   -1.617486    1.380923
     18          1           0       -0.119518   -2.278538   -1.180781
     19          1           0        2.033515   -0.849621   -1.819497
 ---------------------------------------------------------------------

 SCF Done:  E(RB3LYP) =  -423.187508095     A.U. after    1 cycles

 The electronic state is 1-A.
 Alpha  occ. eigenvalues --  -19.13545 -19.13541 -10.23419 -10.23230 -10.23013
 Alpha  occ. eigenvalues --  -10.22567 -10.18598 -10.18495 -10.17580  -1.05535
 Alpha  occ. eigenvalues --   -1.01053  -0.79266  -0.78712  -0.71642  -0.66814
 Alpha  occ. eigenvalues --   -0.62522  -0.56198  -0.55024  -0.52014  -0.47905
 Alpha  occ. eigenvalues --   -0.47653  -0.45344  -0.43883  -0.40098  -0.39827
 Alpha  occ. eigenvalues --   -0.38382  -0.37807  -0.35710  -0.35355  -0.33205
 Alpha  occ. eigenvalues --   -0.32355  -0.26926  -0.25391  -0.22794
 Alpha virt. eigenvalues --    0.00702   0.09976   0.11268   0.12009   0.12816
 Alpha virt. eigenvalues --    0.14557   0.15034   0.15649   0.15870   0.16794
 Alpha virt. eigenvalues --    0.17752   0.18751   0.19407   0.21236   0.22126

 Mulliken charges:
               1
     1  C   -0.410369
     2  C    0.143141
     3  O   -0.273604
     4  C   -0.075543
     5  C    0.009608
     6  O   -0.264154
     7  C   -0.003349
     8  C   -0.071177
     9  C   -0.072763
    10  H    0.113649
    11  H    0.129388
    12  H    0.124170
    13  H    0.072247
    14  H    0.104385
    15  H    0.096112
    16  H    0.081628
    17  H    0.080882
    18  H    0.108836
    19  H    0.106914
 Sum of Mulliken charges =   0.00000

 Dipole moment (field-independent basis, Debye):
    X=              0.0233    Y=             -0.4506    Z=             -0.6814  Tot=              0.8173
 Quadrupole moment (field-independent basis, Debye-Ang):
   XX=            -50.0338   YY=            -52.1946   ZZ=            -54.8921
   XY=              3.8903   XZ=             -4.0022   YZ=              1.7640

  Exact polarizability:  85.262   9.274  73.052  -6.050   2.024  65.987
 Approx polarizability: 121.817  18.150 107.689  -9.132  -0.681 103.953

                      1                      2                      3
                      A                      A                      A
 Frequencies --    151.3101               215.4555               261.1615
 Red. masses --      3.0571                 1.0819                 2.7958
 Frc consts  --      0.0412                 0.0296                 0.1124
 IR Inten    --      1.1077                 0.2651                 5.5025

                      4                      5                      6
                      A                      A                      A
 Frequencies --    284.4605               345.3684               407.3069
 Red. masses --      2.6607                 2.6972                 3.0183
 Frc consts  --      0.1268                 0.1896                 0.2950
 IR Inten    --      1.3670                 2.9984                 1.7838

                      7                      8                      9
                      A                      A                      A
 Frequencies --    432.2733               502.0280               625.4214
 Red. masses --      5.9471                 3.5200                 2.8118
 Frc consts  --      0.6547                 0.5227                 0.6480
 IR Inten    --      2.2070                 3.0185                 3.8638

                     10                     11                     12
                      A                      A                      A
 Frequencies --    656.1638               729.2228               793.6449
 Red. masses --      3.8198                 1.8155                 3.3696
 Frc consts  --      0.9690                 0.5688                 1.2505
 IR Inten    --      7.2079                25.8951                 2.8684

                     13                     14                     15
                      A                      A                      A
 Frequencies --    829.9739               842.8527               860.6277
 Red. masses --      3.6177                 3.2263                 3.2634
 Frc consts  --      1.4683                 1.3504                 1.4241
 IR Inten    --     21.2589                10.8634                 9.0951

                     16                     17                     18
                      A                      A                      A
 Frequencies --    898.3940               919.8072               939.9875
 Red. masses --      2.6430                 1.8769                 1.9643
 Frc consts  --      1.2568                 0.9356                 1.0226
 IR Inten    --     26.2466                 8.3056                27.9160

                     19                     20                     21
                      A                      A                      A
 Frequencies --    948.0658               999.0836              1029.7273
 Red. masses --      1.4199                 2.0483                 2.1761
 Frc consts  --      0.7520                 1.2046                 1.3595
 IR Inten    --      3.7308                 4.7451                 4.9777

                     22                     23                     24
                      A                      A                      A
 Frequencies --   1046.5588              1082.5723              1102.7478
 Red. masses --      1.8259                 3.5300                 3.1834
 Frc consts  --      1.1783                 2.4375                 2.2808
 IR Inten    --      4.5228                23.6995                75.8118

                     25                     26                     27
                      A                      A                      A
 Frequencies --   1126.6169              1137.5652              1163.8839
 Red. masses --      1.7757                 2.2460                 1.9458
 Frc consts  --      1.3279                 1.7124                 1.5530
 IR Inten    --     18.7589                33.6200                 4.0428

                     28                     29                     30
                      A                      A                      A
 Frequencies --   1250.4015              1275.7793              1292.5274
 Red. masses --      1.2243                 1.4197                 1.2580
 Frc consts  --      1.1278                 1.3614                 1.2382
 IR Inten    --      5.2292                 1.1906                 0.2716

                     31                     32                     33
                      A                      A                      A
 Frequencies --   1297.6580              1313.9355              1350.6279
 Red. masses --      1.3865                 1.4605                 1.5216
 Frc consts  --      1.3756                 1.4856                 1.6354
 IR Inten    --      7.8655                 3.4673                 6.0815

                     34                     35                     36
                      A                      A                      A
 Frequencies --   1368.7853              1376.1930              1404.2082
 Red. masses --      1.3596                 1.5027                 1.3271
 Frc consts  --      1.5008                 1.6768                 1.5418
 IR Inten    --      4.8305                 4.9714                 5.2442

                     37                     38                     39
                      A                      A                      A
 Frequencies --   1409.2791              1482.3866              1485.4661
 Red. masses --      1.3410                 1.0509                 1.0917
 Frc consts  --      1.5692                 1.3606                 1.4193
 IR Inten    --     13.8792                 2.9490                 0.7172

                     40                     41                     42
                      A                      A                      A
 Frequencies --   1502.6250              1667.4102              2971.4812
 Red. masses --      1.0525                 6.4935                 1.0826
 Frc consts  --      1.4001                10.6368                 5.6318
 IR Inten    --      3.0184                 0.6159                36.8011

                     43                     44                     45
                      A                      A                      A
 Frequencies --   2986.9548              3043.2070              3072.9863
 Red. masses --      1.0668                 1.0354                 1.0891
 Frc consts  --      5.6078                 5.6496                 6.0593
 IR Inten    --     67.7699                14.8181                30.0794

                     46                     47                     48
                      A                      A                      A
 Frequencies --   3074.3232              3078.7383              3116.4713
 Red. masses --      1.0932                 1.0900                 1.1011
 Frc consts  --      6.0875                 6.0871                 6.3009
 IR Inten    --     61.9279                29.7992                23.0554

                     49                     50                     51
                      A                      A                      A
 Frequencies --   3122.9329              3214.2780              3239.7006
 Red. masses --      1.1019                 1.0857                 1.1079
 Frc consts  --      6.3315                 6.6091                 6.8514
 IR Inten    --     18.8382                 3.1036                 7.9787

 - Thermochemistry -
 -------------------
 Temperature   298.150 Kelvin.  Pressure   1.00000 Atm.
 Atom     1 has atomic number  6 and mass  12.00000

 Molecular mass:   126.06808 amu.
 Principal axes and moments of inertia in atomic units:
                           1         2         3
     Eigenvalues --   658.088191007.730411195.12980
           X            0.99792   0.06176  -0.01866
           Y           -0.06082   0.99703   0.04727
           Z            0.02152  -0.04604   0.99871
 This molecule is an asymmetric top.
 Rotational symmetry number  1.
 Warning -- assumption of classical behavior for rotation
           may cause significant error
 Rotational temperatures (Kelvin)      0.13161     0.08595     0.07247
 Rotational constants (GHZ):           2.74240     1.79090     1.51008
 Zero-point vibrational energy     423063.2 (Joules/Mol)
                                  101.11452 (Kcal/Mol)
 Warning -- explicit consideration of   8 degrees of freedom as
           vibrations may cause significant error
 Vibrational temperatures:    217.70   309.99   375.75   409.27   496.91
          (Kelvin)            586.02   621.94   722.31   899.84   944.07
                             1049.19  1141.88  1194.15  1212.68  1238.25
                             1292.59  1323.40  1352.43  1364.05  1437.46
                             1481.55  1505.76  1557.58  1586.61  1620.95
                             1636.70  1674.57  1799.05  1835.56  1859.66
                             1867.04  1890.46  1943.25  1969.37  1980.03
                             2020.34  2027.64  2132.82  2137.25  2161.94
                             2399.03  4275.29  4297.56  4378.49  4421.34
                             4423.26  4429.61  4483.90  4493.20  4624.62
                             4661.20

 Zero-point correction=                           0.161136 (Hartree/Particle)
 Thermal correction to Energy=                    0.168416
 Thermal correction to Enthalpy=                  0.169361
 Thermal correction to Gibbs Free Energy=         0.129867
 Sum of electronic and zero-point Energies=           -423.026372
 Sum of electronic and thermal Energies=              -423.019092
 Sum of electronic and thermal Enthalpies=            -423.018148
 Sum of electronic and thermal Free Energies=         -423.057641

                     E (Thermal)             CV                S
                      KCal/Mol        Cal/Mol-Kelvin    Cal/Mol-Kelvin
 Total                  105.683             29.722             83.121
 Electronic               0.000              0.000              0.000
 Translational            0.889              2.981             40.409
 Rotational               0.889              2.981             28.163
 Vibrational            103.905             23.761             14.550
 Vibration     1          0.619              1.901              2.656
 Vibration     2          0.645              1.817              1.997
 Vibration     3          0.669              1.744              1.654
 Vibration     4          0.683              1.702              1.507
 Vibration     5          0.724              1.585              1.187
 Vibration     6          0.772              1.454              0.936
 Vibration     7          0.793              1.400              0.851
 Vibration     8          0.857              1.246              0.653

 Optimization completed.
    -- Stationary point found.
 Normal termination of Gaussian 09 at Tue Jan 28 09:05:51 2020.
