 Gaussian 09, Revision D.01,
 Gaussian 09:  ES64L-G09RevD.01 24-Apr-2013

 -----------------------------
 # b3lyp 6-31G(2df,p) opt Freq
 -----------------------------

 -----
 titel
 -----
 Symbolic Z-matrix:
 Charge =  0 Multiplicity = 1

 SCF Done:  E(RB3LYP) =  -423.163738339     A.U. after   13 cycles
 Optimization completed.
    -- Stationary point found.
 Normal termination of Gaussian 09 at Tue Jan 28 03:44:16 2020.

 ----------------------------------------------------------------------
 #N Geom=AllCheck Guess=TCheck SCRF=Check GenChk RB3LYP/6-31G(2df,p) Fr
 eq
 ----------------------------------------------------------------------

 Structure from the checkpoint file:  "/scratch/puck/g09_548b6f32-fcb6-40f4-b732-92e405ac3c9f/Gau-80574.chk"
 -----
 titel
 -----
 Charge =  0 Multiplicity = 1

                         Standard orientation:
 ---------------------------------------------------------------------
 Center     Atomic      Atomic             Coordinates (Angstroms)
 Number     Number       Type             X           Y           Z
 ---------------------------------------------------------------------
      1          8           0        2.569518   -0.141521    0.277429
      2          6           0        1.354738   -0.180456   -0.471249
      3          6           0        0.794914    1.264238   -0.467842
      4          6           0       -0.490920    1.244781    0.362930
      5          8           0       -1.663318    0.926576   -0.443238
      6          6           0       -1.788418   -0.377802    0.155650
      7          6           0       -0.969937   -1.444441   -0.606397
      8          6           0        0.296921   -1.057378    0.227477
      9          6           0       -0.586307   -0.111954    1.097018
     10          1           0        2.932377   -1.032976    0.299141
     11          1           0        1.552046   -0.541559   -1.491445
     12          1           0        1.550963    1.916107   -0.021535
     13          1           0        0.577389    1.636125   -1.472179
     14          1           0       -0.660944    2.161030    0.936702
     15          1           0       -2.815056   -0.601786    0.454306
     16          1           0       -1.304155   -2.463900   -0.392583
     17          1           0       -0.922132   -1.304223   -1.689993
     18          1           0        0.764353   -1.903964    0.735825
     19          1           0       -0.590388   -0.167225    2.182705
 ---------------------------------------------------------------------

 SCF Done:  E(RB3LYP) =  -423.163738339     A.U. after    1 cycles

 The electronic state is 1-A.
 Alpha  occ. eigenvalues --  -19.13438 -19.12578 -10.23077 -10.22887 -10.22848
 Alpha  occ. eigenvalues --  -10.18809 -10.18504 -10.18143 -10.17408  -1.03531
 Alpha  occ. eigenvalues --   -1.01519  -0.83385  -0.76907  -0.69355  -0.65435
 Alpha  occ. eigenvalues --   -0.62734  -0.55544  -0.52649  -0.51796  -0.50048
 Alpha  occ. eigenvalues --   -0.48042  -0.44217  -0.42919  -0.40668  -0.39459
 Alpha  occ. eigenvalues --   -0.37711  -0.35522  -0.34466  -0.33368  -0.31580
 Alpha  occ. eigenvalues --   -0.29314  -0.28550  -0.25987  -0.23946
 Alpha virt. eigenvalues --    0.06858   0.07444   0.09412   0.11676   0.12984
 Alpha virt. eigenvalues --    0.13596   0.13958   0.15181   0.16612   0.17736
 Alpha virt. eigenvalues --    0.18645   0.19162   0.19960   0.20903   0.22061

 Mulliken charges:
               1
     1  O   -0.443560
     2  C    0.118913
     3  C   -0.236165
     4  C    0.118422
     5  O   -0.315283
     6  C    0.119079
     7  C   -0.263203
     8  C   -0.053940
     9  C   -0.105090
    10  H    0.278037
    11  H    0.065667
    12  H    0.117910
    13  H    0.113360
    14  H    0.075641
    15  H    0.073923
    16  H    0.099626
    17  H    0.103692
    18  H    0.059762
    19  H    0.073212
 Sum of Mulliken charges =   0.00000

 Dipole moment (field-independent basis, Debye):
    X=              0.5239    Y=             -1.9917    Z=              0.5793  Tot=              2.1393
 Quadrupole moment (field-independent basis, Debye-Ang):
   XX=            -56.1572   YY=            -50.1929   ZZ=            -52.5837
   XY=             -0.9690   XZ=             -2.7938   YZ=              0.6169

  Exact polarizability:  78.778   2.143  76.004  -0.272   1.271  65.279
 Approx polarizability: 108.937   1.390 109.586   3.523   0.597 100.824

                      1                      2                      3
                      A                      A                      A
 Frequencies --     27.7457               221.7632               305.9912
 Red. masses --      3.0584                 3.3968                 3.3516
 Frc consts  --      0.0014                 0.0984                 0.1849
 IR Inten    --      1.0959                 0.5595                 4.7043

                      4                      5                      6
                      A                      A                      A
 Frequencies --    329.4642               385.8036               402.0333
 Red. masses --      1.1137                 3.1372                 2.8073
 Frc consts  --      0.0712                 0.2751                 0.2673
 IR Inten    --    101.3214                 7.7567                 3.5703

                      7                      8                      9
                      A                      A                      A
 Frequencies --    457.9892               653.6496               674.0613
 Red. masses --      2.4155                 4.7273                 3.8735
 Frc consts  --      0.2985                 1.1900                 1.0369
 IR Inten    --     14.1283                 2.8123                 0.8857

                     10                     11                     12
                      A                      A                      A
 Frequencies --    725.3717               787.3164               820.2553
 Red. masses --      4.0088                 2.2727                 2.3325
 Frc consts  --      1.2428                 0.8300                 0.9246
 IR Inten    --      0.3828                 2.7311                 7.8756

                     13                     14                     15
                      A                      A                      A
 Frequencies --    830.5519               872.3674               883.6033
 Red. masses --      2.2465                 2.3383                 1.8912
 Frc consts  --      0.9130                 1.0485                 0.8700
 IR Inten    --     20.5881                11.4689                 4.0581

                     16                     17                     18
                      A                      A                      A
 Frequencies --    914.9876               942.5864               960.1288
 Red. masses --      2.2060                 2.7812                 2.4911
 Frc consts  --      1.0881                 1.4559                 1.3530
 IR Inten    --      5.8245                 1.7020                 6.7893

                     19                     20                     21
                      A                      A                      A
 Frequencies --    984.2821               998.2900              1034.2436
 Red. masses --      2.2929                 3.6731                 2.3770
 Frc consts  --      1.3088                 2.1567                 1.4981
 IR Inten    --     30.1322                18.3035                22.8414

                     22                     23                     24
                      A                      A                      A
 Frequencies --   1046.6762              1072.5655              1087.5889
 Red. masses --      2.2810                 1.9885                 3.0325
 Frc consts  --      1.4723                 1.3478                 2.1134
 IR Inten    --     19.4572                 4.5081                67.0248

                     25                     26                     27
                      A                      A                      A
 Frequencies --   1140.4006              1164.4424              1183.3212
 Red. masses --      1.2592                 1.7869                 1.3093
 Frc consts  --      0.9649                 1.4276                 1.0802
 IR Inten    --     10.2206                 1.3725                 7.3789

                     28                     29                     30
                      A                      A                      A
 Frequencies --   1192.4400              1215.8760              1241.0745
 Red. masses --      2.2270                 1.4732                 1.4257
 Frc consts  --      1.8657                 1.2832                 1.2939
 IR Inten    --     17.1922                 2.5143                23.3663

                     31                     32                     33
                      A                      A                      A
 Frequencies --   1257.4514              1271.9754              1283.9857
 Red. masses --      1.3568                 1.5313                 1.6638
 Frc consts  --      1.2640                 1.4597                 1.6161
 IR Inten    --      2.4960                22.2310                13.5790

                     34                     35                     36
                      A                      A                      A
 Frequencies --   1296.2540              1305.4541              1342.4458
 Red. masses --      1.2940                 1.3092                 1.5918
 Frc consts  --      1.2810                 1.3145                 1.6902
 IR Inten    --      0.8231                 2.8678                 5.4873

                     37                     38                     39
                      A                      A                      A
 Frequencies --   1349.9395              1355.4510              1421.9555
 Red. masses --      1.3593                 1.4941                 1.4214
 Frc consts  --      1.4595                 1.6173                 1.6933
 IR Inten    --      3.0140                34.3633                 7.6399

                     40                     41                     42
                      A                      A                      A
 Frequencies --   1461.6817              1465.9345              2987.1639
 Red. masses --      1.1099                 1.1028                 1.0848
 Frc consts  --      1.3972                 1.3963                 5.7030
 IR Inten    --      7.6711                 2.8193                53.6673

                     43                     44                     45
                      A                      A                      A
 Frequencies --   3049.1988              3052.8292              3068.9422
 Red. masses --      1.0591                 1.0824                 1.0671
 Frc consts  --      5.8019                 5.9433                 5.9215
 IR Inten    --     25.2966                38.4779                44.9361

                     46                     47                     48
                      A                      A                      A
 Frequencies --   3075.0549              3080.8931              3108.2325
 Red. masses --      1.0862                 1.0896                 1.1067
 Frc consts  --      6.0513                 6.0937                 6.2998
 IR Inten    --     36.6502                52.1115                24.7623

                     49                     50                     51
                      A                      A                      A
 Frequencies --   3116.2522              3144.2778              3813.2655
 Red. masses --      1.1047                 1.0923                 1.0660
 Frc consts  --      6.3205                 6.3626                 9.1325
 IR Inten    --     11.4532                29.0779                15.5597

 - Thermochemistry -
 -------------------
 Temperature   298.150 Kelvin.  Pressure   1.00000 Atm.
 Atom     1 has atomic number  8 and mass  15.99491

 Molecular mass:   126.06808 amu.
 Principal axes and moments of inertia in atomic units:
                           1         2         3
     Eigenvalues --   577.560261100.062021356.62979
           X            0.99965   0.02298  -0.01282
           Y           -0.02278   0.99961   0.01612
           Z            0.01318  -0.01582   0.99979
 This molecule is an asymmetric top.
 Rotational symmetry number  1.
 Warning -- assumption of classical behavior for rotation
           may cause significant error
 Rotational temperatures (Kelvin)      0.14996     0.07874     0.06384
 Rotational constants (GHZ):           3.12477     1.64058     1.33031
 Zero-point vibrational energy     423869.9 (Joules/Mol)
                                  101.30733 (Kcal/Mol)
 Warning -- explicit consideration of   7 degrees of freedom as
           vibrations may cause significant error
 Vibrational temperatures:     39.92   319.07   440.25   474.02   555.08
          (Kelvin)            578.44   658.94   940.45   969.82  1043.65
                             1132.77  1180.16  1194.98  1255.14  1271.31
                             1316.46  1356.17  1381.41  1416.16  1436.31
                             1488.04  1505.93  1543.18  1564.80  1640.78
                             1675.37  1702.53  1715.65  1749.37  1785.63
                             1809.19  1830.09  1847.37  1865.02  1878.25
                             1931.48  1942.26  1950.19  2045.87  2103.03
                             2109.15  4297.86  4387.11  4392.33  4415.52
                             4424.31  4432.71  4472.05  4483.59  4523.91
                             5486.43

 Zero-point correction=                           0.161444 (Hartree/Particle)
 Thermal correction to Energy=                    0.168617
 Thermal correction to Enthalpy=                  0.169561
 Thermal correction to Gibbs Free Energy=         0.129071
 Sum of electronic and zero-point Energies=           -423.002295
 Sum of electronic and thermal Energies=              -422.995121
 Sum of electronic and thermal Enthalpies=            -422.994177
 Sum of electronic and thermal Free Energies=         -423.034668

                     E (Thermal)             CV                S
                      KCal/Mol        Cal/Mol-Kelvin    Cal/Mol-Kelvin
 Total                  105.809             28.970             85.220
 Electronic               0.000              0.000              0.000
 Translational            0.889              2.981             40.409
 Rotational               0.889              2.981             28.246
 Vibrational            104.031             23.009             16.565
 Vibration     1          0.593              1.984              5.984
 Vibration     2          0.648              1.808              1.945
 Vibration     3          0.696              1.662              1.384
 Vibration     4          0.712              1.617              1.263
 Vibration     5          0.754              1.500              1.016
 Vibration     6          0.768              1.466              0.955
 Vibration     7          0.816              1.343              0.772

 Normal termination of Gaussian 09 at Tue Jan 28 04:29:43 2020.
