 Gaussian 09, Revision D.01,
 Gaussian 09:  ES64L-G09RevD.01 24-Apr-2013

 -----------------------------
 # b3lyp 6-31G(2df,p) opt Freq
 -----------------------------

 -----
 titel
 -----
 Symbolic Z-matrix:
 Charge =  0 Multiplicity = 1

 SCF Done:  E(RB3LYP) =  -423.218371782     A.U. after   14 cycles
 Optimization completed.
    -- Stationary point found.
 Normal termination of Gaussian 09 at Tue Jan 28 00:49:43 2020.

 ----------------------------------------------------------------------
 #N Geom=AllCheck Guess=TCheck SCRF=Check GenChk RB3LYP/6-31G(2df,p) Fr
 eq
 ----------------------------------------------------------------------

 Structure from the checkpoint file:  "/scratch/puck/g09_d45c3cfc-c2e4-4f01-b160-38e66310c988/Gau-38631.chk"
 -----
 titel
 -----
 Charge =  0 Multiplicity = 1

                         Standard orientation:
 ---------------------------------------------------------------------
 Center     Atomic      Atomic             Coordinates (Angstroms)
 Number     Number       Type             X           Y           Z
 ---------------------------------------------------------------------
      1          6           0        0.485072    2.464519   -0.222521
      2          6           0       -0.001367    1.084886    0.084788
      3          6           0        0.683573   -0.077635    0.104496
      4          6           0       -0.196456   -1.247158    0.485237
      5          6           0       -1.625195   -0.685085    0.360785
      6          8           0       -2.103320   -1.063206   -0.924817
      7          6           0       -1.445136    0.850156    0.468358
      8          6           0        2.108137   -0.255820   -0.165562
      9          8           0        2.678885   -1.324745   -0.087896
     10          1           0       -0.067285    2.880260   -1.074664
     11          1           0        0.294850    3.135735    0.624689
     12          1           0        1.550145    2.505486   -0.455350
     13          1           0       -0.062408   -2.111097   -0.170307
     14          1           0        0.019602   -1.583655    1.506332
     15          1           0       -2.290764   -1.072095    1.143807
     16          1           0       -2.993761   -0.712318   -1.027454
     17          1           0       -2.150008    1.390265   -0.176628
     18          1           0       -1.624022    1.208203    1.493052
     19          1           0        2.667362    0.659644   -0.455258
 ---------------------------------------------------------------------

 SCF Done:  E(RB3LYP) =  -423.218371782     A.U. after    1 cycles

 The electronic state is 1-A.
 Alpha  occ. eigenvalues --  -19.13798 -19.12304 -10.25678 -10.23861 -10.21412
 Alpha  occ. eigenvalues --  -10.19855 -10.19575 -10.18764 -10.18127  -1.02781
 Alpha  occ. eigenvalues --   -1.02125  -0.85635  -0.75844  -0.73075  -0.68151
 Alpha  occ. eigenvalues --   -0.61434  -0.58123  -0.52041  -0.51095  -0.48897
 Alpha  occ. eigenvalues --   -0.45359  -0.45010  -0.41860  -0.41375  -0.40509
 Alpha  occ. eigenvalues --   -0.39806  -0.37402  -0.36844  -0.36473  -0.35745
 Alpha  occ. eigenvalues --   -0.32339  -0.27139  -0.25048  -0.24172
 Alpha virt. eigenvalues --   -0.04906   0.06646   0.07502   0.08866   0.11271
 Alpha virt. eigenvalues --    0.12318   0.13113   0.15479   0.16193   0.17237
 Alpha virt. eigenvalues --    0.17692   0.17918   0.19899   0.20893   0.24266

 Mulliken charges:
               1
     1  C   -0.503877
     2  C    0.239494
     3  C    0.157558
     4  C   -0.306501
     5  C    0.106806
     6  O   -0.435533
     7  C   -0.322557
     8  C    0.055198
     9  O   -0.274762
    10  H    0.138908
    11  H    0.136038
    12  H    0.137972
    13  H    0.137213
    14  H    0.112824
    15  H    0.064897
    16  H    0.280338
    17  H    0.100834
    18  H    0.114371
    19  H    0.060780
 Sum of Mulliken charges =   0.00000

 Dipole moment (field-independent basis, Debye):
    X=             -3.2657    Y=              3.5041    Z=              0.9117  Tot=              4.8759
 Quadrupole moment (field-independent basis, Debye-Ang):
   XX=            -54.2340   YY=            -54.4599   ZZ=            -53.0321
   XY=              4.5638   XZ=             -0.6054   YZ=             -1.9467

  Exact polarizability:  93.808 -10.966  93.606  -3.221  -2.628  58.119
 Approx polarizability: 136.253 -35.215 149.751  -3.440  -1.979  90.458

                      1                      2                      3
                      A                      A                      A
 Frequencies --     82.1559               110.5022               151.7143
 Red. masses --      3.9272                 3.4109                 1.4095
 Frc consts  --      0.0156                 0.0245                 0.0191
 IR Inten    --      0.1658                 1.5220                 0.4373

                      4                      5                      6
                      A                      A                      A
 Frequencies --    187.5470               198.9502               297.8978
 Red. masses --      1.6456                 4.5138                 1.7105
 Frc consts  --      0.0341                 0.1053                 0.0894
 IR Inten    --      2.9621                 5.3654                40.9770

                      7                      8                      9
                      A                      A                      A
 Frequencies --    305.5951               326.5278               387.8254
 Red. masses --      1.7162                 1.8263                 2.5756
 Frc consts  --      0.0944                 0.1147                 0.2282
 IR Inten    --     48.0322                26.3532                 8.7332

                     10                     11                     12
                      A                      A                      A
 Frequencies --    430.6478               498.3424               524.1310
 Red. masses --      2.7340                 2.3593                 4.3977
 Frc consts  --      0.2987                 0.3452                 0.7118
 IR Inten    --     13.7886                 0.6271                 0.9871

                     13                     14                     15
                      A                      A                      A
 Frequencies --    601.0628               734.0652               810.2067
 Red. masses --      4.1811                 4.1767                 4.6780
 Frc consts  --      0.8900                 1.3260                 1.8093
 IR Inten    --      4.4432                12.0001                 9.5332

                     16                     17                     18
                      A                      A                      A
 Frequencies --    847.4706               895.5058               927.4281
 Red. masses --      2.3368                 1.9088                 2.0246
 Frc consts  --      0.9888                 0.9019                 1.0260
 IR Inten    --      3.6441                 3.5302                 3.6709

                     19                     20                     21
                      A                      A                      A
 Frequencies --    938.6436               998.9220              1018.4343
 Red. masses --      1.9591                 1.7597                 1.9747
 Frc consts  --      1.0169                 1.0346                 1.2067
 IR Inten    --     13.1097                33.6100                 0.9752

                     22                     23                     24
                      A                      A                      A
 Frequencies --   1047.9812              1067.9568              1091.4466
 Red. masses --      1.8411                 1.9797                 2.0295
 Frc consts  --      1.1913                 1.3303                 1.4244
 IR Inten    --      0.8818                 1.9673                18.5247

                     25                     26                     27
                      A                      A                      A
 Frequencies --   1166.0707              1204.0776              1212.0403
 Red. masses --      1.2042                 2.9284                 1.2505
 Frc consts  --      0.9647                 2.5015                 1.0823
 IR Inten    --      2.4901                12.4771                28.3006

                     28                     29                     30
                      A                      A                      A
 Frequencies --   1226.9517              1264.8134              1311.9620
 Red. masses --      1.5185                 1.5400                 1.8662
 Frc consts  --      1.3469                 1.4515                 1.8925
 IR Inten    --     28.5756                53.1297                23.3091

                     31                     32                     33
                      A                      A                      A
 Frequencies --   1336.5302              1379.5342              1409.9325
 Red. masses --      1.6795                 1.9784                 1.4125
 Frc consts  --      1.7676                 2.2183                 1.6543
 IR Inten    --     29.0456                11.9106                 9.6758

                     34                     35                     36
                      A                      A                      A
 Frequencies --   1421.9590              1432.0388              1455.4559
 Red. masses --      1.4185                 1.2424                 1.0923
 Frc consts  --      1.6898                 1.5012                 1.3633
 IR Inten    --     11.9024                 6.2686                 3.5046

                     37                     38                     39
                      A                      A                      A
 Frequencies --   1474.1694              1477.8533              1482.8167
 Red. masses --      1.1183                 1.0455                 1.0752
 Frc consts  --      1.4319                 1.3453                 1.3929
 IR Inten    --      0.5673                 7.1051                13.0342

                     40                     41                     42
                      A                      A                      A
 Frequencies --   1692.2089              1769.9115              2893.1087
 Red. masses --      6.8085                10.2300                 1.0813
 Frc consts  --     11.4871                18.8811                 5.3326
 IR Inten    --     60.0111               260.6484               111.7361

                     43                     44                     45
                      A                      A                      A
 Frequencies --   2998.0992              3013.0454              3023.3662
 Red. masses --      1.0710                 1.0761                 1.0415
 Frc consts  --      5.6719                 5.7560                 5.6092
 IR Inten    --     17.6594                60.0842                25.2310

                     46                     47                     48
                      A                      A                      A
 Frequencies --   3043.5964              3046.2145              3067.4069
 Red. masses --      1.0697                 1.0969                 1.0979
 Frc consts  --      5.8383                 5.9969                 6.0862
 IR Inten    --     33.5327                23.3832                13.8349

                     49                     50                     51
                      A                      A                      A
 Frequencies --   3105.1474              3133.9938              3814.2401
 Red. masses --      1.0944                 1.0967                 1.0661
 Frc consts  --      6.2169                 6.3467                 9.1385
 IR Inten    --      5.6501                15.2067                17.8396

 - Thermochemistry -
 -------------------
 Temperature   298.150 Kelvin.  Pressure   1.00000 Atm.
 Atom     1 has atomic number  6 and mass  12.00000

 Molecular mass:   126.06808 amu.
 Principal axes and moments of inertia in atomic units:
                           1         2         3
     Eigenvalues --   837.185691309.756891926.99910
           X            0.99899   0.04359  -0.01098
           Y           -0.04380   0.99884  -0.02023
           Z            0.01008   0.02069   0.99974
 This molecule is an asymmetric top.
 Rotational symmetry number  1.
 Warning -- assumption of classical behavior for rotation
           may cause significant error
 Rotational temperatures (Kelvin)      0.10346     0.06613     0.04495
 Rotational constants (GHZ):           2.15572     1.37792     0.93656
 Zero-point vibrational energy     414730.4 (Joules/Mol)
                                   99.12294 (Kcal/Mol)
 Warning -- explicit consideration of  13 degrees of freedom as
           vibrations may cause significant error
 Vibrational temperatures:    118.20   158.99   218.28   269.84   286.24
          (Kelvin)            428.61   439.68   469.80   557.99   619.61
                              717.00   754.11   864.79  1056.15  1165.71
                             1219.32  1288.43  1334.36  1350.50  1437.22
                             1465.30  1507.81  1536.55  1570.35  1677.71
                             1732.40  1743.85  1765.31  1819.78  1887.62
                             1922.97  1984.84  2028.58  2045.88  2060.38
                             2094.07  2121.00  2126.30  2133.44  2434.71
                             2546.50  4162.53  4313.59  4335.09  4349.94
                             4379.05  4382.82  4413.31  4467.61  4509.11
                             5487.83

 Zero-point correction=                           0.157962 (Hartree/Particle)
 Thermal correction to Energy=                    0.167181
 Thermal correction to Enthalpy=                  0.168126
 Thermal correction to Gibbs Free Energy=         0.123865
 Sum of electronic and zero-point Energies=           -423.060409
 Sum of electronic and thermal Energies=              -423.051190
 Sum of electronic and thermal Enthalpies=            -423.050246
 Sum of electronic and thermal Free Energies=         -423.094506

                     E (Thermal)             CV                S
                      KCal/Mol        Cal/Mol-Kelvin    Cal/Mol-Kelvin
 Total                  104.908             33.921             93.153
 Electronic               0.000              0.000              0.000
 Translational            0.889              2.981             40.409
 Rotational               0.889              2.981             29.137
 Vibrational            103.130             27.959             23.608
 Vibration     1          0.600              1.961              3.839
 Vibration     2          0.606              1.941              3.260
 Vibration     3          0.619              1.901              2.651
 Vibration     4          0.632              1.857              2.252
 Vibration     5          0.637              1.841              2.143
 Vibration     6          0.691              1.678              1.429
 Vibration     7          0.696              1.663              1.386
 Vibration     8          0.710              1.622              1.277
 Vibration     9          0.756              1.496              1.008
 Vibration    10          0.792              1.403              0.857
 Vibration    11          0.854              1.254              0.662
 Vibration    12          0.879              1.197              0.600
 Vibration    13          0.959              1.030              0.448

 Normal termination of Gaussian 09 at Tue Jan 28 02:52:11 2020.
