 Gaussian 09, Revision D.01,
 Gaussian 09:  ES64L-G09RevD.01 24-Apr-2013

 -----------------------------
 # b3lyp 6-31G(2df,p) opt Freq
 -----------------------------

 -----
 titel
 -----
 Symbolic Z-matrix:
 Charge =  0 Multiplicity = 1

 SCF Done:  E(RB3LYP) =  -423.122181499     A.U. after   14 cycles
 SCF Done:  E(RB3LYP) =  -423.122181503     A.U. after    6 cycles
 Optimization completed.
    -- Stationary point found.
 Normal termination of Gaussian 09 at Tue Jan 28 13:31:52 2020.

 ----------------------------------------------------------------------
 #N Geom=AllCheck Guess=TCheck SCRF=Check GenChk RB3LYP/6-31G(2df,p) Fr
 eq
 ----------------------------------------------------------------------

 Structure from the checkpoint file:  "/scratch/puck/g09_94de3cab-ab2a-4154-8791-f6e4a742d1fa/Gau-31942.chk"
 -----
 titel
 -----
 Charge =  0 Multiplicity = 1

                         Standard orientation:
 ---------------------------------------------------------------------
 Center     Atomic      Atomic             Coordinates (Angstroms)
 Number     Number       Type             X           Y           Z
 ---------------------------------------------------------------------
      1          6           0       -3.585674    0.316839   -0.181154
      2          6           0       -2.237855    0.712053    0.433535
      3          6           0       -1.073922    0.094914   -0.302069
      4          8           0       -0.832763   -1.303773   -0.075345
      5          6           0        0.142384   -0.368248    0.374150
      6          6           0        1.489478   -0.416511   -0.331426
      7          8           0        2.279503   -1.512269    0.114717
      8          6           0        2.188297    0.863595   -0.176967
      9          6           0        2.761633    1.903774    0.009085
     10          1           0       -3.659082    0.647942   -1.222834
     11          1           0       -3.711141   -0.769778   -0.164821
     12          1           0       -4.416575    0.765184    0.371065
     13          1           0       -2.120577    1.803282    0.418481
     14          1           0       -2.197889    0.399809    1.483007
     15          1           0       -0.983592    0.382770   -1.352523
     16          1           0        0.207428   -0.259316    1.459027
     17          1           0        1.301734   -0.614884   -1.392815
     18          1           0        2.625679   -1.288820    0.986001
     19          1           0        3.274056    2.823654    0.149518
 ---------------------------------------------------------------------

 SCF Done:  E(RB3LYP) =  -423.122181503     A.U. after    1 cycles

 The electronic state is 1-A.
 Alpha  occ. eigenvalues --  -19.15170 -19.14703 -10.26388 -10.24075 -10.23984
 Alpha  occ. eigenvalues --  -10.19187 -10.19115 -10.18775 -10.17831  -1.07468
 Alpha  occ. eigenvalues --   -1.02965  -0.78361  -0.78045  -0.72096  -0.67019
 Alpha  occ. eigenvalues --   -0.62040  -0.59055  -0.55973  -0.51349  -0.50311
 Alpha  occ. eigenvalues --   -0.49209  -0.44984  -0.44005  -0.41123  -0.39066
 Alpha  occ. eigenvalues --   -0.38361  -0.36824  -0.35532  -0.34512  -0.31146
 Alpha  occ. eigenvalues --   -0.29530  -0.28344  -0.27565  -0.26091
 Alpha virt. eigenvalues --    0.02488   0.03850   0.08939   0.09764   0.10992
 Alpha virt. eigenvalues --    0.11837   0.11906   0.13447   0.14377   0.15114
 Alpha virt. eigenvalues --    0.16228   0.17179   0.17861   0.19808   0.21466

 Mulliken charges:
               1
     1  C   -0.376684
     2  C   -0.216707
     3  C    0.084987
     4  O   -0.254247
     5  C    0.031244
     6  C   -0.073018
     7  O   -0.409406
     8  C    0.294406
     9  C   -0.458963
    10  H    0.116472
    11  H    0.136191
    12  H    0.115589
    13  H    0.105675
    14  H    0.105810
    15  H    0.089287
    16  H    0.092526
    17  H    0.126098
    18  H    0.286415
    19  H    0.204325
 Sum of Mulliken charges =   0.00000

 Dipole moment (field-independent basis, Debye):
    X=             -0.1593    Y=              2.6906    Z=              1.0236  Tot=              2.8831
 Quadrupole moment (field-independent basis, Debye-Ang):
   XX=            -51.1666   YY=            -55.7254   ZZ=            -50.2054
   XY=              2.0017   XZ=              3.3345   YZ=             -1.1186

  Exact polarizability:  93.161   6.714  79.112   4.349   0.772  62.129
 Approx polarizability: 111.997  15.087 131.317   8.797   3.609  94.900

                      1                      2                      3
                      A                      A                      A
 Frequencies --     48.8705                84.9815                99.2611
 Red. masses --      3.0904                 4.3059                 2.8338
 Frc consts  --      0.0043                 0.0183                 0.0165
 IR Inten    --      0.1938                 0.2146                 0.2431

                      4                      5                      6
                      A                      A                      A
 Frequencies --    141.3267               193.5244               213.5827
 Red. masses --      3.3635                 1.9863                 1.7640
 Frc consts  --      0.0396                 0.0438                 0.0474
 IR Inten    --      1.5045                10.0639                15.9136

                      7                      8                      9
                      A                      A                      A
 Frequencies --    245.3521               268.8746               321.1102
 Red. masses --      1.7403                 1.5270                 5.1353
 Frc consts  --      0.0617                 0.0650                 0.3120
 IR Inten    --      1.2195                70.7999                 9.8869

                     10                     11                     12
                      A                      A                      A
 Frequencies --    382.3034               421.0741               523.1078
 Red. masses --      3.4572                 2.8000                 5.7616
 Frc consts  --      0.2977                 0.2925                 0.9289
 IR Inten    --     16.7131                 4.2658                 3.0147

                     13                     14                     15
                      A                      A                      A
 Frequencies --    548.6193               594.9265               647.0714
 Red. masses --      4.2285                 4.2766                 1.2433
 Frc consts  --      0.7499                 0.8918                 0.3067
 IR Inten    --     23.7391                 4.2397                44.8729

                     16                     17                     18
                      A                      A                      A
 Frequencies --    677.6179               757.8030               836.0751
 Red. masses --      1.2558                 1.7014                 2.0994
 Frc consts  --      0.3397                 0.5757                 0.8646
 IR Inten    --     34.8976                 1.9432                 8.8362

                     19                     20                     21
                      A                      A                      A
 Frequencies --    917.5118               926.5711               949.5907
 Red. masses --      2.4048                 3.6696                 3.1399
 Frc consts  --      1.1927                 1.8562                 1.6682
 IR Inten    --     35.5660                38.9073                34.9839

                     22                     23                     24
                      A                      A                      A
 Frequencies --   1018.5771              1040.2235              1073.3626
 Red. masses --      2.3183                 2.6120                 2.0152
 Frc consts  --      1.4171                 1.6652                 1.3679
 IR Inten    --     12.4714                33.8189                52.9440

                     25                     26                     27
                      A                      A                      A
 Frequencies --   1099.6534              1118.0759              1154.7029
 Red. masses --      1.7087                 3.0698                 1.6100
 Frc consts  --      1.2174                 2.2610                 1.2648
 IR Inten    --     16.3478                 6.9986                 3.4116

                     28                     29                     30
                      A                      A                      A
 Frequencies --   1176.1538              1254.2133              1273.2644
 Red. masses --      1.8722                 1.2392                 1.3182
 Frc consts  --      1.5259                 1.1485                 1.2592
 IR Inten    --      1.8205                12.1104                14.6365

                     31                     32                     33
                      A                      A                      A
 Frequencies --   1278.5163              1293.2058              1339.6335
 Red. masses --      1.4419                 1.2110                 1.3084
 Frc consts  --      1.3887                 1.1932                 1.3835
 IR Inten    --      7.9383                 1.5301                 9.9789

                     34                     35                     36
                      A                      A                      A
 Frequencies --   1391.0107              1409.2917              1416.7082
 Red. masses --      1.3532                 1.2369                 1.1896
 Frc consts  --      1.5426                 1.4474                 1.4068
 IR Inten    --      2.8732                 1.4050                58.5604

                     37                     38                     39
                      A                      A                      A
 Frequencies --   1473.0382              1495.4123              1500.0238
 Red. masses --      1.0805                 1.4605                 1.3020
 Frc consts  --      1.3814                 1.9243                 1.7261
 IR Inten    --      1.3733                 0.5084                 9.6635

                     40                     41                     42
                      A                      A                      A
 Frequencies --   1510.6717              2232.1588              3028.2151
 Red. masses --      1.2799                 5.8996                 1.0612
 Frc consts  --      1.7210                17.3190                 5.7333
 IR Inten    --      8.2330                 1.7301                17.4794

                     43                     44                     45
                      A                      A                      A
 Frequencies --   3037.2584              3053.2169              3065.9700
 Red. masses --      1.0360                 1.0831                 1.0954
 Frc consts  --      5.6306                 5.9490                 6.0669
 IR Inten    --     26.0237                 4.4471                 1.7535

                     46                     47                     48
                      A                      A                      A
 Frequencies --   3081.8051              3091.3225              3106.4781
 Red. masses --      1.0918                 1.0870                 1.1006
 Frc consts  --      6.1096                 6.1204                 6.2577
 IR Inten    --      7.8300                38.1653                47.4505

                     49                     50                     51
                      A                      A                      A
 Frequencies --   3117.8664              3501.5764              3806.3265
 Red. masses --      1.1025                 1.1627                 1.0662
 Frc consts  --      6.3143                 8.3991                 9.1016
 IR Inten    --     25.1830                63.6566                26.8027

 - Thermochemistry -
 -------------------
 Temperature   298.150 Kelvin.  Pressure   1.00000 Atm.
 Atom     1 has atomic number  6 and mass  12.00000

 Molecular mass:   126.06808 amu.
 Principal axes and moments of inertia in atomic units:
                           1         2         3
     Eigenvalues --   574.761742117.308662560.50863
           X            0.99996  -0.00752   0.00382
           Y            0.00752   0.99997   0.00070
           Z           -0.00383  -0.00067   0.99999
 This molecule is an asymmetric top.
 Rotational symmetry number  1.
 Warning -- assumption of classical behavior for rotation
           may cause significant error
 Rotational temperatures (Kelvin)      0.15070     0.04091     0.03383
 Rotational constants (GHZ):           3.13998     0.85238     0.70484
 Zero-point vibrational energy     408148.4 (Joules/Mol)
                                   97.54982 (Kcal/Mol)
 Warning -- explicit consideration of  14 degrees of freedom as
           vibrations may cause significant error
 Vibrational temperatures:     70.31   122.27   142.81   203.34   278.44
          (Kelvin)            307.30   353.01   386.85   462.01   550.05
                              605.83   752.63   789.34   855.97   930.99
                              974.94  1090.31  1202.92  1320.09  1333.13
                             1366.25  1465.50  1496.65  1544.33  1582.15
                             1608.66  1661.36  1692.22  1804.53  1831.94
                             1839.50  1860.63  1927.43  2001.35  2027.65
                             2038.32  2119.37  2151.56  2158.20  2173.52
                             3211.57  4356.92  4369.93  4392.89  4411.24
                             4434.02  4447.72  4469.52  4485.91  5037.98
                             5476.45

 Zero-point correction=                           0.155456 (Hartree/Particle)
 Thermal correction to Energy=                    0.165763
 Thermal correction to Enthalpy=                  0.166707
 Thermal correction to Gibbs Free Energy=         0.119466
 Sum of electronic and zero-point Energies=           -422.966726
 Sum of electronic and thermal Energies=              -422.956418
 Sum of electronic and thermal Enthalpies=            -422.955474
 Sum of electronic and thermal Free Energies=         -423.002715

                     E (Thermal)             CV                S
                      KCal/Mol        Cal/Mol-Kelvin    Cal/Mol-Kelvin
 Total                  104.018             36.775             99.428
 Electronic               0.000              0.000              0.000
 Translational            0.889              2.981             40.409
 Rotational               0.889              2.981             29.523
 Vibrational            102.241             30.814             29.496
 Vibration     1          0.595              1.978              4.863
 Vibration     2          0.601              1.960              3.772
 Vibration     3          0.604              1.950              3.469
 Vibration     4          0.615              1.912              2.786
 Vibration     5          0.635              1.849              2.194
 Vibration     6          0.644              1.820              2.013
 Vibration     7          0.660              1.770              1.764
 Vibration     8          0.673              1.730              1.603
 Vibration     9          0.707              1.633              1.304
 Vibration    10          0.752              1.508              1.030
 Vibration    11          0.784              1.424              0.888
 Vibration    12          0.878              1.199              0.603
 Vibration    13          0.904              1.143              0.547
 Vibration    14          0.953              1.043              0.458

 Optimization completed.
    -- Stationary point found.
 Normal termination of Gaussian 09 at Tue Jan 28 14:07:07 2020.
