 Gaussian 09, Revision D.01,
 Gaussian 09:  ES64L-G09RevD.01 24-Apr-2013

 -----------------------------
 # b3lyp 6-31G(2df,p) opt Freq
 -----------------------------

 -----
 titel
 -----
 Symbolic Z-matrix:
 Charge =  0 Multiplicity = 1

 SCF Done:  E(RB3LYP) =  -423.125438908     A.U. after   13 cycles
 Optimization completed.
    -- Stationary point found.
 Normal termination of Gaussian 09 at Tue Jan 28 02:52:53 2020.

 ----------------------------------------------------------------------
 #N Geom=AllCheck Guess=TCheck SCRF=Check GenChk RB3LYP/6-31G(2df,p) Fr
 eq
 ----------------------------------------------------------------------

 Structure from the checkpoint file:  "/scratch/puck/g09_caac709d-0717-4bce-8320-0dda47ba39f8/Gau-6214.chk"
 -----
 titel
 -----
 Charge =  0 Multiplicity = 1

                         Standard orientation:
 ---------------------------------------------------------------------
 Center     Atomic      Atomic             Coordinates (Angstroms)
 Number     Number       Type             X           Y           Z
 ---------------------------------------------------------------------
      1          8           0       -3.125486   -0.393683    0.117441
      2          6           0       -1.915168    0.192892   -0.297784
      3          6           0       -0.811842   -0.826645   -0.642748
      4          6           0        0.211415    0.099529    0.059652
      5          6           0        1.201760    0.997121   -0.773248
      6          6           0        2.348509    0.418293    0.066165
      7          8           0        2.322693   -1.002684   -0.111460
      8          6           0        1.420496   -0.420282    0.840023
      9          6           0       -0.969402    0.806365    0.775442
     10          1           0       -3.758157    0.308727    0.298629
     11          1           0       -2.077931    0.899062   -1.124722
     12          1           0       -0.970468   -1.749218   -0.076117
     13          1           0       -0.645892   -1.074647   -1.692568
     14          1           0        1.269927    0.797769   -1.846067
     15          1           0        1.036431    2.064969   -0.605562
     16          1           0        3.296269    0.866880    0.340074
     17          1           0        1.464325   -0.790456    1.859084
     18          1           0       -1.174649    0.350311    1.749778
     19          1           0       -0.932124    1.893909    0.884620
 ---------------------------------------------------------------------

 SCF Done:  E(RB3LYP) =  -423.125438908     A.U. after    1 cycles

 The electronic state is 1-A.
 Alpha  occ. eigenvalues --  -19.14666 -19.13645 -10.23457 -10.23242 -10.23053
 Alpha  occ. eigenvalues --  -10.19973 -10.18765 -10.18069 -10.17503  -1.07269
 Alpha  occ. eigenvalues --   -1.01943  -0.84857  -0.76550  -0.66495  -0.65824
 Alpha  occ. eigenvalues --   -0.61950  -0.57978  -0.53478  -0.52267  -0.50196
 Alpha  occ. eigenvalues --   -0.46363  -0.45178  -0.42698  -0.40110  -0.39168
 Alpha  occ. eigenvalues --   -0.38491  -0.38058  -0.33693  -0.32981  -0.31414
 Alpha  occ. eigenvalues --   -0.30115  -0.28252  -0.26227  -0.24671
 Alpha virt. eigenvalues --    0.07280   0.08609   0.10044   0.10193   0.11777
 Alpha virt. eigenvalues --    0.12312   0.14123   0.14784   0.15665   0.16666
 Alpha virt. eigenvalues --    0.17229   0.17909   0.19572   0.20451   0.22127

 Mulliken charges:
               1
     1  O   -0.430839
     2  C    0.148401
     3  C   -0.304706
     4  C    0.367077
     5  C   -0.337895
     6  C    0.040580
     7  O   -0.248663
     8  C   -0.061587
     9  C   -0.350621
    10  H    0.281366
    11  H    0.067774
    12  H    0.114304
    13  H    0.105436
    14  H    0.108939
    15  H    0.104029
    16  H    0.102961
    17  H    0.095454
    18  H    0.105152
    19  H    0.092837
 Sum of Mulliken charges =   0.00000

 Dipole moment (field-independent basis, Debye):
    X=             -0.7753    Y=              2.7605    Z=              0.6922  Tot=              2.9496
 Quadrupole moment (field-independent basis, Debye-Ang):
   XX=            -53.5212   YY=            -54.0323   ZZ=            -51.4448
   XY=             -0.9794   XZ=              0.9236   YZ=             -1.0128

  Exact polarizability:  88.785   1.249  69.268  -1.735  -2.198  67.625
 Approx polarizability: 114.226   0.686 109.479  -5.870  -3.209 102.869

                      1                      2                      3
                      A                      A                      A
 Frequencies --     74.9071               114.2432               241.2117
 Red. masses --      3.7958                 4.0801                 2.5534
 Frc consts  --      0.0125                 0.0314                 0.0875
 IR Inten    --      0.1807                 0.8079                 3.5126

                      4                      5                      6
                      A                      A                      A
 Frequencies --    270.2672               324.9433               344.2799
 Red. masses --      1.1369                 3.0931                 3.0324
 Frc consts  --      0.0489                 0.1924                 0.2118
 IR Inten    --     94.2418                 8.4448                13.8812

                      7                      8                      9
                      A                      A                      A
 Frequencies --    382.0355               438.9686               474.9293
 Red. masses --      4.1393                 2.0699                 1.8665
 Frc consts  --      0.3559                 0.2350                 0.2480
 IR Inten    --      0.6744                 8.0886                 5.1565

                     10                     11                     12
                      A                      A                      A
 Frequencies --    568.7323               699.7242               786.0353
 Red. masses --      4.0903                 3.3992                 3.8200
 Frc consts  --      0.7795                 0.9806                 1.3906
 IR Inten    --      5.8344                 2.4031                 2.9362

                     13                     14                     15
                      A                      A                      A
 Frequencies --    821.7563               845.6710               851.1285
 Red. masses --      1.6680                 1.6590                 2.7284
 Frc consts  --      0.6636                 0.6990                 1.1645
 IR Inten    --      2.4060                 4.7222                 2.9016

                     16                     17                     18
                      A                      A                      A
 Frequencies --    862.2799               894.4929               932.1435
 Red. masses --      2.1093                 2.4736                 2.9403
 Frc consts  --      0.9240                 1.1661                 1.5052
 IR Inten    --     22.9287                 3.5571                 6.5920

                     19                     20                     21
                      A                      A                      A
 Frequencies --    955.3254               978.9537               998.9463
 Red. masses --      2.5106                 2.0229                 2.3143
 Frc consts  --      1.3500                 1.1422                 1.3607
 IR Inten    --      3.1296                27.3405                 5.6571

                     22                     23                     24
                      A                      A                      A
 Frequencies --   1031.6057              1056.4010              1068.9070
 Red. masses --      1.3671                 1.2586                 2.2966
 Frc consts  --      0.8572                 0.8275                 1.5461
 IR Inten    --      5.4161                 2.0610                60.3670

                     25                     26                     27
                      A                      A                      A
 Frequencies --   1108.2225              1150.3469              1173.2626
 Red. masses --      1.9448                 2.0208                 2.1190
 Frc consts  --      1.4073                 1.5756                 1.7186
 IR Inten    --      3.3847                 0.3600                40.2145

                     28                     29                     30
                      A                      A                      A
 Frequencies --   1190.5035              1219.6718              1224.4286
 Red. masses --      1.6747                 1.4086                 1.4223
 Frc consts  --      1.3985                 1.2346                 1.2563
 IR Inten    --      8.9005                 2.3173                13.5083

                     31                     32                     33
                      A                      A                      A
 Frequencies --   1230.1448              1244.4093              1259.5065
 Red. masses --      1.3885                 1.5240                 1.3496
 Frc consts  --      1.2380                 1.3904                 1.2614
 IR Inten    --      3.3496                 8.0423                30.1185

                     34                     35                     36
                      A                      A                      A
 Frequencies --   1275.3570              1312.6427              1326.4379
 Red. masses --      1.5559                 2.7928                 1.4425
 Frc consts  --      1.4910                 2.8352                 1.4953
 IR Inten    --      2.7732                 4.7450                50.0229

                     37                     38                     39
                      A                      A                      A
 Frequencies --   1383.9524              1431.5589              1464.7294
 Red. masses --      3.5702                 1.3917                 1.0925
 Frc consts  --      4.0289                 1.6804                 1.3809
 IR Inten    --     17.9389                 9.3157                 3.3291

                     40                     41                     42
                      A                      A                      A
 Frequencies --   1470.1732              1494.0180              2993.5214
 Red. masses --      1.1247                 1.1564                 1.0848
 Frc consts  --      1.4323                 1.5207                 5.7273
 IR Inten    --      2.6158                 4.3693                43.7688

                     43                     44                     45
                      A                      A                      A
 Frequencies --   3042.5773              3055.4599              3062.6575
 Red. masses --      1.0570                 1.0573                 1.0595
 Frc consts  --      5.7649                 5.8155                 5.8553
 IR Inten    --     32.3663                28.6968                10.5297

                     46                     47                     48
                      A                      A                      A
 Frequencies --   3100.9037              3113.0674              3122.5367
 Red. masses --      1.1083                 1.1084                 1.1071
 Frc consts  --      6.2788                 6.3290                 6.3598
 IR Inten    --     24.8570                17.8795                23.8168

                     49                     50                     51
                      A                      A                      A
 Frequencies --   3169.5536              3190.6247              3814.5820
 Red. masses --      1.0887                 1.0996                 1.0661
 Frc consts  --      6.4441                 6.5953                 9.1397
 IR Inten    --     17.6574                27.6638                20.7103

 - Thermochemistry -
 -------------------
 Temperature   298.150 Kelvin.  Pressure   1.00000 Atm.
 Atom     1 has atomic number  8 and mass  15.99491

 Molecular mass:   126.06808 amu.
 Principal axes and moments of inertia in atomic units:
                           1         2         3
     Eigenvalues --   397.539291774.548471851.30239
           X            0.99999   0.00508   0.00078
           Y           -0.00505   0.99963  -0.02680
           Z           -0.00092   0.02679   0.99964
 This molecule is an asymmetric top.
 Rotational symmetry number  1.
 Rotational temperatures (Kelvin)      0.21787     0.04881     0.04679
 Rotational constants (GHZ):           4.53978     1.01701     0.97485
 Zero-point vibrational energy     416556.1 (Joules/Mol)
                                   99.55929 (Kcal/Mol)
 Warning -- explicit consideration of  10 degrees of freedom as
           vibrations may cause significant error
 Vibrational temperatures:    107.77   164.37   347.05   388.85   467.52
          (Kelvin)            495.34   549.66   631.58   683.32   818.28
                             1006.75  1130.93  1182.32  1216.73  1224.58
                             1240.63  1286.97  1341.14  1374.50  1408.49
                             1437.26  1484.25  1519.92  1537.92  1594.48
                             1655.09  1688.06  1712.87  1754.83  1761.68
                             1769.90  1790.43  1812.15  1834.95  1888.60
                             1908.45  1991.20  2059.69  2107.42  2115.25
                             2149.56  4307.00  4377.58  4396.12  4406.48
                             4461.50  4479.00  4492.63  4560.28  4590.59
                             5488.33

 Zero-point correction=                           0.158658 (Hartree/Particle)
 Thermal correction to Energy=                    0.166711
 Thermal correction to Enthalpy=                  0.167655
 Thermal correction to Gibbs Free Energy=         0.125941
 Sum of electronic and zero-point Energies=           -422.966781
 Sum of electronic and thermal Energies=              -422.958728
 Sum of electronic and thermal Enthalpies=            -422.957784
 Sum of electronic and thermal Free Energies=         -422.999498

                     E (Thermal)             CV                S
                      KCal/Mol        Cal/Mol-Kelvin    Cal/Mol-Kelvin
 Total                  104.613             31.598             87.795
 Electronic               0.000              0.000              0.000
 Translational            0.889              2.981             40.409
 Rotational               0.889              2.981             28.659
 Vibrational            102.835             25.637             18.728
 Vibration     1          0.599              1.966              4.020
 Vibration     2          0.607              1.938              3.196
 Vibration     3          0.658              1.777              1.794
 Vibration     4          0.674              1.728              1.595
 Vibration     5          0.709              1.626              1.285
 Vibration     6          0.723              1.587              1.192
 Vibration     7          0.751              1.508              1.031
 Vibration     8          0.799              1.385              0.830
 Vibration     9          0.832              1.306              0.724
 Vibration    10          0.925              1.099              0.507

 Optimization completed.
    -- Stationary point found.
 Normal termination of Gaussian 09 at Tue Jan 28 03:35:01 2020.
