 Gaussian 09, Revision D.01,
 Gaussian 09:  ES64L-G09RevD.01 24-Apr-2013

 -----------------------------
 # b3lyp 6-31G(2df,p) opt Freq
 -----------------------------

 -----
 titel
 -----
 Symbolic Z-matrix:
 Charge =  0 Multiplicity = 1

 SCF Done:  E(RB3LYP) =  -423.188388262     A.U. after   13 cycles
 Optimization completed.
    -- Stationary point found.
 Normal termination of Gaussian 09 at Mon Jan 27 15:59:35 2020.

 ----------------------------------------------------------------------
 #N Geom=AllCheck Guess=TCheck SCRF=Check GenChk RB3LYP/6-31G(2df,p) Fr
 eq
 ----------------------------------------------------------------------

 Structure from the checkpoint file:  "/scratch/puck/g09_3e4b2ede-98aa-46fa-a5a0-9d4ba7730069/Gau-35510.chk"
 -----
 titel
 -----
 Charge =  0 Multiplicity = 1

                         Standard orientation:
 ---------------------------------------------------------------------
 Center     Atomic      Atomic             Coordinates (Angstroms)
 Number     Number       Type             X           Y           Z
 ---------------------------------------------------------------------
      1          6           0       -1.932508    1.087951    0.128346
      2          6           0       -0.909867   -0.035436    0.063079
      3          8           0       -1.640399   -1.246032   -0.027138
      4          6           0        0.127341   -0.066221    1.195852
      5          6           0        1.349502    0.726327    0.725356
      6          6           0        1.044192    1.244351   -0.677478
      7          6           0        0.151398    0.057608   -1.075985
      8          8           0        0.980891   -1.086843   -0.775518
      9          6           0        1.304908   -0.774220    0.577218
     10          1           0       -1.467395    2.058914    0.309678
     11          1           0       -2.507236    1.135684   -0.801873
     12          1           0       -2.634731    0.888864    0.942833
     13          1           0       -0.993483   -1.927440   -0.252648
     14          1           0       -0.153209   -0.172932    2.234913
     15          1           0        2.024488    1.221800    1.410126
     16          1           0        0.518361    2.200959   -0.698910
     17          1           0        1.937908    1.312246   -1.304406
     18          1           0       -0.217183   -0.011693   -2.097166
     19          1           0        1.958749   -1.485561    1.060384
 ---------------------------------------------------------------------

 SCF Done:  E(RB3LYP) =  -423.188388262     A.U. after    1 cycles

 The electronic state is 1-A.
 Alpha  occ. eigenvalues --  -19.15031 -19.12564 -10.23690 -10.23468 -10.23162
 Alpha  occ. eigenvalues --  -10.19540 -10.18891 -10.18684 -10.17441  -1.06382
 Alpha  occ. eigenvalues --   -1.00614  -0.86002  -0.76882  -0.73398  -0.66722
 Alpha  occ. eigenvalues --   -0.58580  -0.57330  -0.55295  -0.54127  -0.50396
 Alpha  occ. eigenvalues --   -0.45487  -0.44347  -0.41659  -0.40377  -0.40240
 Alpha  occ. eigenvalues --   -0.38621  -0.37454  -0.35992  -0.35162  -0.33521
 Alpha  occ. eigenvalues --   -0.31202  -0.28747  -0.26161  -0.23441
 Alpha virt. eigenvalues --    0.08812   0.10445   0.11116   0.12977   0.13150
 Alpha virt. eigenvalues --    0.14061   0.14969   0.15479   0.15800   0.17122
 Alpha virt. eigenvalues --    0.17770   0.19354   0.20508   0.21688   0.23159

 Mulliken charges:
               1
     1  C   -0.442845
     2  C    0.450654
     3  O   -0.499996
     4  C   -0.163645
     5  C   -0.115158
     6  C   -0.239734
     7  C   -0.017838
     8  O   -0.281392
     9  C    0.067160
    10  H    0.117978
    11  H    0.121589
    12  H    0.129682
    13  H    0.283928
    14  H    0.091451
    15  H    0.091760
    16  H    0.107906
    17  H    0.108695
    18  H    0.083987
    19  H    0.105818
 Sum of Mulliken charges =   0.00000

 Dipole moment (field-independent basis, Debye):
    X=              1.0980    Y=              1.3484    Z=              0.6201  Tot=              1.8461
 Quadrupole moment (field-independent basis, Debye-Ang):
   XX=            -55.9872   YY=            -52.3841   ZZ=            -50.9383
   XY=             -1.4450   XZ=              2.3712   YZ=             -1.5809

  Exact polarizability:  77.165  -0.160  70.715   1.305  -1.985  68.778
 Approx polarizability: 109.498   0.499 109.465  -0.166   0.057 104.396

                      1                      2                      3
                      A                      A                      A
 Frequencies --    179.1909               220.9680               250.8759
 Red. masses --      1.2130                 2.6019                 2.9108
 Frc consts  --      0.0229                 0.0749                 0.1079
 IR Inten    --      0.4215                 1.1552                 2.6014

                      4                      5                      6
                      A                      A                      A
 Frequencies --    363.9842               379.5223               443.2710
 Red. masses --      3.1829                 3.3021                 1.9345
 Frc consts  --      0.2484                 0.2802                 0.2239
 IR Inten    --      7.9697                 1.2364                 1.0107

                      7                      8                      9
                      A                      A                      A
 Frequencies --    489.5883               549.8448               569.8160
 Red. masses --      1.1283                 3.7062                 4.8115
 Frc consts  --      0.1593                 0.6602                 0.9204
 IR Inten    --     68.6181                 0.5144                 7.1059

                     10                     11                     12
                      A                      A                      A
 Frequencies --    626.1535               722.4546               740.0817
 Red. masses --      4.1478                 5.2528                 4.5851
 Frc consts  --      0.9581                 1.6153                 1.4796
 IR Inten    --     15.0885                 0.7109                 4.4776

                     13                     14                     15
                      A                      A                      A
 Frequencies --    804.7075               818.9348               858.1867
 Red. masses --      1.5979                 1.5417                 3.0747
 Frc consts  --      0.6096                 0.6092                 1.3342
 IR Inten    --     18.4740                13.4706                 6.1867

                     16                     17                     18
                      A                      A                      A
 Frequencies --    901.8473               929.0249               944.5301
 Red. masses --      2.8397                 2.0678                 2.0929
 Frc consts  --      1.3608                 1.0515                 1.1001
 IR Inten    --      8.2554                 6.2817                27.8996

                     19                     20                     21
                      A                      A                      A
 Frequencies --    962.1685               965.3620               986.0780
 Red. masses --      3.1497                 1.9166                 1.4848
 Frc consts  --      1.7180                 1.0524                 0.8506
 IR Inten    --      7.7628                10.2429                 2.7430

                     22                     23                     24
                      A                      A                      A
 Frequencies --   1009.9414              1039.6248              1055.2610
 Red. masses --      3.5860                 1.6466                 1.6308
 Frc consts  --      2.1550                 1.0486                 1.0699
 IR Inten    --     20.9921                11.0547                 4.6550

                     25                     26                     27
                      A                      A                      A
 Frequencies --   1067.7689              1080.3667              1109.5016
 Red. masses --      1.4845                 1.9241                 2.0544
 Frc consts  --      0.9972                 1.3232                 1.4900
 IR Inten    --      4.8882                16.9765                41.2674

                     28                     29                     30
                      A                      A                      A
 Frequencies --   1146.9720              1194.7175              1198.8994
 Red. masses --      1.4310                 2.1087                 1.8808
 Frc consts  --      1.1091                 1.7734                 1.5927
 IR Inten    --     16.2112                55.6261                12.1034

                     31                     32                     33
                      A                      A                      A
 Frequencies --   1224.1366              1246.6155              1281.4036
 Red. masses --      2.2731                 1.3699                 1.8530
 Frc consts  --      2.0069                 1.2543                 1.7926
 IR Inten    --      6.9892                10.3892                 5.9970

                     34                     35                     36
                      A                      A                      A
 Frequencies --   1306.0375              1331.1069              1373.6302
 Red. masses --      1.6462                 1.6274                 2.1746
 Frc consts  --      1.6545                 1.6989                 2.4175
 IR Inten    --      0.3487                 1.4289                21.6057

                     37                     38                     39
                      A                      A                      A
 Frequencies --   1398.5256              1428.5733              1480.2357
 Red. masses --      1.3746                 1.7380                 1.0716
 Frc consts  --      1.5841                 2.0898                 1.3834
 IR Inten    --     37.8178                64.3013                 2.8663

                     40                     41                     42
                      A                      A                      A
 Frequencies --   1490.8920              1503.5457              3046.4862
 Red. masses --      1.0852                 1.0691                 1.0364
 Frc consts  --      1.4211                 1.4240                 5.6672
 IR Inten    --      3.1623                 3.2107                16.7644

                     43                     44                     45
                      A                      A                      A
 Frequencies --   3065.5641              3112.4589              3116.5517
 Red. masses --      1.0601                 1.1010                 1.1050
 Frc consts  --      5.8699                 6.2843                 6.3237
 IR Inten    --     27.0698                13.9560                21.9357

                     46                     47                     48
                      A                      A                      A
 Frequencies --   3135.3031              3152.8144              3204.1191
 Red. masses --      1.1002                 1.0910                 1.0910
 Frc consts  --      6.3718                 6.3893                 6.5994
 IR Inten    --     18.5590                21.2236                 8.1311

                     49                     50                     51
                      A                      A                      A
 Frequencies --   3211.0777              3229.8242              3767.4006
 Red. masses --      1.0923                 1.0975                 1.0647
 Frc consts  --      6.6355                 6.7457                 8.9038
 IR Inten    --      5.4245                11.6981                24.6361

 - Thermochemistry -
 -------------------
 Temperature   298.150 Kelvin.  Pressure   1.00000 Atm.
 Atom     1 has atomic number  6 and mass  12.00000

 Molecular mass:   126.06808 amu.
 Principal axes and moments of inertia in atomic units:
                           1         2         3
     Eigenvalues --   655.50193 967.169231100.65026
           X            0.99934  -0.03386   0.01321
           Y            0.03464   0.99734  -0.06407
           Z           -0.01101   0.06449   0.99786
 This molecule is an asymmetric top.
 Rotational symmetry number  1.
 Warning -- assumption of classical behavior for rotation
           may cause significant error
 Rotational temperatures (Kelvin)      0.13213     0.08955     0.07869
 Rotational constants (GHZ):           2.75322     1.86600     1.63970
 Zero-point vibrational energy     422975.3 (Joules/Mol)
                                  101.09352 (Kcal/Mol)
 Warning -- explicit consideration of   9 degrees of freedom as
           vibrations may cause significant error
 Vibrational temperatures:    257.82   317.92   360.95   523.69   546.05
          (Kelvin)            637.77   704.41   791.10   819.84   900.89
                             1039.45  1064.81  1157.79  1178.26  1234.74
                             1297.56  1336.66  1358.97  1384.34  1388.94
                             1418.74  1453.08  1495.79  1518.28  1536.28
                             1554.40  1596.32  1650.23  1718.93  1724.95
                             1761.26  1793.60  1843.65  1879.09  1915.16
                             1976.34  2012.16  2055.40  2129.73  2145.06
                             2163.26  4383.21  4410.66  4478.13  4484.02
                             4511.00  4536.19  4610.01  4620.02  4646.99
                             5420.44

 Zero-point correction=                           0.161103 (Hartree/Particle)
 Thermal correction to Energy=                    0.168250
 Thermal correction to Enthalpy=                  0.169194
 Thermal correction to Gibbs Free Energy=         0.130148
 Sum of electronic and zero-point Energies=           -423.027285
 Sum of electronic and thermal Energies=              -423.020138
 Sum of electronic and thermal Enthalpies=            -423.019194
 Sum of electronic and thermal Free Energies=         -423.058240

                     E (Thermal)             CV                S
                      KCal/Mol        Cal/Mol-Kelvin    Cal/Mol-Kelvin
 Total                  105.579             30.227             82.179
 Electronic               0.000              0.000              0.000
 Translational            0.889              2.981             40.409
 Rotational               0.889              2.981             28.036
 Vibrational            103.801             24.265             13.735
 Vibration     1          0.629              1.868              2.337
 Vibration     2          0.648              1.809              1.951
 Vibration     3          0.663              1.761              1.724
 Vibration     4          0.738              1.546              1.105
 Vibration     5          0.750              1.514              1.041
 Vibration     6          0.803              1.376              0.816
 Vibration     7          0.845              1.273              0.685
 Vibration     8          0.905              1.140              0.544
 Vibration     9          0.926              1.097              0.505

 Optimization completed.
    -- Stationary point found.
 Normal termination of Gaussian 09 at Mon Jan 27 16:51:55 2020.
