 Gaussian 09, Revision D.01,
 Gaussian 09:  ES64L-G09RevD.01 24-Apr-2013

 -----------------------------
 # b3lyp 6-31G(2df,p) opt Freq
 -----------------------------

 -----
 titel
 -----
 Symbolic Z-matrix:
 Charge =  0 Multiplicity = 1

 SCF Done:  E(RB3LYP) =  -423.144081989     A.U. after   14 cycles
 Optimization completed.
    -- Stationary point found.
 Normal termination of Gaussian 09 at Mon Jan 27 23:03:59 2020.

 ----------------------------------------------------------------------
 #N Geom=AllCheck Guess=TCheck SCRF=Check GenChk RB3LYP/6-31G(2df,p) Fr
 eq
 ----------------------------------------------------------------------

 Structure from the checkpoint file:  "/scratch/puck/g09_4631ab82-6054-4de4-a261-7272923860c1/Gau-195628.chk"
 -----
 titel
 -----
 Charge =  0 Multiplicity = 1

                         Standard orientation:
 ---------------------------------------------------------------------
 Center     Atomic      Atomic             Coordinates (Angstroms)
 Number     Number       Type             X           Y           Z
 ---------------------------------------------------------------------
      1          6           0       -2.029479    1.034672    0.380886
      2          6           0       -0.957611    0.004699    0.178465
      3          8           0       -1.355131   -1.253350   -0.398572
      4          6           0       -0.370157   -0.464978   -1.088730
      5          6           0        1.097344   -0.720282   -0.683343
      6          6           0        0.939002   -1.417949    0.695170
      7          6           0        0.280223   -0.075716    1.108422
      8          6           0        1.363835    0.580723    0.166730
      9          8           0        1.198151    1.859943   -0.374460
     10          1           0       -2.617582    0.809158    1.277439
     11          1           0       -1.588911    2.028090    0.520444
     12          1           0       -2.710600    1.060913   -0.473754
     13          1           0       -0.653130   -0.123102   -2.079850
     14          1           0        1.790440   -1.072121   -1.446447
     15          1           0        0.322028   -2.311228    0.735397
     16          1           0        1.899362   -1.577032    1.187922
     17          1           0        0.155111    0.225280    2.148376
     18          1           0        2.355596    0.576216    0.624858
     19          1           0        0.364589    1.884062   -0.855715
 ---------------------------------------------------------------------

 SCF Done:  E(RB3LYP) =  -423.144081989     A.U. after    1 cycles

 The electronic state is 1-A.
 Alpha  occ. eigenvalues --  -19.14929 -19.14471 -10.24233 -10.24035 -10.23543
 Alpha  occ. eigenvalues --  -10.19593 -10.19373 -10.19010 -10.18540  -1.07335
 Alpha  occ. eigenvalues --   -1.02920  -0.86605  -0.75413  -0.69047  -0.65566
 Alpha  occ. eigenvalues --   -0.64847  -0.56429  -0.54724  -0.52181  -0.50877
 Alpha  occ. eigenvalues --   -0.45863  -0.43784  -0.42534  -0.41091  -0.40235
 Alpha  occ. eigenvalues --   -0.38828  -0.37372  -0.36701  -0.35450  -0.32628
 Alpha  occ. eigenvalues --   -0.31915  -0.27961  -0.26314  -0.25404
 Alpha virt. eigenvalues --    0.06360   0.08648   0.10051   0.10857   0.12695
 Alpha virt. eigenvalues --    0.13810   0.14562   0.15735   0.15916   0.16795
 Alpha virt. eigenvalues --    0.17511   0.19509   0.20086   0.21238   0.21747

 Mulliken charges:
               1
     1  C   -0.497087
     2  C    0.410274
     3  O   -0.297221
     4  C   -0.050061
     5  C   -0.130424
     6  C   -0.225577
     7  C   -0.161375
     8  C    0.171697
     9  O   -0.444041
    10  H    0.133442
    11  H    0.128244
    12  H    0.130637
    13  H    0.098725
    14  H    0.067404
    15  H    0.126267
    16  H    0.099074
    17  H    0.063224
    18  H    0.089943
    19  H    0.286852
 Sum of Mulliken charges =   0.00000

 Dipole moment (field-independent basis, Debye):
    X=             -0.0871    Y=              0.5087    Z=             -0.0627  Tot=              0.5199
 Quadrupole moment (field-independent basis, Debye-Ang):
   XX=            -54.3470   YY=            -57.7969   ZZ=            -50.1302
   XY=             -6.7359   XZ=              0.4019   YZ=             -0.9986

  Exact polarizability:  78.548  -4.601  70.956   0.090   0.595  70.611
 Approx polarizability: 112.042   1.282 109.075  -1.282   2.043 110.410

                      1                      2                      3
                      A                      A                      A
 Frequencies --    176.1348               206.9587               228.3733
 Red. masses --      3.7337                 1.2184                 2.4731
 Frc consts  --      0.0682                 0.0307                 0.0760
 IR Inten    --      2.6975                 1.5269                 2.0522

                      4                      5                      6
                      A                      A                      A
 Frequencies --    310.8358               339.2195               393.9795
 Red. masses --      2.7078                 1.9485                 1.5672
 Frc consts  --      0.1541                 0.1321                 0.1433
 IR Inten    --      4.6078                12.1621                61.1082

                      7                      8                      9
                      A                      A                      A
 Frequencies --    458.3996               483.7432               531.8322
 Red. masses --      3.2426                 2.9877                 3.6654
 Frc consts  --      0.4015                 0.4119                 0.6108
 IR Inten    --     15.6950                 0.8226                 4.1709

                     10                     11                     12
                      A                      A                      A
 Frequencies --    606.8343               656.6256               740.6362
 Red. masses --      4.0076                 3.8665                 4.2223
 Frc consts  --      0.8695                 0.9822                 1.3646
 IR Inten    --      0.6673                 4.9050                 2.2911

                     13                     14                     15
                      A                      A                      A
 Frequencies --    787.6625               811.3791               828.6039
 Red. masses --      2.5502                 3.8515                 2.8644
 Frc consts  --      0.9322                 1.4939                 1.1587
 IR Inten    --      4.4203                 8.0234                 1.8727

                     16                     17                     18
                      A                      A                      A
 Frequencies --    851.9466               875.9508               924.9713
 Red. masses --      3.1753                 2.4763                 2.2976
 Frc consts  --      1.3579                 1.1195                 1.1582
 IR Inten    --     13.3913                10.3881                12.6690

                     19                     20                     21
                      A                      A                      A
 Frequencies --    958.1023               997.5345              1006.5352
 Red. masses --      1.8179                 1.9448                 1.6638
 Frc consts  --      0.9832                 1.1402                 0.9932
 IR Inten    --      2.9142                13.8758                 4.1421

                     22                     23                     24
                      A                      A                      A
 Frequencies --   1013.0982              1047.7665              1074.9510
 Red. masses --      1.7262                 2.0606                 1.4404
 Frc consts  --      1.0438                 1.3328                 0.9807
 IR Inten    --      7.7760                 5.4152                 3.0688

                     25                     26                     27
                      A                      A                      A
 Frequencies --   1114.9957              1119.0069              1138.9514
 Red. masses --      1.7105                 1.2710                 2.7938
 Frc consts  --      1.2529                 0.9377                 2.1353
 IR Inten    --     23.0497                 1.1069               126.2826

                     28                     29                     30
                      A                      A                      A
 Frequencies --   1184.9375              1206.2772              1229.2456
 Red. masses --      1.4986                 1.9675                 1.5072
 Frc consts  --      1.2398                 1.6868                 1.3418
 IR Inten    --      2.8368                 8.0985                19.3896

                     31                     32                     33
                      A                      A                      A
 Frequencies --   1236.2406              1253.4007              1289.4921
 Red. masses --      1.6979                 1.6997                 1.4375
 Frc consts  --      1.5289                 1.5732                 1.4083
 IR Inten    --     29.4840                 3.3422                 8.2826

                     34                     35                     36
                      A                      A                      A
 Frequencies --   1304.3670              1310.5294              1408.2312
 Red. masses --      1.6269                 1.7558                 1.3020
 Frc consts  --      1.6308                 1.7767                 1.5213
 IR Inten    --     14.8557                 7.1806                 3.2162

                     37                     38                     39
                      A                      A                      A
 Frequencies --   1441.2603              1448.5438              1485.3237
 Red. masses --      1.4983                 1.9710                 1.1021
 Frc consts  --      1.8337                 2.4367                 1.4326
 IR Inten    --     14.7467                40.4113                 9.1081

                     40                     41                     42
                      A                      A                      A
 Frequencies --   1492.5577              1501.5589              3031.9747
 Red. masses --      1.1193                 1.1144                 1.0360
 Frc consts  --      1.4692                 1.4804                 5.6114
 IR Inten    --     14.6543                 1.7324                18.8632

                     43                     44                     45
                      A                      A                      A
 Frequencies --   3088.6846              3092.1746              3096.4034
 Red. masses --      1.0779                 1.0996                 1.0714
 Frc consts  --      6.0588                 6.1945                 6.0521
 IR Inten    --     10.0527                13.9783                39.8714

                     46                     47                     48
                      A                      A                      A
 Frequencies --   3118.8354              3120.4255              3125.2865
 Red. masses --      1.0918                 1.0984                 1.0900
 Frc consts  --      6.2572                 6.3013                 6.2730
 IR Inten    --     27.2736                39.1780                31.0905

                     49                     50                     51
                      A                      A                      A
 Frequencies --   3159.5877              3176.7016              3814.7391
 Red. masses --      1.0923                 1.1042                 1.0650
 Frc consts  --      6.4246                 6.5650                 9.1309
 IR Inten    --     18.1560                 7.9372                14.2036

 - Thermochemistry -
 -------------------
 Temperature   298.150 Kelvin.  Pressure   1.00000 Atm.
 Atom     1 has atomic number  6 and mass  12.00000

 Molecular mass:   126.06808 amu.
 Principal axes and moments of inertia in atomic units:
                           1         2         3
     Eigenvalues --   751.19355 926.903531221.41648
           X            0.96994  -0.24333  -0.00011
           Y            0.24332   0.96989  -0.01079
           Z            0.00273   0.01044   0.99994
 This molecule is an asymmetric top.
 Rotational symmetry number  1.
 Warning -- assumption of classical behavior for rotation
           may cause significant error
 Rotational temperatures (Kelvin)      0.11530     0.09344     0.07091
 Rotational constants (GHZ):           2.40250     1.94706     1.47758
 Zero-point vibrational energy     420498.2 (Joules/Mol)
                                  100.50148 (Kcal/Mol)
 Warning -- explicit consideration of  10 degrees of freedom as
           vibrations may cause significant error
 Vibrational temperatures:    253.42   297.77   328.58   447.22   488.06
          (Kelvin)            566.85   659.53   696.00   765.19   873.10
                              944.74  1065.61  1133.27  1167.39  1192.17
                             1225.76  1260.30  1330.83  1378.49  1435.23
                             1448.18  1457.62  1507.50  1546.61  1604.23
                             1610.00  1638.69  1704.86  1735.56  1768.61
                             1778.67  1803.36  1855.29  1876.69  1885.56
                             2026.13  2073.65  2084.13  2137.05  2147.45
                             2160.41  4362.33  4443.92  4448.94  4455.03
                             4487.30  4489.59  4496.58  4545.94  4570.56
                             5488.55

 Zero-point correction=                           0.160159 (Hartree/Particle)
 Thermal correction to Energy=                    0.167657
 Thermal correction to Enthalpy=                  0.168601
 Thermal correction to Gibbs Free Energy=         0.128808
 Sum of electronic and zero-point Energies=           -422.983923
 Sum of electronic and thermal Energies=              -422.976425
 Sum of electronic and thermal Enthalpies=            -422.975481
 Sum of electronic and thermal Free Energies=         -423.015274

                     E (Thermal)             CV                S
                      KCal/Mol        Cal/Mol-Kelvin    Cal/Mol-Kelvin
 Total                  105.206             31.029             83.752
 Electronic               0.000              0.000              0.000
 Translational            0.889              2.981             40.409
 Rotational               0.889              2.981             28.233
 Vibrational            103.429             25.067             15.110
 Vibration     1          0.628              1.872              2.369
 Vibration     2          0.641              1.830              2.070
 Vibration     3          0.651              1.798              1.892
 Vibration     4          0.700              1.653              1.358
 Vibration     5          0.719              1.597              1.216
 Vibration     6          0.761              1.483              0.985
 Vibration     7          0.816              1.342              0.771
 Vibration     8          0.840              1.286              0.700
 Vibration     9          0.887              1.180              0.583
 Vibration    10          0.966              1.017              0.438

 Optimization completed.
    -- Stationary point found.
 Normal termination of Gaussian 09 at Mon Jan 27 23:48:55 2020.
