 Gaussian 09, Revision D.01,
 Gaussian 09:  ES64L-G09RevD.01 24-Apr-2013

 -----------------------------
 # b3lyp 6-31G(2df,p) opt Freq
 -----------------------------

 -----
 titel
 -----
 Symbolic Z-matrix:
 Charge =  0 Multiplicity = 1

 SCF Done:  E(RB3LYP) =  -423.152720194     A.U. after   13 cycles
 Optimization completed.
    -- Stationary point found.
 Normal termination of Gaussian 09 at Tue Jan 28 02:57:05 2020.

 ----------------------------------------------------------------------
 #N Geom=AllCheck Guess=TCheck SCRF=Check GenChk RB3LYP/6-31G(2df,p) Fr
 eq
 ----------------------------------------------------------------------

 Structure from the checkpoint file:  "/scratch/puck/g09_c8875cdb-dda1-4567-a01f-9f53cbbfa9fb/Gau-89747.chk"
 -----
 titel
 -----
 Charge =  0 Multiplicity = 1

                         Standard orientation:
 ---------------------------------------------------------------------
 Center     Atomic      Atomic             Coordinates (Angstroms)
 Number     Number       Type             X           Y           Z
 ---------------------------------------------------------------------
      1          8           0       -1.743687   -1.086761   -0.749999
      2          6           0       -1.707500   -0.097658    0.252454
      3          6           0       -1.338002    1.336735   -0.233178
      4          6           0        0.096316    1.169925    0.346910
      5          6           0        1.135711    0.684293   -0.651671
      6          6           0        2.446520    0.153194   -0.095004
      7          6           0        1.313492   -0.785998   -0.410013
      8          8           0        0.539160   -1.197153    0.693977
      9          6           0       -0.348331   -0.156201    1.036028
     10          1           0       -2.501878   -0.903421   -1.314133
     11          1           0       -2.598019   -0.147566    0.894628
     12          1           0       -1.397318    1.480518   -1.315944
     13          1           0       -1.916118    2.122675    0.259902
     14          1           0        0.456005    1.981292    0.985053
     15          1           0        1.123766    1.092623   -1.656266
     16          1           0        3.308870    0.166053   -0.753759
     17          1           0        2.668704    0.321306    0.954074
     18          1           0        1.375906   -1.525159   -1.199774
     19          1           0       -0.472936   -0.142743    2.121231
 ---------------------------------------------------------------------

 SCF Done:  E(RB3LYP) =  -423.152720194     A.U. after    1 cycles

 The electronic state is 1-A.
 Alpha  occ. eigenvalues --  -19.13626 -19.13414 -10.22681 -10.22474 -10.22451
 Alpha  occ. eigenvalues --  -10.18815 -10.18689 -10.18048 -10.17895  -1.04158
 Alpha  occ. eigenvalues --   -1.01464  -0.84470  -0.81981  -0.66803  -0.66012
 Alpha  occ. eigenvalues --   -0.59897  -0.56943  -0.54665  -0.51200  -0.50702
 Alpha  occ. eigenvalues --   -0.48205  -0.43503  -0.42749  -0.41658  -0.39181
 Alpha  occ. eigenvalues --   -0.38095  -0.36664  -0.34353  -0.33003  -0.30937
 Alpha  occ. eigenvalues --   -0.30048  -0.27230  -0.25324  -0.22486
 Alpha virt. eigenvalues --    0.06803   0.09310   0.10273   0.11170   0.12319
 Alpha virt. eigenvalues --    0.14173   0.15143   0.15985   0.16859   0.17042
 Alpha virt. eigenvalues --    0.17854   0.19223   0.20883   0.21124   0.23691

 Mulliken charges:
               1
     1  O   -0.418143
     2  C    0.085863
     3  C   -0.282529
     4  C   -0.066018
     5  C   -0.064352
     6  C   -0.329642
     7  C    0.116795
     8  O   -0.253454
     9  C    0.113911
    10  H    0.283242
    11  H    0.062569
    12  H    0.093628
    13  H    0.098405
    14  H    0.070337
    15  H    0.087698
    16  H    0.109388
    17  H    0.114452
    18  H    0.100392
    19  H    0.077460
 Sum of Mulliken charges =   0.00000

 Dipole moment (field-independent basis, Debye):
    X=             -1.1268    Y=              2.0591    Z=             -0.8103  Tot=              2.4831
 Quadrupole moment (field-independent basis, Debye-Ang):
   XX=            -47.3933   YY=            -57.1888   ZZ=            -49.7296
   XY=             -0.5949   XZ=              0.0936   YZ=              1.8644

  Exact polarizability:  85.793  -1.883  67.833  -1.653   1.689  68.471
 Approx polarizability: 111.677  -2.614 104.666  -0.828   1.143 103.860

                      1                      2                      3
                      A                      A                      A
 Frequencies --     61.8560               182.6397               239.2502
 Red. masses --      3.9092                 2.9459                 4.6933
 Frc consts  --      0.0088                 0.0579                 0.1583
 IR Inten    --      1.1622                 1.7120                 0.3690

                      4                      5                      6
                      A                      A                      A
 Frequencies --    259.0855               344.8226               400.7404
 Red. masses --      1.0860                 3.0732                 2.3991
 Frc consts  --      0.0429                 0.2153                 0.2270
 IR Inten    --    104.1927                 0.8173                 7.9796

                      7                      8                      9
                      A                      A                      A
 Frequencies --    440.2008               540.4728               636.5359
 Red. masses --      2.9606                 4.7200                 3.9995
 Frc consts  --      0.3380                 0.8124                 0.9548
 IR Inten    --      0.7802                14.8129                 4.0328

                     10                     11                     12
                      A                      A                      A
 Frequencies --    716.4193               738.2277               786.9139
 Red. masses --      4.5979                 1.8552                 1.8771
 Frc consts  --      1.3904                 0.5957                 0.6848
 IR Inten    --      3.5746                 5.3637                 6.1637

                     13                     14                     15
                      A                      A                      A
 Frequencies --    811.1791               828.6568               868.8700
 Red. masses --      1.7797                 2.5834                 2.4416
 Frc consts  --      0.6900                 1.0452                 1.0860
 IR Inten    --     13.0844                 5.7761                 5.4251

                     16                     17                     18
                      A                      A                      A
 Frequencies --    894.9925               920.0337               954.8994
 Red. masses --      3.6124                 1.8215                 2.4457
 Frc consts  --      1.7049                 0.9084                 1.3139
 IR Inten    --      9.1286                 3.3759                 5.2856

                     19                     20                     21
                      A                      A                      A
 Frequencies --    978.4656              1021.6468              1031.9688
 Red. masses --      2.5462                 2.0257                 1.9224
 Frc consts  --      1.4363                 1.2457                 1.2062
 IR Inten    --      9.1372                 8.9127                10.0878

                     22                     23                     24
                      A                      A                      A
 Frequencies --   1054.2316              1059.8548              1084.8844
 Red. masses --      1.6221                 1.7305                 1.6448
 Frc consts  --      1.0622                 1.1453                 1.1406
 IR Inten    --     29.5032                 3.8098                12.5163

                     25                     26                     27
                      A                      A                      A
 Frequencies --   1102.8432              1130.1445              1153.3663
 Red. masses --      1.4925                 1.8538                 3.2250
 Frc consts  --      1.0695                 1.3950                 2.5276
 IR Inten    --     17.8802                40.4344                74.8915

                     28                     29                     30
                      A                      A                      A
 Frequencies --   1159.2137              1193.3771              1200.5123
 Red. masses --      1.6175                 1.7739                 1.6861
 Frc consts  --      1.2806                 1.4885                 1.4317
 IR Inten    --      6.0543                32.9180                13.7240

                     31                     32                     33
                      A                      A                      A
 Frequencies --   1233.4807              1256.0464              1269.2958
 Red. masses --      1.3252                 1.3842                 1.7500
 Frc consts  --      1.1880                 1.2866                 1.6612
 IR Inten    --     30.5961                 1.3792                 0.7473

                     34                     35                     36
                      A                      A                      A
 Frequencies --   1290.9645              1316.8732              1326.0482
 Red. masses --      1.2563                 1.3504                 1.3517
 Frc consts  --      1.2336                 1.3798                 1.4004
 IR Inten    --      1.1054                20.6487                14.7517

                     37                     38                     39
                      A                      A                      A
 Frequencies --   1363.7684              1385.3271              1415.8443
 Red. masses --      2.0404                 1.5111                 1.4313
 Frc consts  --      2.2359                 1.7087                 1.6905
 IR Inten    --     12.6316                 8.3108                 2.6125

                     40                     41                     42
                      A                      A                      A
 Frequencies --   1467.7960              1472.9468              2993.4243
 Red. masses --      1.1229                 1.2681                 1.0855
 Frc consts  --      1.4254                 1.6210                 5.7309
 IR Inten    --      3.7420                 7.1160                66.8863

                     43                     44                     45
                      A                      A                      A
 Frequencies --   3051.4314              3065.0939              3086.0761
 Red. masses --      1.0598                 1.0865                 1.0890
 Frc consts  --      5.8139                 6.0140                 6.1106
 IR Inten    --     32.3809                29.1952                44.4478

                     46                     47                     48
                      A                      A                      A
 Frequencies --   3108.4479              3123.3622              3165.0853
 Red. masses --      1.1069                 1.0536                 1.0898
 Frc consts  --      6.3014                 6.0557                 6.4322
 IR Inten    --     34.9454                13.7328                10.5686

                     49                     50                     51
                      A                      A                      A
 Frequencies --   3183.1707              3214.7062              3814.0260
 Red. masses --      1.0942                 1.1161                 1.0661
 Frc consts  --      6.5320                 6.7957                 9.1375
 IR Inten    --     15.3804                13.0047                21.0120

 - Thermochemistry -
 -------------------
 Temperature   298.150 Kelvin.  Pressure   1.00000 Atm.
 Atom     1 has atomic number  8 and mass  15.99491

 Molecular mass:   126.06808 amu.
 Principal axes and moments of inertia in atomic units:
                           1         2         3
     Eigenvalues --   584.565581125.420221315.88870
           X            0.99988  -0.01264  -0.00851
           Y            0.01287   0.99953   0.02771
           Z            0.00815  -0.02782   0.99958
 This molecule is an asymmetric top.
 Rotational symmetry number  1.
 Warning -- assumption of classical behavior for rotation
           may cause significant error
 Rotational temperatures (Kelvin)      0.14817     0.07696     0.06582
 Rotational constants (GHZ):           3.08732     1.60362     1.37150
 Zero-point vibrational energy     421082.6 (Joules/Mol)
                                  100.64117 (Kcal/Mol)
 Warning -- explicit consideration of   8 degrees of freedom as
           vibrations may cause significant error
 Vibrational temperatures:     89.00   262.78   344.23   372.77   496.12
          (Kelvin)            576.58   633.35   777.62   915.83  1030.77
                             1062.14  1132.19  1167.10  1192.25  1250.11
                             1287.69  1323.72  1373.89  1407.79  1469.92
                             1484.77  1516.80  1524.89  1560.90  1586.74
                             1626.02  1659.43  1667.85  1717.00  1727.27
                             1774.70  1807.17  1826.23  1857.41  1894.68
                             1907.89  1962.16  1993.17  2037.08  2111.83
                             2119.24  4306.86  4390.32  4409.98  4440.17
                             4472.36  4493.82  4553.85  4579.87  4625.24
                             5487.53

 Zero-point correction=                           0.160382 (Hartree/Particle)
 Thermal correction to Energy=                    0.167936
 Thermal correction to Enthalpy=                  0.168880
 Thermal correction to Gibbs Free Energy=         0.128254
 Sum of electronic and zero-point Energies=           -422.992338
 Sum of electronic and thermal Energies=              -422.984785
 Sum of electronic and thermal Enthalpies=            -422.983840
 Sum of electronic and thermal Free Energies=         -423.024467

                     E (Thermal)             CV                S
                      KCal/Mol        Cal/Mol-Kelvin    Cal/Mol-Kelvin
 Total                  105.381             30.190             85.505
 Electronic               0.000              0.000              0.000
 Translational            0.889              2.981             40.409
 Rotational               0.889              2.981             28.250
 Vibrational            103.604             24.228             16.846
 Vibration     1          0.597              1.973              4.397
 Vibration     2          0.630              1.863              2.301
 Vibration     3          0.657              1.780              1.808
 Vibration     4          0.668              1.747              1.668
 Vibration     5          0.723              1.586              1.190
 Vibration     6          0.767              1.469              0.960
 Vibration     7          0.800              1.383              0.826
 Vibration     8          0.896              1.161              0.564

 Normal termination of Gaussian 09 at Tue Jan 28 03:52:33 2020.
