 Gaussian 09, Revision D.01,
 Gaussian 09:  ES64L-G09RevD.01 24-Apr-2013

 -----------------------------
 # b3lyp 6-31G(2df,p) opt Freq
 -----------------------------

 -----
 titel
 -----
 Symbolic Z-matrix:
 Charge =  0 Multiplicity = 1

 SCF Done:  E(RB3LYP) =  -423.210191585     A.U. after   14 cycles
 Optimization completed.
    -- Stationary point found.
 Normal termination of Gaussian 09 at Mon Jan 27 22:01:10 2020.

 ----------------------------------------------------------------------
 #N Geom=AllCheck Guess=TCheck SCRF=Check GenChk RB3LYP/6-31G(2df,p) Fr
 eq
 ----------------------------------------------------------------------

 Structure from the checkpoint file:  "/scratch/puck/g09_ce4c006f-e910-4f4d-a8b4-ee7b8e62463d/Gau-45692.chk"
 -----
 titel
 -----
 Charge =  0 Multiplicity = 1

                         Standard orientation:
 ---------------------------------------------------------------------
 Center     Atomic      Atomic             Coordinates (Angstroms)
 Number     Number       Type             X           Y           Z
 ---------------------------------------------------------------------
      1          8           0        0.898139    1.619642    0.898864
      2          6           0        0.299578    0.578600    0.177317
      3          6           0       -0.770389    1.139344   -0.790724
      4          6           0       -1.930519    0.129893   -0.828763
      5          6           0       -1.913801   -0.525390    0.568016
      6          6           0       -0.426649   -0.638687    0.905108
      7          6           0        0.407834   -1.643796    0.041374
      8          6           0        1.288786   -0.459407   -0.360341
      9          8           0        2.449073   -0.344174   -0.651481
     10          1           0        1.850776    1.463488    0.895843
     11          1           0       -1.095641    2.081695   -0.337092
     12          1           0       -0.363150    1.379270   -1.776734
     13          1           0       -2.886714    0.607150   -1.058794
     14          1           0       -1.763055   -0.624149   -1.605947
     15          1           0       -2.404234    0.131603    1.295971
     16          1           0       -2.434283   -1.488079    0.594031
     17          1           0       -0.197981   -0.713181    1.968506
     18          1           0        0.937417   -2.442905    0.564890
     19          1           0       -0.149864   -2.081966   -0.791654
 ---------------------------------------------------------------------

 SCF Done:  E(RB3LYP) =  -423.210191585     A.U. after    1 cycles

 The electronic state is 1-A.
 Alpha  occ. eigenvalues --  -19.14457 -19.14382 -10.26978 -10.23983 -10.19671
 Alpha  occ. eigenvalues --  -10.19584 -10.18894 -10.18865 -10.18807  -1.05591
 Alpha  occ. eigenvalues --   -1.02493  -0.86473  -0.77841  -0.71925  -0.66356
 Alpha  occ. eigenvalues --   -0.60673  -0.56904  -0.54617  -0.50743  -0.48547
 Alpha  occ. eigenvalues --   -0.46226  -0.44820  -0.42766  -0.41805  -0.39989
 Alpha  occ. eigenvalues --   -0.37147  -0.36598  -0.36120  -0.34860  -0.34555
 Alpha  occ. eigenvalues --   -0.33603  -0.32242  -0.26202  -0.24448
 Alpha virt. eigenvalues --   -0.02717   0.07648   0.08760   0.10246   0.12295
 Alpha virt. eigenvalues --    0.13175   0.14895   0.15569   0.16748   0.16861
 Alpha virt. eigenvalues --    0.17872   0.19497   0.20109   0.21098   0.22935

 Mulliken charges:
               1
     1  O   -0.483491
     2  C    0.330793
     3  C   -0.267873
     4  C   -0.219987
     5  C   -0.224219
     6  C   -0.064705
     7  C   -0.366312
     8  C    0.325035
     9  O   -0.317746
    10  H    0.292655
    11  H    0.124384
    12  H    0.111005
    13  H    0.104404
    14  H    0.103965
    15  H    0.107729
    16  H    0.100136
    17  H    0.083614
    18  H    0.131588
    19  H    0.129026
 Sum of Mulliken charges =   0.00000

 Dipole moment (field-independent basis, Debye):
    X=             -2.1126    Y=             -1.0897    Z=              0.2551  Tot=              2.3908
 Quadrupole moment (field-independent basis, Debye-Ang):
   XX=            -57.0487   YY=            -53.6216   ZZ=            -52.9269
   XY=              0.8650   XZ=              3.5178   YZ=             -1.6462

  Exact polarizability:  84.972   0.120  74.736  -0.810  -1.009  65.120
 Approx polarizability: 123.529   1.567 109.367  -4.960   1.842  99.784

                      1                      2                      3
                      A                      A                      A
 Frequencies --     74.0084               153.9460               191.7125
 Red. masses --      4.1081                 2.4153                 1.7863
 Frc consts  --      0.0133                 0.0337                 0.0387
 IR Inten    --      2.2395                17.9346                36.3226

                      4                      5                      6
                      A                      A                      A
 Frequencies --    246.9354               305.7382               309.9466
 Red. masses --      2.1503                 3.4670                 2.2353
 Frc consts  --      0.0773                 0.1909                 0.1265
 IR Inten    --      0.8203                 9.9164                13.9636

                      7                      8                      9
                      A                      A                      A
 Frequencies --    389.1688               449.8836               499.4058
 Red. masses --      2.3444                 3.6608                 2.3332
 Frc consts  --      0.2092                 0.4365                 0.3428
 IR Inten    --      3.0208                 3.2358                 1.2072

                     10                     11                     12
                      A                      A                      A
 Frequencies --    592.3349               610.7985               672.4150
 Red. masses --      2.0141                 2.4544                 4.0792
 Frc consts  --      0.4164                 0.5395                 1.0867
 IR Inten    --      2.2887                 0.5172                 5.5424

                     13                     14                     15
                      A                      A                      A
 Frequencies --    732.0446               796.5503               818.7615
 Red. masses --      2.9547                 2.5746                 2.4348
 Frc consts  --      0.9329                 0.9625                 0.9617
 IR Inten    --      0.9415                 4.7319                 7.1882

                     16                     17                     18
                      A                      A                      A
 Frequencies --    866.0333               892.5008               931.8516
 Red. masses --      2.0241                 2.4565                 2.2503
 Frc consts  --      0.8945                 1.1529                 1.1513
 IR Inten    --      3.0456                 3.4817                 7.2270

                     19                     20                     21
                      A                      A                      A
 Frequencies --    938.4838               990.8671              1025.4396
 Red. masses --      1.9028                 1.9330                 1.7427
 Frc consts  --      0.9874                 1.1182                 1.0796
 IR Inten    --      3.4704                 3.9508                 6.7774

                     22                     23                     24
                      A                      A                      A
 Frequencies --   1053.1906              1071.7455              1098.4831
 Red. masses --      1.8197                 2.9553                 2.0361
 Frc consts  --      1.1892                 2.0001                 1.4476
 IR Inten    --     14.8630                34.9575                50.2822

                     25                     26                     27
                      A                      A                      A
 Frequencies --   1109.8050              1140.9473              1171.6388
 Red. masses --      1.9166                 1.9824                 1.4959
 Frc consts  --      1.3908                 1.5205                 1.2099
 IR Inten    --     17.9650                 4.7176                52.8655

                     28                     29                     30
                      A                      A                      A
 Frequencies --   1205.0654              1217.7133              1256.7469
 Red. masses --      1.5204                 1.4950                 2.1900
 Frc consts  --      1.3008                 1.3061                 2.0380
 IR Inten    --      2.3901                 3.0921                11.3011

                     31                     32                     33
                      A                      A                      A
 Frequencies --   1264.9944              1309.7686              1329.4369
 Red. masses --      1.2814                 1.4815                 1.5036
 Frc consts  --      1.2081                 1.4974                 1.5657
 IR Inten    --      0.6170                 4.5793                 6.6103

                     34                     35                     36
                      A                      A                      A
 Frequencies --   1343.5623              1355.7502              1381.7115
 Red. masses --      1.4102                 1.5082                 1.5223
 Frc consts  --      1.4999                 1.6333                 1.7123
 IR Inten    --      1.1671                11.5611                51.5023

                     37                     38                     39
                      A                      A                      A
 Frequencies --   1440.7330              1480.6005              1491.2560
 Red. masses --      1.1071                 1.0889                 1.0833
 Frc consts  --      1.3539                 1.4064                 1.4193
 IR Inten    --     12.5331                 2.3483                 2.5612

                     40                     41                     42
                      A                      A                      A
 Frequencies --   1510.6268              1860.5577              3036.6936
 Red. masses --      1.0989                12.5626                 1.0621
 Frc consts  --      1.4775                25.6221                 5.7704
 IR Inten    --      3.9514               267.5302                30.3275

                     43                     44                     45
                      A                      A                      A
 Frequencies --   3046.2626              3051.4749              3064.3933
 Red. masses --      1.0668                 1.0612                 1.0597
 Frc consts  --      5.8325                 5.8219                 5.8628
 IR Inten    --     17.3167                15.3487                 8.2863

                     46                     47                     48
                      A                      A                      A
 Frequencies --   3082.1270              3092.8934              3104.3022
 Red. masses --      1.0991                 1.0987                 1.1047
 Frc consts  --      6.1517                 6.1923                 6.2721
 IR Inten    --     25.8693                27.1195                30.2622

                     49                     50                     51
                      A                      A                      A
 Frequencies --   3108.7275              3124.2259              3777.0711
 Red. masses --      1.0920                 1.1007                 1.0660
 Frc consts  --      6.2176                 6.3302                 8.9606
 IR Inten    --      7.4046                16.4372                36.3306

 - Thermochemistry -
 -------------------
 Temperature   298.150 Kelvin.  Pressure   1.00000 Atm.
 Atom     1 has atomic number  8 and mass  15.99491

 Molecular mass:   126.06808 amu.
 Principal axes and moments of inertia in atomic units:
                           1         2         3
     Eigenvalues --   696.004031157.120481384.64524
           X            0.99973   0.00828   0.02172
           Y           -0.00716   0.99865  -0.05144
           Z           -0.02211   0.05127   0.99844
 This molecule is an asymmetric top.
 Rotational symmetry number  1.
 Warning -- assumption of classical behavior for rotation
           may cause significant error
 Rotational temperatures (Kelvin)      0.12444     0.07485     0.06255
 Rotational constants (GHZ):           2.59300     1.55968     1.30340
 Zero-point vibrational energy     419119.6 (Joules/Mol)
                                  100.17200 (Kcal/Mol)
 Warning -- explicit consideration of  11 degrees of freedom as
           vibrations may cause significant error
 Vibrational temperatures:    106.48   221.49   275.83   355.28   439.89
          (Kelvin)            445.94   559.93   647.28   718.53   852.24
                              878.80   967.45  1053.25  1146.06  1178.01
                             1246.03  1284.11  1340.73  1350.27  1425.64
                             1475.38  1515.30  1542.00  1580.47  1596.76
                             1641.57  1685.72  1733.82  1752.02  1808.18
                             1820.04  1884.46  1912.76  1933.08  1950.62
                             1987.97  2072.89  2130.25  2145.58  2173.45
                             2676.92  4369.12  4382.89  4390.39  4408.97
                             4434.49  4449.98  4466.39  4472.76  4495.06
                             5434.36

 Zero-point correction=                           0.159634 (Hartree/Particle)
 Thermal correction to Energy=                    0.167836
 Thermal correction to Enthalpy=                  0.168780
 Thermal correction to Gibbs Free Energy=         0.126939
 Sum of electronic and zero-point Energies=           -423.050557
 Sum of electronic and thermal Energies=              -423.042355
 Sum of electronic and thermal Enthalpies=            -423.041411
 Sum of electronic and thermal Free Energies=         -423.083252

                     E (Thermal)             CV                S
                      KCal/Mol        Cal/Mol-Kelvin    Cal/Mol-Kelvin
 Total                  105.319             31.926             88.062
 Electronic               0.000              0.000              0.000
 Translational            0.889              2.981             40.409
 Rotational               0.889              2.981             28.502
 Vibrational            103.541             25.964             19.152
 Vibration     1          0.599              1.966              4.044
 Vibration     2          0.619              1.898              2.623
 Vibration     3          0.634              1.851              2.211
 Vibration     4          0.661              1.768              1.752
 Vibration     5          0.696              1.663              1.385
 Vibration     6          0.699              1.655              1.363
 Vibration     7          0.757              1.493              1.003
 Vibration     8          0.809              1.361              0.796
 Vibration     9          0.855              1.251              0.660
 Vibration    10          0.950              1.048              0.463
 Vibration    11          0.970              1.009              0.431

 Optimization completed.
    -- Stationary point found.
 Normal termination of Gaussian 09 at Mon Jan 27 22:52:29 2020.
