 Gaussian 09, Revision D.01,
 Gaussian 09:  ES64L-G09RevD.01 24-Apr-2013

 -----------------------------
 # b3lyp 6-31G(2df,p) opt Freq
 -----------------------------

 -----
 titel
 -----
 Symbolic Z-matrix:
 Charge =  0 Multiplicity = 1

 SCF Done:  E(RB3LYP) =  -423.156027555     A.U. after   13 cycles
 Optimization completed.
    -- Stationary point found.
 Normal termination of Gaussian 09 at Mon Jan 27 23:04:43 2020.

 ----------------------------------------------------------------------
 #N Geom=AllCheck Guess=TCheck SCRF=Check GenChk RB3LYP/6-31G(2df,p) Fr
 eq
 ----------------------------------------------------------------------

 Structure from the checkpoint file:  "/scratch/puck/g09_729a1d7b-8695-40bf-afad-274ad8c8a853/Gau-48928.chk"
 -----
 titel
 -----
 Charge =  0 Multiplicity = 1

                         Standard orientation:
 ---------------------------------------------------------------------
 Center     Atomic      Atomic             Coordinates (Angstroms)
 Number     Number       Type             X           Y           Z
 ---------------------------------------------------------------------
      1          8           0        2.450666   -0.569012   -0.611220
      2          6           0        1.064277   -0.332561   -0.614047
      3          6           0        0.669643    1.065574   -0.095252
      4          6           0       -0.773839    1.464986   -0.432869
      5          6           0       -1.763039    0.381616    0.002339
      6          6           0       -1.874845   -0.949655   -0.699313
      7          6           0       -1.147204   -0.855706    0.622848
      8          6           0        0.363341   -0.778997    0.692667
      9          8           0        0.724834    0.531117    1.266744
     10          1           0        2.781020   -0.258482    0.241322
     11          1           0        0.694621   -0.674600   -1.580684
     12          1           0        1.384907    1.878796   -0.250681
     13          1           0       -1.001823    2.389420    0.108030
     14          1           0       -0.855061    1.694169   -1.503283
     15          1           0       -2.676702    0.753331    0.453113
     16          1           0       -2.846252   -1.432537   -0.693331
     17          1           0       -1.312030   -1.122660   -1.608817
     18          1           0       -1.628311   -1.290721    1.492722
     19          1           0        0.825628   -1.605089    1.239168
 ---------------------------------------------------------------------

 SCF Done:  E(RB3LYP) =  -423.156027555     A.U. after    1 cycles

 The electronic state is 1-A.
 Alpha  occ. eigenvalues --  -19.13867 -19.13308 -10.23437 -10.23412 -10.23222
 Alpha  occ. eigenvalues --  -10.19515 -10.19334 -10.19078 -10.18959  -1.05241
 Alpha  occ. eigenvalues --   -1.00618  -0.86679  -0.75757  -0.72291  -0.66244
 Alpha  occ. eigenvalues --   -0.60486  -0.58291  -0.55362  -0.52445  -0.47676
 Alpha  occ. eigenvalues --   -0.46673  -0.45297  -0.44033  -0.43212  -0.39999
 Alpha  occ. eigenvalues --   -0.38740  -0.36704  -0.36093  -0.33999  -0.31827
 Alpha  occ. eigenvalues --   -0.28526  -0.27826  -0.25801  -0.25050
 Alpha virt. eigenvalues --    0.07653   0.08358   0.09537   0.10583   0.12156
 Alpha virt. eigenvalues --    0.13407   0.13495   0.14978   0.16498   0.16923
 Alpha virt. eigenvalues --    0.17754   0.18762   0.20164   0.21101   0.24144

 Mulliken charges:
               1
     1  O   -0.457847
     2  C    0.164283
     3  C    0.048136
     4  C   -0.250886
     5  C   -0.016172
     6  C   -0.306667
     7  C   -0.026014
     8  C    0.018190
     9  O   -0.323414
    10  H    0.287155
    11  H    0.083894
    12  H    0.075409
    13  H    0.112811
    14  H    0.103060
    15  H    0.090394
    16  H    0.112060
    17  H    0.118458
    18  H    0.089362
    19  H    0.077788
 Sum of Mulliken charges =   0.00000

 Dipole moment (field-independent basis, Debye):
    X=             -1.4320    Y=              0.1473    Z=             -0.2644  Tot=              1.4636
 Quadrupole moment (field-independent basis, Debye-Ang):
   XX=            -53.3151   YY=            -51.8803   ZZ=            -55.1041
   XY=              1.8296   XZ=              1.9302   YZ=             -2.6352

  Exact polarizability:  80.348   1.863  73.070   1.623  -1.930  65.616
 Approx polarizability: 108.227   1.480 108.330   3.554  -0.514 106.756

                      1                      2                      3
                      A                      A                      A
 Frequencies --    188.7726               232.9309               281.2470
 Red. masses --      4.2493                 2.4723                 2.8980
 Frc consts  --      0.0892                 0.0790                 0.1351
 IR Inten    --      4.4767                 1.0577                 4.2298

                      4                      5                      6
                      A                      A                      A
 Frequencies --    319.3781               394.4414               450.2562
 Red. masses --      3.3827                 2.3765                 6.1357
 Frc consts  --      0.2033                 0.2178                 0.7329
 IR Inten    --      0.2824                 5.5182                 3.3345

                      7                      8                      9
                      A                      A                      A
 Frequencies --    468.5577               483.9020               554.0282
 Red. masses --      1.2599                 2.9546                 4.3377
 Frc consts  --      0.1630                 0.4076                 0.7845
 IR Inten    --     71.9406                13.1975                 0.2215

                     10                     11                     12
                      A                      A                      A
 Frequencies --    700.4099               759.3287               822.4705
 Red. masses --      3.1049                 2.6867                 1.5491
 Frc consts  --      0.8974                 0.9127                 0.6174
 IR Inten    --      3.2319                 3.1334                 3.5972

                     13                     14                     15
                      A                      A                      A
 Frequencies --    836.3490               867.1618               873.3283
 Red. masses --      2.4019                 2.4008                 2.8841
 Frc consts  --      0.9899                 1.0637                 1.2960
 IR Inten    --      2.8177                27.2595                28.9233

                     16                     17                     18
                      A                      A                      A
 Frequencies --    899.8600               929.5883               951.4795
 Red. masses --      3.1614                 3.3365                 2.6489
 Frc consts  --      1.5083                 1.6987                 1.4129
 IR Inten    --     34.4645                32.9283                18.7565

                     19                     20                     21
                      A                      A                      A
 Frequencies --    960.8948               999.1546              1026.8202
 Red. masses --      2.6475                 1.8237                 1.9562
 Frc consts  --      1.4403                 1.0727                 1.2152
 IR Inten    --      6.2220                 3.7506                11.4761

                     22                     23                     24
                      A                      A                      A
 Frequencies --   1040.7977              1069.1925              1090.2812
 Red. masses --      2.3969                 1.4399                 1.9072
 Frc consts  --      1.5298                 0.9699                 1.3357
 IR Inten    --      8.7029                 2.2660                14.2657

                     25                     26                     27
                      A                      A                      A
 Frequencies --   1113.6034              1125.4962              1137.0235
 Red. masses --      1.2980                 1.1869                 2.5064
 Frc consts  --      0.9484                 0.8859                 1.9092
 IR Inten    --      2.3536                 0.5144               100.1782

                     28                     29                     30
                      A                      A                      A
 Frequencies --   1188.7576              1214.7101              1230.5159
 Red. masses --      1.3615                 1.5486                 1.4499
 Frc consts  --      1.1336                 1.3463                 1.2935
 IR Inten    --     11.0578                 1.7183                 4.1776

                     31                     32                     33
                      A                      A                      A
 Frequencies --   1244.4337              1266.5810              1283.9820
 Red. masses --      1.4213                 1.4844                 1.6084
 Frc consts  --      1.2968                 1.4031                 1.5623
 IR Inten    --      4.7021                 1.7414                 2.7002

                     34                     35                     36
                      A                      A                      A
 Frequencies --   1329.3659              1344.0812              1359.5354
 Red. masses --      1.4422                 1.5285                 1.5859
 Frc consts  --      1.5016                 1.6269                 1.7271
 IR Inten    --      2.1741                10.1668                17.5358

                     37                     38                     39
                      A                      A                      A
 Frequencies --   1376.7348              1406.5451              1451.9858
 Red. masses --      1.4513                 1.8228                 1.3924
 Frc consts  --      1.6207                 2.1248                 1.7296
 IR Inten    --      5.8356                 3.5534                46.3352

                     40                     41                     42
                      A                      A                      A
 Frequencies --   1475.9651              1498.8152              3026.0984
 Red. masses --      1.0963                 1.2464                 1.0633
 Frc consts  --      1.4072                 1.6497                 5.7369
 IR Inten    --      2.2597                 6.1054                29.6075

                     43                     44                     45
                      A                      A                      A
 Frequencies --   3068.4145              3075.2466              3080.8840
 Red. masses --      1.0922                 1.0946                 1.0886
 Frc consts  --      6.0587                 6.0993                 6.0881
 IR Inten    --     38.8947                35.9726                32.9460

                     46                     47                     48
                      A                      A                      A
 Frequencies --   3113.5159              3139.7444              3155.4394
 Red. masses --      1.0866                 1.0565                 1.0882
 Frc consts  --      6.2061                 6.1363                 6.3841
 IR Inten    --     20.9062                23.7311                13.6197

                     49                     50                     51
                      A                      A                      A
 Frequencies --   3165.3447              3221.6992              3778.4171
 Red. masses --      1.0916                 1.1140                 1.0650
 Frc consts  --      6.4442                 6.8128                 8.9580
 IR Inten    --     18.0306                13.3137                22.9308

 - Thermochemistry -
 -------------------
 Temperature   298.150 Kelvin.  Pressure   1.00000 Atm.
 Atom     1 has atomic number  8 and mass  15.99491

 Molecular mass:   126.06808 amu.
 Principal axes and moments of inertia in atomic units:
                           1         2         3
     Eigenvalues --   595.307101165.543911285.27381
           X            0.99988   0.01246   0.00922
           Y           -0.01174   0.99715  -0.07454
           Z           -0.01013   0.07442   0.99718
 This molecule is an asymmetric top.
 Rotational symmetry number  1.
 Warning -- assumption of classical behavior for rotation
           may cause significant error
 Rotational temperatures (Kelvin)      0.14549     0.07431     0.06739
 Rotational constants (GHZ):           3.03161     1.54841     1.40417
 Zero-point vibrational energy     425114.3 (Joules/Mol)
                                  101.60476 (Kcal/Mol)
 Warning -- explicit consideration of   9 degrees of freedom as
           vibrations may cause significant error
 Vibrational temperatures:    271.60   335.14   404.65   459.51   567.51
          (Kelvin)            647.82   674.15   696.23   797.12  1007.73
                             1092.50  1183.35  1203.32  1247.65  1256.52
                             1294.70  1337.47  1368.97  1382.51  1437.56
                             1477.36  1497.47  1538.33  1568.67  1602.22
                             1619.34  1635.92  1710.35  1747.69  1770.44
                             1790.46  1822.33  1847.36  1912.66  1933.83
                             1956.07  1980.81  2023.70  2089.08  2123.58
                             2156.46  4353.88  4414.76  4424.59  4432.70
                             4479.65  4517.39  4539.97  4554.22  4635.30
                             5436.29

 Zero-point correction=                           0.161917 (Hartree/Particle)
 Thermal correction to Energy=                    0.168955
 Thermal correction to Enthalpy=                  0.169899
 Thermal correction to Gibbs Free Energy=         0.130930
 Sum of electronic and zero-point Energies=           -422.994110
 Sum of electronic and thermal Energies=              -422.987073
 Sum of electronic and thermal Enthalpies=            -422.986128
 Sum of electronic and thermal Free Energies=         -423.025098

                     E (Thermal)             CV                S
                      KCal/Mol        Cal/Mol-Kelvin    Cal/Mol-Kelvin
 Total                  106.021             29.562             82.019
 Electronic               0.000              0.000              0.000
 Translational            0.889              2.981             40.409
 Rotational               0.889              2.981             28.280
 Vibrational            104.243             23.601             13.330
 Vibration     1          0.633              1.855              2.240
 Vibration     2          0.654              1.791              1.856
 Vibration     3          0.681              1.708              1.526
 Vibration     4          0.705              1.637              1.313
 Vibration     5          0.761              1.482              0.983
 Vibration     6          0.809              1.360              0.795
 Vibration     7          0.826              1.320              0.742
 Vibration     8          0.840              1.286              0.700
 Vibration     9          0.909              1.131              0.536

 Normal termination of Gaussian 09 at Mon Jan 27 23:57:44 2020.
