 Gaussian 09, Revision D.01,
 Gaussian 09:  ES64L-G09RevD.01 24-Apr-2013

 -----------------------------
 # b3lyp 6-31G(2df,p) opt Freq
 -----------------------------

 -----
 titel
 -----
 Symbolic Z-matrix:
 Charge =  0 Multiplicity = 1

 SCF Done:  E(RB3LYP) =  -423.199981732     A.U. after   13 cycles
 Optimization completed.
    -- Stationary point found.
 Normal termination of Gaussian 09 at Mon Jan 27 12:20:10 2020.

 ----------------------------------------------------------------------
 #N Geom=AllCheck Guess=TCheck SCRF=Check GenChk RB3LYP/6-31G(2df,p) Fr
 eq
 ----------------------------------------------------------------------

 Structure from the checkpoint file:  "/scratch/puck/g09_b38b3328-594d-462b-a4b3-6a328cd9861f/Gau-97896.chk"
 -----
 titel
 -----
 Charge =  0 Multiplicity = 1

                         Standard orientation:
 ---------------------------------------------------------------------
 Center     Atomic      Atomic             Coordinates (Angstroms)
 Number     Number       Type             X           Y           Z
 ---------------------------------------------------------------------
      1          6           0       -1.700649   -0.564681    0.724252
      2          8           0       -1.935759    0.136954   -0.510732
      3          6           0       -0.637229    0.479726   -1.001750
      4          6           0       -0.000004    1.480255   -0.000281
      5          6           0        0.637237    0.480117    1.001565
      6          8           0        1.935764    0.137151    0.510671
      7          6           0        1.700645   -0.564964   -0.724039
      8          6           0        0.189137   -0.807013   -0.751617
      9          6           0       -0.189140   -0.806714    0.751938
     10          1           0       -2.051754    0.034789    1.575634
     11          1           0       -2.269282   -1.501468    0.712564
     12          1           0       -0.740217    0.824063   -2.031131
     13          1           0        0.775006    2.115963   -0.435158
     14          1           0       -0.775022    2.116122    0.434353
     15          1           0        0.740231    0.824858    2.030811
     16          1           0        2.051734    0.034180   -1.575657
     17          1           0        2.269288   -1.501740   -0.711990
     18          1           0       -0.138529   -1.660245   -1.345901
     19          1           0        0.138522   -1.659712    1.346560
 ---------------------------------------------------------------------

 SCF Done:  E(RB3LYP) =  -423.199981732     A.U. after    1 cycles

 The electronic state is 1-A.
 Alpha  occ. eigenvalues --  -19.13381 -19.13381 -10.23236 -10.23236 -10.22805
 Alpha  occ. eigenvalues --  -10.22805 -10.19188 -10.19168 -10.17717  -1.04373
 Alpha  occ. eigenvalues --   -1.02506  -0.82026  -0.74841  -0.74809  -0.65605
 Alpha  occ. eigenvalues --   -0.61147  -0.57626  -0.54646  -0.52861  -0.49830
 Alpha  occ. eigenvalues --   -0.47242  -0.43559  -0.42860  -0.42425  -0.39687
 Alpha  occ. eigenvalues --   -0.38169  -0.36704  -0.35864  -0.34425  -0.33671
 Alpha  occ. eigenvalues --   -0.32750  -0.29112  -0.24671  -0.24171
 Alpha virt. eigenvalues --    0.08467   0.10270   0.11787   0.12072   0.13284
 Alpha virt. eigenvalues --    0.14410   0.14765   0.15582   0.16356   0.17050
 Alpha virt. eigenvalues --    0.17603   0.18765   0.19291   0.19327   0.20634

 Mulliken charges:
               1
     1  C   -0.111768
     2  O   -0.272927
     3  C    0.099730
     4  C   -0.251878
     5  C    0.099730
     6  O   -0.272927
     7  C   -0.111767
     8  C   -0.056233
     9  C   -0.056234
    10  H    0.098071
    11  H    0.106454
    12  H    0.076742
    13  H    0.109144
    14  H    0.109145
    15  H    0.076741
    16  H    0.098071
    17  H    0.106454
    18  H    0.076726
    19  H    0.076725
 Sum of Mulliken charges =   0.00000

 Dipole moment (field-independent basis, Debye):
    X=              0.0000    Y=             -0.6919    Z=              0.0001  Tot=              0.6919
 Quadrupole moment (field-independent basis, Debye-Ang):
   XX=            -60.7779   YY=            -50.6699   ZZ=            -50.4393
   XY=             -0.0009   XZ=             -4.5431   YZ=              0.0001

  Exact polarizability:  74.939  -0.001  70.845  -5.169   0.000  71.488
 Approx polarizability: 107.871  -0.001 103.667  -3.952   0.001 108.711

                      1                      2                      3
                      A                      A                      A
 Frequencies --    235.9626               247.7276               337.3910
 Red. masses --      2.7235                 2.1840                 2.4769
 Frc consts  --      0.0893                 0.0790                 0.1661
 IR Inten    --      2.4491                 3.8496                 1.3607

                      4                      5                      6
                      A                      A                      A
 Frequencies --    378.1917               483.6923               508.8272
 Red. masses --      5.2373                 2.1095                 6.4093
 Frc consts  --      0.4413                 0.2908                 0.9777
 IR Inten    --      7.6951                 1.1480                 1.3290

                      7                      8                      9
                      A                      A                      A
 Frequencies --    663.2012               728.0967               752.2626
 Red. masses --      4.2881                 3.3337                 3.8633
 Frc consts  --      1.1112                 1.0413                 1.2881
 IR Inten    --      3.4298                 4.2874                 0.1226

                     10                     11                     12
                      A                      A                      A
 Frequencies --    791.7278               863.3520               874.6565
 Red. masses --      3.4159                 2.4577                 2.7870
 Frc consts  --      1.2616                 1.0793                 1.2562
 IR Inten    --      2.1329                 2.9736                20.8106

                     13                     14                     15
                      A                      A                      A
 Frequencies --    897.3065               913.5085               938.1176
 Red. masses --      3.6786                 2.9002                 3.7419
 Frc consts  --      1.7451                 1.4259                 1.9402
 IR Inten    --      8.6671                 1.0917                 0.8649

                     16                     17                     18
                      A                      A                      A
 Frequencies --    949.7391               957.2979               988.7190
 Red. masses --      2.0593                 1.5874                 2.0784
 Frc consts  --      1.0944                 0.8571                 1.1971
 IR Inten    --     32.2967                 0.7606                 8.6952

                     19                     20                     21
                      A                      A                      A
 Frequencies --    993.5725              1025.6075              1059.4538
 Red. masses --      2.3133                 1.8621                 3.0372
 Frc consts  --      1.3455                 1.1540                 2.0085
 IR Inten    --     39.3393                 2.2472                18.0281

                     22                     23                     24
                      A                      A                      A
 Frequencies --   1062.9035              1085.0227              1092.1529
 Red. masses --      1.9740                 1.5075                 2.7823
 Frc consts  --      1.3140                 1.0456                 1.9554
 IR Inten    --     37.5266                11.4547                55.6311

                     25                     26                     27
                      A                      A                      A
 Frequencies --   1152.5680              1179.2883              1186.8750
 Red. masses --      1.8743                 1.3140                 1.1962
 Frc consts  --      1.4670                 1.0767                 0.9928
 IR Inten    --     11.3960                 1.6756                 0.3493

                     28                     29                     30
                      A                      A                      A
 Frequencies --   1203.3661              1236.1779              1256.5046
 Red. masses --      2.0501                 1.3649                 1.4308
 Frc consts  --      1.7491                 1.2289                 1.3310
 IR Inten    --     11.8412                 0.0708                 3.1143

                     31                     32                     33
                      A                      A                      A
 Frequencies --   1273.1719              1287.6773              1302.1945
 Red. masses --      1.3401                 1.2721                 1.2815
 Frc consts  --      1.2799                 1.2428                 1.2803
 IR Inten    --      1.2670                 0.5346                 0.3495

                     34                     35                     36
                      A                      A                      A
 Frequencies --   1320.1092              1330.6285              1348.0581
 Red. masses --      1.9074                 1.6655                 1.5400
 Frc consts  --      1.9584                 1.7374                 1.6489
 IR Inten    --      1.5815                19.5751                 0.7951

                     37                     38                     39
                      A                      A                      A
 Frequencies --   1375.4283              1397.3905              1476.9423
 Red. masses --      1.3811                 1.4379                 1.0968
 Frc consts  --      1.5394                 1.6543                 1.4097
 IR Inten    --     10.9700                 0.2845                 4.4929

                     40                     41                     42
                      A                      A                      A
 Frequencies --   1526.9286              1527.8474              3005.7594
 Red. masses --      1.0914                 1.0886                 1.0642
 Frc consts  --      1.4992                 1.4972                 5.6648
 IR Inten    --      0.1999                 0.9747                 0.1377

                     43                     44                     45
                      A                      A                      A
 Frequencies --   3005.9664              3052.8474              3052.9429
 Red. masses --      1.0638                 1.1014                 1.1007
 Frc consts  --      5.6637                 6.0480                 6.0446
 IR Inten    --    132.2040                20.1477                54.7374

                     46                     47                     48
                      A                      A                      A
 Frequencies --   3066.9338              3111.5967              3114.1922
 Red. masses --      1.0596                 1.0900                 1.0876
 Frc consts  --      5.8721                 6.2176                 6.2145
 IR Inten    --     19.8043                 2.3342                33.9071

                     49                     50                     51
                      A                      A                      A
 Frequencies --   3116.4040              3122.5270              3126.8325
 Red. masses --      1.0931                 1.0999                 1.0930
 Frc consts  --      6.2549                 6.3186                 6.2961
 IR Inten    --     42.5062                45.4499                 4.3066

 - Thermochemistry -
 -------------------
 Temperature   298.150 Kelvin.  Pressure   1.00000 Atm.
 Atom     1 has atomic number  6 and mass  12.00000

 Molecular mass:   126.06808 amu.
 Principal axes and moments of inertia in atomic units:
                           1         2         3
     Eigenvalues --   545.712431062.888521064.37287
           X            0.99885  -0.04789   0.00003
           Y            0.00001   0.00072   1.00000
           Z            0.04789   0.99885  -0.00072
 This molecule is an asymmetric top.
 Rotational symmetry number  1.
 Warning -- assumption of classical behavior for rotation
           may cause significant error
 Rotational temperatures (Kelvin)      0.15872     0.08149     0.08138
 Rotational constants (GHZ):           3.30713     1.69796     1.69559
 Zero-point vibrational energy     430569.8 (Joules/Mol)
                                  102.90865 (Kcal/Mol)
 Warning -- explicit consideration of   6 degrees of freedom as
           vibrations may cause significant error
 Vibrational temperatures:    339.50   356.42   485.43   544.13   695.92
          (Kelvin)            732.09   954.20  1047.57  1082.34  1139.12
                             1242.17  1258.43  1291.02  1314.33  1349.74
                             1366.46  1377.34  1422.54  1429.53  1475.62
                             1524.32  1529.28  1561.10  1571.36  1658.29
                             1696.73  1707.65  1731.37  1778.58  1807.83
                             1831.81  1852.68  1873.57  1899.34  1914.48
                             1939.55  1978.93  2010.53  2124.99  2196.91
                             2198.23  4324.61  4324.91  4392.36  4392.50
                             4412.63  4476.89  4480.62  4483.80  4492.61
                             4498.81

 Zero-point correction=                           0.163995 (Hartree/Particle)
 Thermal correction to Energy=                    0.170166
 Thermal correction to Enthalpy=                  0.171111
 Thermal correction to Gibbs Free Energy=         0.133780
 Sum of electronic and zero-point Energies=           -423.035986
 Sum of electronic and thermal Energies=              -423.029815
 Sum of electronic and thermal Enthalpies=            -423.028871
 Sum of electronic and thermal Free Energies=         -423.066202

                     E (Thermal)             CV                S
                      KCal/Mol        Cal/Mol-Kelvin    Cal/Mol-Kelvin
 Total                  106.781             26.470             78.569
 Electronic               0.000              0.000              0.000
 Translational            0.889              2.981             40.409
 Rotational               0.889              2.981             27.914
 Vibrational            105.004             20.508             10.246
 Vibration     1          0.655              1.786              1.833
 Vibration     2          0.661              1.767              1.747
 Vibration     3          0.718              1.601              1.224
 Vibration     4          0.748              1.517              1.046
 Vibration     5          0.840              1.286              0.700
 Vibration     6          0.864              1.230              0.636

 Optimization completed.
    -- Stationary point found.
 Normal termination of Gaussian 09 at Mon Jan 27 13:08:32 2020.
