 Gaussian 09, Revision D.01,
 Gaussian 09:  ES64L-G09RevD.01 24-Apr-2013

 -----------------------------
 # b3lyp 6-31G(2df,p) opt Freq
 -----------------------------

 -----
 titel
 -----
 Symbolic Z-matrix:
 Charge =  0 Multiplicity = 1

 SCF Done:  E(RB3LYP) =  -423.139764575     A.U. after   14 cycles
 Optimization completed.
    -- Stationary point found.
 Normal termination of Gaussian 09 at Tue Jan 28 14:09:25 2020.

 ----------------------------------------------------------------------
 #N Geom=AllCheck Guess=TCheck SCRF=Check GenChk RB3LYP/6-31G(2df,p) Fr
 eq
 ----------------------------------------------------------------------

 Structure from the checkpoint file:  "/scratch/puck/g09_66cc66ac-ac21-4ee2-816e-2dccbb310b35/Gau-3896.chk"
 -----
 titel
 -----
 Charge =  0 Multiplicity = 1

                         Standard orientation:
 ---------------------------------------------------------------------
 Center     Atomic      Atomic             Coordinates (Angstroms)
 Number     Number       Type             X           Y           Z
 ---------------------------------------------------------------------
      1          6           0       -3.391205    0.190390    0.000006
      2          8           0       -2.086708   -0.340969   -0.000055
      3          6           0       -1.089080    0.658916    0.000043
      4          6           0        0.255490    0.000502    0.000025
      5          6           0        0.863684   -0.976810    1.069367
      6          6           0        2.004006   -0.866812   -0.000019
      7          6           0        0.863542   -0.976986   -1.069237
      8          6           0        1.662138    0.629352   -0.000164
      9          8           0        2.183542    1.701644   -0.000037
     10          1           0       -3.580281    0.809124   -0.891465
     11          1           0       -4.087107   -0.651862   -0.000088
     12          1           0       -3.580277    0.808926    0.891616
     13          1           0       -1.187930    1.308901   -0.886382
     14          1           0       -1.187978    1.308769    0.886559
     15          1           0        1.061341   -0.577086    2.066021
     16          1           0        0.372315   -1.950941    1.107179
     17          1           0        2.970558   -1.363983   -0.000035
     18          1           0        1.061066   -0.577429   -2.065984
     19          1           0        0.372162   -1.951120   -1.106815
 ---------------------------------------------------------------------

 SCF Done:  E(RB3LYP) =  -423.139764575     A.U. after    1 cycles

 The electronic state is 1-A.
 Alpha  occ. eigenvalues --  -19.14639 -19.13476 -10.27280 -10.23620 -10.22873
 Alpha  occ. eigenvalues --  -10.21426 -10.21105 -10.20681 -10.20680  -1.04801
 Alpha  occ. eigenvalues --   -1.03897  -0.92297  -0.74782  -0.67889  -0.66534
 Alpha  occ. eigenvalues --   -0.63261  -0.60750  -0.50748  -0.50041  -0.48553
 Alpha  occ. eigenvalues --   -0.48132  -0.45358  -0.44455  -0.43160  -0.40901
 Alpha  occ. eigenvalues --   -0.40618  -0.36568  -0.35152  -0.33881  -0.33641
 Alpha  occ. eigenvalues --   -0.32613  -0.31650  -0.26172  -0.24088
 Alpha virt. eigenvalues --    0.01313   0.07903   0.10763   0.11005   0.12530
 Alpha virt. eigenvalues --    0.13148   0.13920   0.14338   0.14887   0.15778
 Alpha virt. eigenvalues --    0.16668   0.17099   0.17701   0.19184   0.19974

 Mulliken charges:
               1
     1  C   -0.220788
     2  O   -0.240364
     3  C   -0.211781
     4  C    0.192196
     5  C   -0.259625
     6  C   -0.178227
     7  C   -0.259619
     8  C    0.419896
     9  O   -0.332093
    10  H    0.106352
    11  H    0.128608
    12  H    0.106352
    13  H    0.098798
    14  H    0.098798
    15  H    0.110630
    16  H    0.117149
    17  H    0.095952
    18  H    0.110626
    19  H    0.117139
 Sum of Mulliken charges =   0.00000

 Dipole moment (field-independent basis, Debye):
    X=             -1.8323    Y=             -1.5793    Z=              0.0001  Tot=              2.4191
 Quadrupole moment (field-independent basis, Debye-Ang):
   XX=            -53.1392   YY=            -56.9722   ZZ=            -51.5221
   XY=             -7.9396   XZ=             -0.0003   YZ=             -0.0002

  Exact polarizability:  89.144   0.888  75.196   0.000   0.000  67.989
 Approx polarizability: 113.621   7.378 120.630   0.000   0.001 102.758

                      1                      2                      3
                      A                      A                      A
 Frequencies --     61.6277                90.1417               105.5344
 Red. masses --      2.7238                 2.4245                 4.3887
 Frc consts  --      0.0061                 0.0116                 0.0288
 IR Inten    --      1.3662                 4.6090                 4.3863

                      4                      5                      6
                      A                      A                      A
 Frequencies --    192.5010               231.1767               268.8081
 Red. masses --      3.9742                 1.2431                 6.5428
 Frc consts  --      0.0868                 0.0391                 0.2785
 IR Inten    --      0.7665                 2.6500                 1.2250

                      7                      8                      9
                      A                      A                      A
 Frequencies --    316.6343               344.2559               515.7939
 Red. masses --      2.1440                 3.1656                 2.0925
 Frc consts  --      0.1266                 0.2210                 0.3280
 IR Inten    --      0.0220                 1.3591                 1.9359

                     10                     11                     12
                      A                      A                      A
 Frequencies --    558.6508               669.0062               740.5067
 Red. masses --      3.8655                 3.4390                 4.7990
 Frc consts  --      0.7108                 0.9069                 1.5505
 IR Inten    --      2.9648                 5.9086                 3.7738

                     13                     14                     15
                      A                      A                      A
 Frequencies --    766.2277               807.7866               835.5304
 Red. masses --      4.0551                 3.4397                 2.9904
 Frc consts  --      1.4027                 1.3224                 1.2300
 IR Inten    --      0.0154                 2.3013                19.4215

                     16                     17                     18
                      A                      A                      A
 Frequencies --    892.1288               920.4385               986.6200
 Red. masses --      2.0138                 2.6618                 2.5574
 Frc consts  --      0.9443                 1.3286                 1.4668
 IR Inten    --      0.4140                 0.7442                11.0508

                     19                     20                     21
                      A                      A                      A
 Frequencies --   1002.8999              1004.7423              1033.5732
 Red. masses --      1.0260                 3.2729                 1.5569
 Frc consts  --      0.6080                 1.9467                 0.9799
 IR Inten    --      0.0431                38.1147                 0.2787

                     22                     23                     24
                      A                      A                      A
 Frequencies --   1048.4668              1080.6360              1143.7664
 Red. masses --      1.4716                 1.5352                 2.2120
 Frc consts  --      0.9531                 1.0563                 1.7050
 IR Inten    --      0.0001                 1.8165                87.1247

                     25                     26                     27
                      A                      A                      A
 Frequencies --   1145.9233              1164.9205              1185.6699
 Red. masses --      1.6120                 2.7787                 1.6848
 Frc consts  --      1.2472                 2.2217                 1.3955
 IR Inten    --      1.6564                69.4157                 6.0909

                     28                     29                     30
                      A                      A                      A
 Frequencies --   1186.2022              1198.0506              1225.8549
 Red. masses --      1.3228                 1.5388                 1.8915
 Frc consts  --      1.0966                 1.3014                 1.6747
 IR Inten    --      2.4148                 4.2530                35.0984

                     31                     32                     33
                      A                      A                      A
 Frequencies --   1233.6623              1272.5660              1341.7493
 Red. masses --      1.7598                 1.1585                 2.3623
 Frc consts  --      1.5780                 1.1054                 2.5057
 IR Inten    --     11.1642                 2.3739                 8.5345

                     34                     35                     36
                      A                      A                      A
 Frequencies --   1431.1160              1481.5589              1485.5997
 Red. masses --      1.7643                 1.1877                 1.0466
 Frc consts  --      2.1290                 1.5360                 1.3610
 IR Inten    --     38.3598                 0.2405                 5.1350

                     37                     38                     39
                      A                      A                      A
 Frequencies --   1496.0126              1500.5843              1520.0772
 Red. masses --      1.0859                 1.0712                 1.0830
 Frc consts  --      1.4319                 1.4212                 1.4744
 IR Inten    --      0.0880                 6.6850                 2.3010

                     40                     41                     42
                      A                      A                      A
 Frequencies --   1533.5468              1910.5422              2950.9956
 Red. masses --      1.1603                12.3103                 1.0530
 Frc consts  --      1.6078                26.4748                 5.4030
 IR Inten    --      0.1784               376.9152                29.0363

                     43                     44                     45
                      A                      A                      A
 Frequencies --   2972.6906              2978.4432              3016.1200
 Red. masses --      1.0383                 1.1044                 1.1033
 Frc consts  --      5.4057                 5.7724                 5.9134
 IR Inten    --     75.4676                48.3758                51.5788

                     46                     47                     48
                      A                      A                      A
 Frequencies --   3067.1818              3067.6150              3116.2897
 Red. masses --      1.0539                 1.0532                 1.0961
 Frc consts  --      5.8415                 5.8395                 6.2717
 IR Inten    --      7.9346                44.1865                27.4990

                     49                     50                     51
                      A                      A                      A
 Frequencies --   3139.9334              3140.7615              3157.1349
 Red. masses --      1.1136                 1.1117                 1.0939
 Frc consts  --      6.4687                 6.4609                 6.4243
 IR Inten    --     16.8709                19.3133                28.5556

 - Thermochemistry -
 -------------------
 Temperature   298.150 Kelvin.  Pressure   1.00000 Atm.
 Atom     1 has atomic number  6 and mass  12.00000

 Molecular mass:   126.06808 amu.
 Principal axes and moments of inertia in atomic units:
                           1         2         3
     Eigenvalues --   525.273361774.179432001.61561
           X            0.99934  -0.03626   0.00000
           Y            0.03626   0.99934   0.00000
           Z            0.00000   0.00000   1.00000
 This molecule is an asymmetric top.
 Rotational symmetry number  1.
 Warning -- assumption of classical behavior for rotation
           may cause significant error
 Rotational temperatures (Kelvin)      0.16489     0.04882     0.04327
 Rotational constants (GHZ):           3.43581     1.01723     0.90164
 Zero-point vibrational energy     415931.1 (Joules/Mol)
                                   99.40993 (Kcal/Mol)
 Warning -- explicit consideration of  10 degrees of freedom as
           vibrations may cause significant error
 Vibrational temperatures:     88.67   129.69   151.84   276.97   332.61
          (Kelvin)            386.75   455.57   495.31   742.11   803.77
                              962.55  1065.42  1102.43  1162.22  1202.14
                             1283.57  1324.30  1419.52  1442.95  1445.60
                             1487.08  1508.51  1554.79  1645.62  1648.73
                             1676.06  1705.91  1706.68  1723.73  1763.73
                             1774.96  1830.94  1930.48  2059.05  2131.63
                             2137.44  2152.43  2159.00  2187.05  2206.43
                             2748.84  4245.82  4277.03  4285.31  4339.52
                             4412.98  4413.61  4483.64  4517.66  4518.85
                             4542.41

 Zero-point correction=                           0.158420 (Hartree/Particle)
 Thermal correction to Energy=                    0.167217
 Thermal correction to Enthalpy=                  0.168161
 Thermal correction to Gibbs Free Energy=         0.124127
 Sum of electronic and zero-point Energies=           -422.981345
 Sum of electronic and thermal Energies=              -422.972547
 Sum of electronic and thermal Enthalpies=            -422.971603
 Sum of electronic and thermal Free Energies=         -423.015637

                     E (Thermal)             CV                S
                      KCal/Mol        Cal/Mol-Kelvin    Cal/Mol-Kelvin
 Total                  104.930             32.019             92.678
 Electronic               0.000              0.000              0.000
 Translational            0.889              2.981             40.409
 Rotational               0.889              2.981             29.013
 Vibrational            103.153             26.057             23.256
 Vibration     1          0.597              1.973              4.404
 Vibration     2          0.602              1.956              3.657
 Vibration     3          0.605              1.945              3.349
 Vibration     4          0.634              1.850              2.204
 Vibration     5          0.653              1.793              1.870
 Vibration     6          0.673              1.731              1.604
 Vibration     7          0.704              1.642              1.327
 Vibration     8          0.723              1.587              1.192
 Vibration     9          0.871              1.215              0.620
 Vibration    10          0.914              1.121              0.527

 Optimization completed.
    -- Stationary point found.
 Normal termination of Gaussian 09 at Tue Jan 28 14:55:58 2020.
