 Gaussian 09, Revision D.01,
 Gaussian 09:  ES64L-G09RevD.01 24-Apr-2013

 -----------------------------
 # b3lyp 6-31G(2df,p) opt Freq
 -----------------------------

 -----
 titel
 -----
 Symbolic Z-matrix:
 Charge =  0 Multiplicity = 1

 SCF Done:  E(RB3LYP) =  -423.176630706     A.U. after   14 cycles
 SCF Done:  E(RB3LYP) =  -423.176630651     A.U. after    7 cycles
 SCF Done:  E(RB3LYP) =  -423.176630385     A.U. after    7 cycles
 Optimization completed.
    -- Stationary point found.
 Normal termination of Gaussian 09 at Tue Jan 28 03:19:32 2020.

 ----------------------------------------------------------------------
 #N Geom=AllCheck Guess=TCheck SCRF=Check GenChk RB3LYP/6-31G(2df,p) Fr
 eq
 ----------------------------------------------------------------------

 Structure from the checkpoint file:  "/scratch/puck/g09_a475b7aa-4800-4fc5-bfb6-5903974ee1ae/Gau-65436.chk"
 -----
 titel
 -----
 Charge =  0 Multiplicity = 1

                         Standard orientation:
 ---------------------------------------------------------------------
 Center     Atomic      Atomic             Coordinates (Angstroms)
 Number     Number       Type             X           Y           Z
 ---------------------------------------------------------------------
      1          6           0       -2.682388   -0.710140    0.330349
      2          6           0       -1.551623   -0.092622   -0.474306
      3          8           0       -0.391185   -0.973077   -0.512106
      4          6           0        0.657965   -0.106788   -0.060990
      5          6           0        0.039399    0.588927    1.188438
      6          6           0       -0.885945    1.182565    0.081643
      7          6           0        0.390325    1.225264   -0.815726
      8          6           0        1.981347   -0.807773   -0.034126
      9          8           0        3.020348   -0.242348    0.198349
     10          1           0       -2.414620   -0.838596    1.382352
     11          1           0       -3.574926   -0.077798    0.273517
     12          1           0       -2.936918   -1.693142   -0.076448
     13          1           0       -1.891694    0.070705   -1.505816
     14          1           0       -0.386462   -0.063031    1.952658
     15          1           0        0.707171    1.329485    1.628242
     16          1           0       -1.522856    2.050901    0.246073
     17          1           0        0.266877    1.154948   -1.899053
     18          1           0        1.093039    2.012354   -0.543803
     19          1           0        1.932613   -1.899025   -0.239355
 ---------------------------------------------------------------------

 SCF Done:  E(RB3LYP) =  -423.176630385     A.U. after    1 cycles

 The electronic state is 1-A.
 Alpha  occ. eigenvalues --  -19.14288 -19.14283 -10.27178 -10.24917 -10.23947
 Alpha  occ. eigenvalues --  -10.20785 -10.19757 -10.19623 -10.18189  -1.05576
 Alpha  occ. eigenvalues --   -1.04353  -0.84520  -0.77610  -0.69712  -0.67583
 Alpha  occ. eigenvalues --   -0.62125  -0.56871  -0.55321  -0.51027  -0.49359
 Alpha  occ. eigenvalues --   -0.47399  -0.44785  -0.42452  -0.41923  -0.40273
 Alpha  occ. eigenvalues --   -0.38251  -0.37518  -0.36361  -0.35823  -0.35230
 Alpha  occ. eigenvalues --   -0.32535  -0.31651  -0.25424  -0.24980
 Alpha virt. eigenvalues --   -0.03372   0.09050   0.09486   0.11413   0.11886
 Alpha virt. eigenvalues --    0.13001   0.13913   0.14632   0.16097   0.17021
 Alpha virt. eigenvalues --    0.18293   0.19103   0.19549   0.20084   0.22162

 Mulliken charges:
               1
     1  C   -0.413689
     2  C    0.155685
     3  O   -0.345836
     4  C    0.366203
     5  C   -0.271329
     6  C   -0.094360
     7  C   -0.270272
     8  C    0.058951
     9  O   -0.260230
    10  H    0.121020
    11  H    0.116185
    12  H    0.131465
    13  H    0.077941
    14  H    0.107005
    15  H    0.122427
    16  H    0.078394
    17  H    0.105078
    18  H    0.122246
    19  H    0.093118
 Sum of Mulliken charges =   0.00000

 Dipole moment (field-independent basis, Debye):
    X=             -2.7262    Y=              0.9379    Z=              0.0976  Tot=              2.8847
 Quadrupole moment (field-independent basis, Debye-Ang):
   XX=            -60.4235   YY=            -52.3735   ZZ=            -51.9742
   XY=             -1.2198   XZ=             -0.8646   YZ=             -0.7269

  Exact polarizability:  90.279   1.305  71.721   0.908   0.131  65.587
 Approx polarizability: 123.468   3.408 108.839   3.487   2.283 100.438

                      1                      2                      3
                      A                      A                      A
 Frequencies --     19.4342               155.1442               179.5437
 Red. masses --      3.2010                 3.8336                 2.8346
 Frc consts  --      0.0007                 0.0544                 0.0538
 IR Inten    --      9.1504                 3.1085                 3.9332

                      4                      5                      6
                      A                      A                      A
 Frequencies --    216.2846               270.0791               299.6743
 Red. masses --      1.1283                 2.5344                 2.8264
 Frc consts  --      0.0311                 0.1089                 0.1495
 IR Inten    --      0.5451                 0.4446                 4.1721

                      7                      8                      9
                      A                      A                      A
 Frequencies --    435.4072               493.0984               501.1874
 Red. masses --      4.7421                 2.5140                 2.6087
 Frc consts  --      0.5297                 0.3602                 0.3861
 IR Inten    --      0.7259                 1.3398                 2.3919

                     10                     11                     12
                      A                      A                      A
 Frequencies --    555.5268               659.2436               716.9243
 Red. masses --      2.4451                 3.3371                 3.9330
 Frc consts  --      0.4446                 0.8545                 1.1910
 IR Inten    --      2.9214                 1.9624                34.2624

                     13                     14                     15
                      A                      A                      A
 Frequencies --    803.5684               825.0731               855.9429
 Red. masses --      2.6286                 2.6357                 2.2076
 Frc consts  --      1.0001                 1.0571                 0.9529
 IR Inten    --      0.2855                 0.9305                 0.5870

                     16                     17                     18
                      A                      A                      A
 Frequencies --    874.5425               881.8553               962.5534
 Red. masses --      4.7935                 2.4454                 2.0557
 Frc consts  --      2.1600                 1.1204                 1.1222
 IR Inten    --     17.6549                29.4987                 5.6984

                     19                     20                     21
                      A                      A                      A
 Frequencies --    970.8377               988.0630              1020.5273
 Red. masses --      1.7443                 2.5142                 1.1200
 Frc consts  --      0.9686                 1.4462                 0.6873
 IR Inten    --      5.4435                34.6890                 0.3424

                     22                     23                     24
                      A                      A                      A
 Frequencies --   1033.0250              1072.5564              1106.0061
 Red. masses --      1.6557                 1.4453                 1.9081
 Frc consts  --      1.0410                 0.9796                 1.3752
 IR Inten    --     21.0305                 5.0165                15.2964

                     25                     26                     27
                      A                      A                      A
 Frequencies --   1110.8148              1143.8271              1161.0713
 Red. masses --      1.9473                 2.3036                 1.6548
 Frc consts  --      1.4157                 1.7757                 1.3144
 IR Inten    --     43.0542                12.4477                 4.7350

                     28                     29                     30
                      A                      A                      A
 Frequencies --   1175.4792              1216.0964              1225.2903
 Red. masses --      1.6808                 1.6206                 1.6208
 Frc consts  --      1.3683                 1.4121                 1.4337
 IR Inten    --     15.6076                10.8014                 1.7728

                     31                     32                     33
                      A                      A                      A
 Frequencies --   1288.7160              1296.8915              1329.8095
 Red. masses --      2.2635                 2.2115                 1.4865
 Frc consts  --      2.2148                 2.1915                 1.5488
 IR Inten    --      1.8290                 0.4395                 4.3234

                     34                     35                     36
                      A                      A                      A
 Frequencies --   1394.8373              1409.7641              1415.8242
 Red. masses --      1.2753                 1.2901                 1.4266
 Frc consts  --      1.4618                 1.5106                 1.6849
 IR Inten    --      8.4943                13.7667                14.3410

                     37                     38                     39
                      A                      A                      A
 Frequencies --   1473.9667              1489.6900              1496.7154
 Red. masses --      1.0915                 1.0620                 1.0541
 Frc consts  --      1.3972                 1.3886                 1.3913
 IR Inten    --      0.9551                 3.6929                 5.0014

                     40                     41                     42
                      A                      A                      A
 Frequencies --   1514.1915              1825.3690              2903.6608
 Red. masses --      1.1345                10.6489                 1.0841
 Frc consts  --      1.5326                20.9052                 5.3852
 IR Inten    --      6.2465               140.7130                96.5851

                     43                     44                     45
                      A                      A                      A
 Frequencies --   3009.6425              3040.6053              3074.0336
 Red. masses --      1.0848                 1.0361                 1.0587
 Frc consts  --      5.7893                 5.6438                 5.8942
 IR Inten    --     41.0572                15.5923                30.2063

                     46                     47                     48
                      A                      A                      A
 Frequencies --   3085.7273              3110.2139              3122.4386
 Red. masses --      1.0575                 1.0999                 1.1015
 Frc consts  --      5.9327                 6.2686                 6.3273
 IR Inten    --     11.3367                14.4966                25.9207

                     49                     50                     51
                      A                      A                      A
 Frequencies --   3126.5898              3151.7159              3157.9129
 Red. masses --      1.0908                 1.1095                 1.1077
 Frc consts  --      6.2823                 6.4933                 6.5086
 IR Inten    --     38.0837                11.1925                22.0441

 - Thermochemistry -
 -------------------
 Temperature   298.150 Kelvin.  Pressure   1.00000 Atm.
 Atom     1 has atomic number  6 and mass  12.00000

 Molecular mass:   126.06808 amu.
 Principal axes and moments of inertia in atomic units:
                           1         2         3
     Eigenvalues --   487.468011479.865561619.70225
           X            0.99987   0.01275  -0.00938
           Y           -0.01309   0.99923  -0.03690
           Z            0.00890   0.03701   0.99928
 This molecule is an asymmetric top.
 Rotational symmetry number  1.
 Warning -- assumption of classical behavior for rotation
           may cause significant error
 Rotational temperatures (Kelvin)      0.17768     0.05853     0.05348
 Rotational constants (GHZ):           3.70228     1.21953     1.11424
 Zero-point vibrational energy     416581.5 (Joules/Mol)
                                   99.56538 (Kcal/Mol)
 Warning -- explicit consideration of  10 degrees of freedom as
           vibrations may cause significant error
 Vibrational temperatures:     27.96   223.22   258.32   311.18   388.58
          (Kelvin)            431.16   626.45   709.46   721.10   799.28
                              948.50  1031.49  1156.15  1187.09  1231.51
                             1258.27  1268.79  1384.90  1396.82  1421.60
                             1468.31  1486.29  1543.17  1591.29  1598.21
                             1645.71  1670.52  1691.25  1749.69  1762.92
                             1854.17  1865.94  1913.30  2006.86  2028.33
                             2037.05  2120.71  2143.33  2153.44  2178.58
                             2626.30  4177.71  4330.20  4374.75  4422.84
                             4439.67  4474.90  4492.49  4498.46  4534.61
                             4543.53

 Zero-point correction=                           0.158668 (Hartree/Particle)
 Thermal correction to Energy=                    0.166956
 Thermal correction to Enthalpy=                  0.167900
 Thermal correction to Gibbs Free Energy=         0.124718
 Sum of electronic and zero-point Energies=           -423.017963
 Sum of electronic and thermal Energies=              -423.009675
 Sum of electronic and thermal Enthalpies=            -423.008730
 Sum of electronic and thermal Free Energies=         -423.051912

                     E (Thermal)             CV                S
                      KCal/Mol        Cal/Mol-Kelvin    Cal/Mol-Kelvin
 Total                  104.766             31.478             90.883
 Electronic               0.000              0.000              0.000
 Translational            0.889              2.981             40.409
 Rotational               0.889              2.981             28.548
 Vibrational            102.989             25.517             21.927
 Vibration     1          0.593              1.986              6.691
 Vibration     2          0.620              1.897              2.608
 Vibration     3          0.629              1.867              2.333
 Vibration     4          0.645              1.816              1.990
 Vibration     5          0.674              1.728              1.596
 Vibration     6          0.692              1.674              1.419
 Vibration     7          0.796              1.393              0.841
 Vibration     8          0.849              1.265              0.676
 Vibration     9          0.857              1.247              0.655
 Vibration    10          0.911              1.128              0.533

 Normal termination of Gaussian 09 at Tue Jan 28 04:18:33 2020.
