 Gaussian 09, Revision D.01,
 Gaussian 09:  ES64L-G09RevD.01 24-Apr-2013

 -----------------------------
 # b3lyp 6-31G(2df,p) opt Freq
 -----------------------------

 -----
 titel
 -----
 Symbolic Z-matrix:
 Charge =  0 Multiplicity = 1

 SCF Done:  E(RB3LYP) =  -423.133776293     A.U. after   14 cycles
 Optimization completed.
    -- Stationary point found.
 Normal termination of Gaussian 09 at Mon Jan 27 14:07:40 2020.

 ----------------------------------------------------------------------
 #N Geom=AllCheck Guess=TCheck SCRF=Check GenChk RB3LYP/6-31G(2df,p) Fr
 eq
 ----------------------------------------------------------------------

 Structure from the checkpoint file:  "/scratch/puck/g09_95327c48-699f-40bf-8c09-e48e36170ac4/Gau-4534.chk"
 -----
 titel
 -----
 Charge =  0 Multiplicity = 1

                         Standard orientation:
 ---------------------------------------------------------------------
 Center     Atomic      Atomic             Coordinates (Angstroms)
 Number     Number       Type             X           Y           Z
 ---------------------------------------------------------------------
      1          6           0       -4.224950    0.219830    0.009947
      2          6           0       -2.824775   -0.173665   -0.052389
      3          6           0       -1.667796   -0.500347   -0.110185
      4          6           0       -0.260634   -0.876176   -0.160157
      5          6           0        0.643262    0.116096    0.578729
      6          8           0        0.762881    1.389570   -0.095430
      7          6           0        2.164690    1.190845   -0.361540
      8          6           0        2.178265   -0.118553    0.455381
      9          8           0        2.658969   -1.294884   -0.138681
     10          1           0       -4.635566    0.389922   -0.991550
     11          1           0       -4.836589   -0.551090    0.491840
     12          1           0       -4.351524    1.146988    0.579855
     13          1           0       -0.110648   -1.867850    0.287283
     14          1           0        0.064085   -0.954066   -1.206729
     15          1           0        0.275320    0.250320    1.602819
     16          1           0        2.372706    1.048585   -1.432846
     17          1           0        2.781359    2.017222    0.009889
     18          1           0        2.697522   -0.037629    1.412238
     19          1           0        2.320162   -1.348067   -1.038634
 ---------------------------------------------------------------------

 SCF Done:  E(RB3LYP) =  -423.133776293     A.U. after    1 cycles

 The electronic state is 1-A.
 Alpha  occ. eigenvalues --  -19.15326 -19.13486 -10.24228 -10.23609 -10.23204
 Alpha  occ. eigenvalues --  -10.20747 -10.19933 -10.16864 -10.16478  -1.05160
 Alpha  occ. eigenvalues --   -1.02373  -0.79357  -0.75792  -0.72613  -0.68780
 Alpha  occ. eigenvalues --   -0.65116  -0.57844  -0.52673  -0.50192  -0.48695
 Alpha  occ. eigenvalues --   -0.45803  -0.43614  -0.42298  -0.42135  -0.41489
 Alpha  occ. eigenvalues --   -0.40994  -0.39624  -0.39354  -0.36873  -0.29874
 Alpha  occ. eigenvalues --   -0.27798  -0.25940  -0.24489  -0.23796
 Alpha virt. eigenvalues --    0.04779   0.05786   0.07292   0.09489   0.10230
 Alpha virt. eigenvalues --    0.11462   0.12487   0.14582   0.15935   0.16499
 Alpha virt. eigenvalues --    0.18195   0.18531   0.19129   0.20465   0.22000

 Mulliken charges:
               1
     1  C   -0.497468
     2  C    0.122155
     3  C    0.019388
     4  C   -0.374249
     5  C    0.107705
     6  O   -0.283732
     7  C   -0.108552
     8  C    0.064426
     9  O   -0.418880
    10  H    0.146977
    11  H    0.145119
    12  H    0.148973
    13  H    0.137482
    14  H    0.109107
    15  H    0.087491
    16  H    0.091749
    17  H    0.110307
    18  H    0.105615
    19  H    0.286384
 Sum of Mulliken charges =   0.00000

 Dipole moment (field-independent basis, Debye):
    X=             -0.0263    Y=             -0.2930    Z=             -0.3414  Tot=              0.4506
 Quadrupole moment (field-independent basis, Debye-Ang):
   XX=            -47.5748   YY=            -56.3809   ZZ=            -49.9231
   XY=              2.2989   XZ=             -1.8895   YZ=              1.8276

  Exact polarizability: 113.604  -3.156  66.265  -2.305   0.616  62.583
 Approx polarizability: 148.619 -12.777  97.596  -3.940   1.047  93.845

                      1                      2                      3
                      A                      A                      A
 Frequencies --     17.6093                46.9764                66.0418
 Red. masses --      1.0274                 4.0220                 2.9393
 Frc consts  --      0.0002                 0.0052                 0.0076
 IR Inten    --      0.0068                 0.3005                 4.6900

                      4                      5                      6
                      A                      A                      A
 Frequencies --     81.0400               186.1996               211.2284
 Red. masses --      3.9895                 5.4519                 3.1480
 Frc consts  --      0.0154                 0.1114                 0.0828
 IR Inten    --      0.9734                 2.8598                 7.4287

                      7                      8                      9
                      A                      A                      A
 Frequencies --    267.8658               310.0847               383.5123
 Red. masses --      3.4433                 1.1260                 3.2078
 Frc consts  --      0.1456                 0.0638                 0.2780
 IR Inten    --      3.6862                90.8001                 9.0822

                     10                     11                     12
                      A                      A                      A
 Frequencies --    388.9046               411.3798               507.2098
 Red. masses --      3.8947                 2.7327                 4.1558
 Frc consts  --      0.3471                 0.2725                 0.6299
 IR Inten    --      0.0638                34.0380                12.8500

                     13                     14                     15
                      A                      A                      A
 Frequencies --    523.9443               734.5527               787.4916
 Red. masses --      4.3139                 3.2937                 3.2847
 Frc consts  --      0.6977                 1.0471                 1.2002
 IR Inten    --      2.4562                 6.2909                 5.3714

                     16                     17                     18
                      A                      A                      A
 Frequencies --    836.6921               887.3878               913.4867
 Red. masses --      2.9671                 1.9295                 2.4173
 Frc consts  --      1.2238                 0.8952                 1.1884
 IR Inten    --      5.0151                 8.8807                 8.4168

                     19                     20                     21
                      A                      A                      A
 Frequencies --   1018.3884              1036.0459              1042.4780
 Red. masses --      4.4624                 2.9211                 2.3048
 Frc consts  --      2.7268                 1.8474                 1.4757
 IR Inten    --     47.3651                71.4449                17.9339

                     22                     23                     24
                      A                      A                      A
 Frequencies --   1052.9115              1056.8499              1092.5842
 Red. masses --      1.4059                 1.5025                 2.7859
 Frc consts  --      0.9183                 0.9887                 1.9594
 IR Inten    --      0.8715                12.3866                32.3041

                     25                     26                     27
                      A                      A                      A
 Frequencies --   1150.5319              1163.3968              1171.8678
 Red. masses --      1.1853                 2.9432                 2.9123
 Frc consts  --      0.9244                 2.3470                 2.3564
 IR Inten    --      1.6270               113.9394                17.8799

                     28                     29                     30
                      A                      A                      A
 Frequencies --   1224.8780              1234.4722              1270.1555
 Red. masses --      1.1879                 1.4816                 1.2993
 Frc consts  --      1.0501                 1.3303                 1.2350
 IR Inten    --      1.3972                 4.1366                 2.1760

                     31                     32                     33
                      A                      A                      A
 Frequencies --   1309.4342              1316.7015              1357.2371
 Red. masses --      1.5332                 1.3843                 1.4854
 Frc consts  --      1.5489                 1.4141                 1.6122
 IR Inten    --      5.6563                 8.8704                 0.9204

                     34                     35                     36
                      A                      A                      A
 Frequencies --   1390.9462              1415.4283              1442.6680
 Red. masses --      1.3789                 1.2538                 1.2703
 Frc consts  --      1.5718                 1.4800                 1.5577
 IR Inten    --      8.4548                 7.7888                59.0422

                     37                     38                     39
                      A                      A                      A
 Frequencies --   1455.3563              1478.8287              1479.1385
 Red. masses --      1.0998                 1.0398                 1.0397
 Frc consts  --      1.3725                 1.3398                 1.3402
 IR Inten    --      4.2841                 5.0981                 5.0860

                     40                     41                     42
                      A                      A                      A
 Frequencies --   1519.8262              2377.3810              2988.2112
 Red. masses --      1.1025                11.8135                 1.0648
 Frc consts  --      1.5004                39.3394                 5.6018
 IR Inten    --      2.3797                 0.7724                65.4721

                     43                     44                     45
                      A                      A                      A
 Frequencies --   3006.7692              3026.1592              3033.1559
 Red. masses --      1.0605                 1.0348                 1.0868
 Frc consts  --      5.6490                 5.5835                 5.8908
 IR Inten    --     33.4315                34.4779                14.9166

                     46                     47                     48
                      A                      A                      A
 Frequencies --   3049.1964              3056.3358              3085.9132
 Red. masses --      1.0976                 1.0994                 1.1002
 Frc consts  --      6.0128                 6.0506                 6.1729
 IR Inten    --     33.6292                37.7563                11.4953

                     49                     50                     51
                      A                      A                      A
 Frequencies --   3087.0595              3099.7062              3810.1299
 Red. masses --      1.1001                 1.0885                 1.0658
 Frc consts  --      6.1767                 6.1622                 9.1164
 IR Inten    --     10.6500                39.7842                12.8610

 - Thermochemistry -
 -------------------
 Temperature   298.150 Kelvin.  Pressure   1.00000 Atm.
 Atom     1 has atomic number  6 and mass  12.00000

 Molecular mass:   126.06808 amu.
 Principal axes and moments of inertia in atomic units:
                           1         2         3
     Eigenvalues --   433.608052482.294072773.90841
           X            0.99999   0.00165  -0.00292
           Y           -0.00162   0.99994   0.01075
           Z            0.00294  -0.01075   0.99994
 This molecule is an asymmetric top.
 Rotational symmetry number  1.
 Warning -- assumption of classical behavior for rotation
           may cause significant error
 Rotational temperatures (Kelvin)      0.19975     0.03489     0.03122
 Rotational constants (GHZ):           4.16215     0.72705     0.65061
 Zero-point vibrational energy     411884.7 (Joules/Mol)
                                   98.44281 (Kcal/Mol)
 Warning -- explicit consideration of  13 degrees of freedom as
           vibrations may cause significant error
 Vibrational temperatures:     25.34    67.59    95.02   116.60   267.90
          (Kelvin)            303.91   385.40   446.14   551.79   559.55
                              591.88   729.76   753.84  1056.86  1133.02
                             1203.81  1276.75  1314.30  1465.23  1490.64
                             1499.89  1514.90  1520.57  1571.98  1655.36
                             1673.87  1686.05  1762.32  1776.13  1827.47
                             1883.98  1894.44  1952.76  2001.26  2036.48
                             2075.67  2093.93  2127.70  2128.15  2186.69
                             3420.52  4299.36  4326.06  4353.96  4364.03
                             4387.11  4397.38  4439.94  4441.58  4459.78
                             5481.92

 Zero-point correction=                           0.156879 (Hartree/Particle)
 Thermal correction to Energy=                    0.167110
 Thermal correction to Enthalpy=                  0.168054
 Thermal correction to Gibbs Free Energy=         0.119048
 Sum of electronic and zero-point Energies=           -422.976898
 Sum of electronic and thermal Energies=              -422.966666
 Sum of electronic and thermal Enthalpies=            -422.965722
 Sum of electronic and thermal Free Energies=         -423.014728

                     E (Thermal)             CV                S
                      KCal/Mol        Cal/Mol-Kelvin    Cal/Mol-Kelvin
 Total                  104.863             35.049            103.142
 Electronic               0.000              0.000              0.000
 Translational            0.889              2.981             40.409
 Rotational               0.889              2.981             29.480
 Vibrational            103.086             29.087             33.253
 Vibration     1          0.593              1.986              6.887
 Vibration     2          0.595              1.979              4.941
 Vibration     3          0.597              1.970              4.268
 Vibration     4          0.600              1.962              3.866
 Vibration     5          0.632              1.859              2.265
 Vibration     6          0.643              1.824              2.033
 Vibration     7          0.673              1.732              1.610
 Vibration     8          0.699              1.655              1.362
 Vibration     9          0.753              1.505              1.025
 Vibration    10          0.757              1.494              1.004
 Vibration    11          0.775              1.446              0.922
 Vibration    12          0.862              1.234              0.640
 Vibration    13          0.879              1.197              0.601

 Normal termination of Gaussian 09 at Mon Jan 27 15:39:10 2020.
