 Gaussian 09, Revision D.01,
 Gaussian 09:  ES64L-G09RevD.01 24-Apr-2013

 -----------------------------
 # b3lyp 6-31G(2df,p) opt Freq
 -----------------------------

 -----
 titel
 -----
 Symbolic Z-matrix:
 Charge =  0 Multiplicity = 1

 SCF Done:  E(RB3LYP) =  -423.250130546     A.U. after   14 cycles
 Optimization completed.
    -- Stationary point found.
 Normal termination of Gaussian 09 at Mon Jan 27 13:05:24 2020.

 ----------------------------------------------------------------------
 #N Geom=AllCheck Guess=TCheck SCRF=Check GenChk RB3LYP/6-31G(2df,p) Fr
 eq
 ----------------------------------------------------------------------

 Structure from the checkpoint file:  "/scratch/puck/g09_0cd00756-a151-43cf-acb9-8cfb8ae41097/Gau-21088.chk"
 -----
 titel
 -----
 Charge =  0 Multiplicity = 1

                         Standard orientation:
 ---------------------------------------------------------------------
 Center     Atomic      Atomic             Coordinates (Angstroms)
 Number     Number       Type             X           Y           Z
 ---------------------------------------------------------------------
      1          8           0        2.513981   -0.377514   -0.117700
      2          6           0        1.361284   -0.065399    0.004927
      3          8           0        0.963251    1.166233   -0.414072
      4          6           0       -0.353993    1.690134   -0.149837
      5          6           0       -1.377449    0.640223    0.276937
      6          6           0       -1.657929   -0.391468   -0.842902
      7          6           0       -0.585825   -1.501705   -0.641449
      8          6           0        0.281750   -0.993678    0.543267
      9          6           0       -0.732325   -0.204919    1.387241
     10          1           0       -0.242468    2.451585    0.632275
     11          1           0       -0.663360    2.194534   -1.070907
     12          1           0       -2.281700    1.167281    0.595213
     13          1           0       -2.666116   -0.801111   -0.737069
     14          1           0       -1.602252    0.065032   -1.835225
     15          1           0       -1.051569   -2.451137   -0.362226
     16          1           0        0.011194   -1.688058   -1.537268
     17          1           0        0.791426   -1.801016    1.068949
     18          1           0       -1.454173   -0.883071    1.854239
     19          1           0       -0.271919    0.397085    2.177097
 ---------------------------------------------------------------------

 SCF Done:  E(RB3LYP) =  -423.250130546     A.U. after    1 cycles

 The electronic state is 1-A.
 Alpha  occ. eigenvalues --  -19.17286 -19.11158 -10.29656 -10.24687 -10.20471
 Alpha  occ. eigenvalues --  -10.20156 -10.19704 -10.19557 -10.19347  -1.08708
 Alpha  occ. eigenvalues --   -1.00717  -0.86131  -0.76939  -0.72862  -0.68446
 Alpha  occ. eigenvalues --   -0.62577  -0.58392  -0.52880  -0.51631  -0.49162
 Alpha  occ. eigenvalues --   -0.48396  -0.45600  -0.43131  -0.42404  -0.40274
 Alpha  occ. eigenvalues --   -0.40094  -0.35956  -0.35449  -0.35299  -0.34184
 Alpha  occ. eigenvalues --   -0.33242  -0.31514  -0.28541  -0.25484
 Alpha virt. eigenvalues --    0.01877   0.06271   0.09513   0.11279   0.12855
 Alpha virt. eigenvalues --    0.13205   0.14044   0.15503   0.15905   0.16693
 Alpha virt. eigenvalues --    0.17050   0.17450   0.19065   0.20485   0.20826

 Mulliken charges:
               1
     1  O   -0.332785
     2  C    0.415219
     3  O   -0.240214
     4  C   -0.067080
     5  C   -0.025668
     6  C   -0.213722
     7  C   -0.221643
     8  C   -0.123479
     9  C   -0.246105
    10  H    0.113147
    11  H    0.117550
    12  H    0.076527
    13  H    0.105066
    14  H    0.107235
    15  H    0.107364
    16  H    0.122565
    17  H    0.095700
    18  H    0.102370
    19  H    0.107952
 Sum of Mulliken charges =   0.00000

 Dipole moment (field-independent basis, Debye):
    X=             -4.4736    Y=              0.1509    Z=              0.8267  Tot=              4.5519
 Quadrupole moment (field-independent basis, Debye-Ang):
   XX=            -62.5513   YY=            -50.6581   ZZ=            -51.4742
   XY=             -0.3091   XZ=              1.3772   YZ=              0.3739

  Exact polarizability:  80.040  -3.960  75.741   0.588  -0.225  65.985
 Approx polarizability: 119.784  -8.398 109.130  -0.564  -1.601  98.307

                      1                      2                      3
                      A                      A                      A
 Frequencies --     89.1724               130.2833               218.3646
 Red. masses --      3.6752                 3.2185                 2.5752
 Frc consts  --      0.0172                 0.0322                 0.0723
 IR Inten    --      1.1200                 1.5354                 2.8042

                      4                      5                      6
                      A                      A                      A
 Frequencies --    345.6335               392.0747               424.9304
 Red. masses --      2.2340                 1.9331                 7.0426
 Frc consts  --      0.1572                 0.1751                 0.7492
 IR Inten    --      0.0671                 0.1347                 3.1683

                      7                      8                      9
                      A                      A                      A
 Frequencies --    477.6078               585.9516               684.9794
 Red. masses --      4.6172                 3.9852                 4.6932
 Frc consts  --      0.6205                 0.8062                 1.2974
 IR Inten    --      2.8219                 2.7595                 1.7579

                     10                     11                     12
                      A                      A                      A
 Frequencies --    729.3590               787.2941               799.1684
 Red. masses --      5.6746                 2.1133                 2.2916
 Frc consts  --      1.7786                 0.7718                 0.8623
 IR Inten    --      3.2496                 1.4524                 1.9943

                     13                     14                     15
                      A                      A                      A
 Frequencies --    827.0211               860.7638               893.4178
 Red. masses --      2.6899                 3.5790                 2.3971
 Frc consts  --      1.0840                 1.5623                 1.1273
 IR Inten    --      0.7745                 6.6678                 0.6333

                     16                     17                     18
                      A                      A                      A
 Frequencies --    931.5332               961.8427               972.0517
 Red. masses --      2.5763                 1.7299                 1.9719
 Frc consts  --      1.3172                 0.9429                 1.0978
 IR Inten    --      3.1492                15.8811                 6.2754

                     19                     20                     21
                      A                      A                      A
 Frequencies --    982.5441              1023.2858              1052.0736
 Red. masses --      1.8509                 2.5292                 2.2828
 Frc consts  --      1.0528                 1.5604                 1.4887
 IR Inten    --      1.8202                 3.3461                38.3587

                     22                     23                     24
                      A                      A                      A
 Frequencies --   1073.5668              1099.8035              1135.8442
 Red. masses --      1.5861                 1.9973                 1.4134
 Frc consts  --      1.0770                 1.4234                 1.0744
 IR Inten    --     48.7410                59.8118                33.4353

                     25                     26                     27
                      A                      A                      A
 Frequencies --   1190.3427              1192.6128              1223.4815
 Red. masses --      1.3529                 1.7756                 1.3771
 Frc consts  --      1.1294                 1.4880                 1.2146
 IR Inten    --     12.4278                 8.8852                 0.7010

                     28                     29                     30
                      A                      A                      A
 Frequencies --   1240.1258              1262.6749              1287.3685
 Red. masses --      1.5678                 1.3119                 1.2797
 Frc consts  --      1.4206                 1.2324                 1.2496
 IR Inten    --     60.3669                43.6463                 3.7095

                     31                     32                     33
                      A                      A                      A
 Frequencies --   1310.5393              1336.1453              1351.3211
 Red. masses --      1.3195                 1.5236                 1.6142
 Frc consts  --      1.3353                 1.6026                 1.7367
 IR Inten    --      0.0728                 0.1755                 1.2179

                     34                     35                     36
                      A                      A                      A
 Frequencies --   1355.3793              1359.6029              1425.8403
 Red. masses --      1.6412                 1.6142                 1.4034
 Frc consts  --      1.7763                 1.7580                 1.6810
 IR Inten    --     25.8594                 0.1150                17.2874

                     37                     38                     39
                      A                      A                      A
 Frequencies --   1490.0100              1497.2152              1510.2434
 Red. masses --      1.0776                 1.0941                 1.1015
 Frc consts  --      1.4096                 1.4451                 1.4802
 IR Inten    --      0.9971                 5.2231                 8.5721

                     40                     41                     42
                      A                      A                      A
 Frequencies --   1520.1569              1845.8633              3024.8824
 Red. masses --      1.0947                12.2290                 1.0622
 Frc consts  --      1.4905                24.5494                 5.7264
 IR Inten    --      0.1283               337.4758                41.2838

                     43                     44                     45
                      A                      A                      A
 Frequencies --   3044.2570              3053.2756              3061.8789
 Red. masses --      1.0600                 1.0616                 1.0651
 Frc consts  --      5.7881                 5.8307                 5.8830
 IR Inten    --     25.4189                13.1962                39.8233

                     46                     47                     48
                      A                      A                      A
 Frequencies --   3072.5596              3076.5882              3090.8164
 Red. masses --      1.0868                 1.0994                 1.1063
 Frc consts  --      6.0453                 6.1311                 6.2269
 IR Inten    --     31.4313                37.0281                23.0231

                     49                     50                     51
                      A                      A                      A
 Frequencies --   3091.5465              3112.0737              3118.7143
 Red. masses --      1.1032                 1.1035                 1.0886
 Frc consts  --      6.2122                 6.2969                 6.2385
 IR Inten    --      6.3850                27.7261                17.6485

 - Thermochemistry -
 -------------------
 Temperature   298.150 Kelvin.  Pressure   1.00000 Atm.
 Atom     1 has atomic number  8 and mass  15.99491

 Molecular mass:   126.06808 amu.
 Principal axes and moments of inertia in atomic units:
                           1         2         3
     Eigenvalues --   687.738381027.345981272.48009
           X            0.99992  -0.00317   0.01188
           Y            0.00298   0.99986   0.01643
           Z           -0.01193  -0.01640   0.99979
 This molecule is an asymmetric top.
 Rotational symmetry number  1.
 Warning -- assumption of classical behavior for rotation
           may cause significant error
 Rotational temperatures (Kelvin)      0.12594     0.08431     0.06807
 Rotational constants (GHZ):           2.62417     1.75670     1.41829
 Zero-point vibrational energy     428407.2 (Joules/Mol)
                                  102.39177 (Kcal/Mol)
 Warning -- explicit consideration of   8 degrees of freedom as
           vibrations may cause significant error
 Vibrational temperatures:    128.30   187.45   314.18   497.29   564.11
          (Kelvin)            611.38   687.17   843.05   985.53  1049.38
                             1132.74  1149.82  1189.90  1238.45  1285.43
                             1340.27  1383.88  1398.56  1413.66  1472.28
                             1513.70  1544.62  1582.37  1634.22  1712.64
                             1715.90  1760.31  1784.26  1816.71  1852.23
                             1885.57  1922.41  1944.25  1950.09  1956.16
                             2051.46  2143.79  2154.16  2172.90  2187.16
                             2655.78  4352.13  4380.00  4392.98  4405.36
                             4420.72  4426.52  4446.99  4448.04  4477.57
                             4487.13

 Zero-point correction=                           0.163172 (Hartree/Particle)
 Thermal correction to Energy=                    0.170391
 Thermal correction to Enthalpy=                  0.171335
 Thermal correction to Gibbs Free Energy=         0.131314
 Sum of electronic and zero-point Energies=           -423.086959
 Sum of electronic and thermal Energies=              -423.079739
 Sum of electronic and thermal Enthalpies=            -423.078795
 Sum of electronic and thermal Free Energies=         -423.118817

                     E (Thermal)             CV                S
                      KCal/Mol        Cal/Mol-Kelvin    Cal/Mol-Kelvin
 Total                  106.922             28.498             84.233
 Electronic               0.000              0.000              0.000
 Translational            0.889              2.981             40.409
 Rotational               0.889              2.981             28.288
 Vibrational            105.145             22.537             15.536
 Vibration     1          0.602              1.957              3.678
 Vibration     2          0.612              1.923              2.942
 Vibration     3          0.646              1.813              1.973
 Vibration     4          0.724              1.584              1.186
 Vibration     5          0.760              1.487              0.992
 Vibration     6          0.787              1.416              0.875
 Vibration     7          0.834              1.300              0.717
 Vibration     8          0.943              1.062              0.474

 Optimization completed.
    -- Stationary point found.
 Normal termination of Gaussian 09 at Mon Jan 27 13:55:39 2020.
