 Gaussian 09, Revision D.01,
 Gaussian 09:  ES64L-G09RevD.01 24-Apr-2013

 -----------------------------
 # b3lyp 6-31G(2df,p) opt Freq
 -----------------------------

 -----
 titel
 -----
 Symbolic Z-matrix:
 Charge =  0 Multiplicity = 1

 SCF Done:  E(RB3LYP) =  -423.157434801     A.U. after   14 cycles
 Optimization completed.
    -- Stationary point found.
 Normal termination of Gaussian 09 at Tue Jan 28 02:56:48 2020.

 ----------------------------------------------------------------------
 #N Geom=AllCheck Guess=TCheck SCRF=Check GenChk RB3LYP/6-31G(2df,p) Fr
 eq
 ----------------------------------------------------------------------

 Structure from the checkpoint file:  "/scratch/puck/g09_c998592f-d4f7-44bc-9a62-f774cd54ed48/Gau-89749.chk"
 -----
 titel
 -----
 Charge =  0 Multiplicity = 1

                         Standard orientation:
 ---------------------------------------------------------------------
 Center     Atomic      Atomic             Coordinates (Angstroms)
 Number     Number       Type             X           Y           Z
 ---------------------------------------------------------------------
      1          6           0       -2.952964   -0.154036   -0.266498
      2          6           0       -1.445461   -0.026822   -0.395275
      3          6           0       -0.836129    1.262526    0.188697
      4          6           0        0.581898    0.856444    0.598901
      5          6           0        1.588063    0.676826   -0.548135
      6          8           0        2.671510   -0.104048   -0.030703
      7          6           0        1.501095   -0.792182   -0.482435
      8          6           0        0.486244   -0.721864    0.679004
      9          8           0       -0.831490   -1.087744    0.347279
     10          1           0       -3.292059   -1.121679   -0.646462
     11          1           0       -3.254147   -0.071140    0.782405
     12          1           0       -3.453452    0.633800   -0.838083
     13          1           0       -1.162051   -0.116050   -1.456073
     14          1           0       -0.859469    2.090599   -0.526017
     15          1           0       -1.402732    1.569165    1.074358
     16          1           0        0.967083    1.399133    1.463553
     17          1           0        1.804702    1.336469   -1.381533
     18          1           0        1.618424   -1.552834   -1.246039
     19          1           0        0.777066   -1.238479    1.595723
 ---------------------------------------------------------------------

 SCF Done:  E(RB3LYP) =  -423.157434801     A.U. after    1 cycles

 The electronic state is 1-A.
 Alpha  occ. eigenvalues --  -19.15326 -19.14145 -10.23781 -10.23527 -10.23452
 Alpha  occ. eigenvalues --  -10.23319 -10.19501 -10.18929 -10.17821  -1.08110
 Alpha  occ. eigenvalues --   -1.03848  -0.80437  -0.78074  -0.69791  -0.64870
 Alpha  occ. eigenvalues --   -0.63316  -0.58291  -0.55060  -0.51155  -0.48898
 Alpha  occ. eigenvalues --   -0.48673  -0.45300  -0.42930  -0.41788  -0.39099
 Alpha  occ. eigenvalues --   -0.38434  -0.37625  -0.35409  -0.35066  -0.33404
 Alpha  occ. eigenvalues --   -0.31321  -0.29138  -0.27166  -0.24107
 Alpha virt. eigenvalues --    0.07931   0.08917   0.11125   0.11654   0.12148
 Alpha virt. eigenvalues --    0.13398   0.14145   0.15075   0.15993   0.16329
 Alpha virt. eigenvalues --    0.16845   0.18090   0.18561   0.20555   0.21287

 Mulliken charges:
               1
     1  C   -0.401401
     2  C    0.137798
     3  C   -0.250383
     4  C   -0.088059
     5  C    0.023153
     6  O   -0.245169
     7  C   -0.015563
     8  C    0.082281
     9  O   -0.272685
    10  H    0.127192
    11  H    0.122731
    12  H    0.115629
    13  H    0.071620
    14  H    0.103020
    15  H    0.106836
    16  H    0.084353
    17  H    0.101871
    18  H    0.106222
    19  H    0.090556
 Sum of Mulliken charges =   0.00000

 Dipole moment (field-independent basis, Debye):
    X=             -1.4769    Y=              1.3040    Z=             -0.9458  Tot=              2.1854
 Quadrupole moment (field-independent basis, Debye-Ang):
   XX=            -58.8869   YY=            -52.3041   ZZ=            -50.8490
   XY=             -1.4495   XZ=             -0.5186   YZ=              0.4278

  Exact polarizability:  84.443  -1.368  71.566  -0.246   0.068  65.691
 Approx polarizability: 111.554  -0.784 111.851   1.086  -1.744 100.365

                      1                      2                      3
                      A                      A                      A
 Frequencies --    112.3307               165.8251               230.8719
 Red. masses --      3.4400                 2.7739                 1.0930
 Frc consts  --      0.0256                 0.0449                 0.0343
 IR Inten    --      0.0869                 1.2955                 0.1165

                      4                      5                      6
                      A                      A                      A
 Frequencies --    264.2665               294.9373               402.4668
 Red. masses --      2.8321                 3.3549                 2.6698
 Frc consts  --      0.1165                 0.1719                 0.2548
 IR Inten    --      0.1276                 4.6413                 1.8801

                      7                      8                      9
                      A                      A                      A
 Frequencies --    421.7786               513.3985               630.9479
 Red. masses --      5.0034                 2.9338                 4.5063
 Frc consts  --      0.5244                 0.4556                 1.0569
 IR Inten    --      9.2121                 1.2676                 1.6682

                     10                     11                     12
                      A                      A                      A
 Frequencies --    662.8521               810.2740               832.5436
 Red. masses --      6.2260                 2.3228                 2.0745
 Frc consts  --      1.6117                 0.8985                 0.8472
 IR Inten    --      3.2255                10.1408                 3.5146

                     13                     14                     15
                      A                      A                      A
 Frequencies --    843.1233               864.6651               875.7951
 Red. masses --      2.6243                 4.7483                 2.3416
 Frc consts  --      1.0991                 2.0916                 1.0582
 IR Inten    --     13.8155                 0.6270                34.0507

                     16                     17                     18
                      A                      A                      A
 Frequencies --    881.1981               921.9943               947.6267
 Red. masses --      2.4187                 2.2413                 1.7353
 Frc consts  --      1.1066                 1.1226                 0.9181
 IR Inten    --     11.1309                 0.6053                 3.8544

                     19                     20                     21
                      A                      A                      A
 Frequencies --    983.2102               998.0119              1044.0590
 Red. masses --      1.9975                 1.9684                 1.5596
 Frc consts  --      1.1377                 1.1551                 1.0017
 IR Inten    --      8.9134                 7.8189                 0.4985

                     22                     23                     24
                      A                      A                      A
 Frequencies --   1065.4052              1077.1377              1119.1230
 Red. masses --      1.5589                 2.4881                 2.5979
 Frc consts  --      1.0425                 1.7008                 1.9170
 IR Inten    --      3.6193                14.2279                78.7021

                     25                     26                     27
                      A                      A                      A
 Frequencies --   1130.7073              1152.6717              1178.8489
 Red. masses --      2.9980                 1.9085                 1.6538
 Frc consts  --      2.2583                 1.4940                 1.3541
 IR Inten    --     64.6145                 5.0485                 6.9413

                     28                     29                     30
                      A                      A                      A
 Frequencies --   1216.1887              1222.2508              1241.3798
 Red. masses --      1.3936                 1.4869                 1.4464
 Frc consts  --      1.2145                 1.3087                 1.3132
 IR Inten    --      0.6933                 8.6649                 6.1252

                     31                     32                     33
                      A                      A                      A
 Frequencies --   1262.2861              1284.9581              1330.4469
 Red. masses --      1.5069                 1.5841                 1.4519
 Frc consts  --      1.4147                 1.5410                 1.5142
 IR Inten    --      1.7978                 1.7040                 1.9367

                     34                     35                     36
                      A                      A                      A
 Frequencies --   1350.3063              1373.2362              1377.1509
 Red. masses --      1.3614                 1.3093                 4.0013
 Frc consts  --      1.4625                 1.4547                 4.4711
 IR Inten    --     11.6121                10.0864                18.0807

                     37                     38                     39
                      A                      A                      A
 Frequencies --   1392.8207              1413.0170              1482.8347
 Red. masses --      1.3590                 1.4121                 1.0718
 Frc consts  --      1.5533                 1.6611                 1.3885
 IR Inten    --      6.9749                13.9392                 1.0700

                     40                     41                     42
                      A                      A                      A
 Frequencies --   1487.0165              1499.4328              2970.5622
 Red. masses --      1.0746                 1.0507                 1.0828
 Frc consts  --      1.4000                 1.3918                 5.6297
 IR Inten    --      4.1908                 2.9272                39.1116

                     43                     44                     45
                      A                      A                      A
 Frequencies --   3040.3816              3047.1947              3092.2314
 Red. masses --      1.0364                 1.0592                 1.0931
 Frc consts  --      5.6444                 5.7945                 6.1581
 IR Inten    --     11.9694                27.8765                30.6518

                     46                     47                     48
                      A                      A                      A
 Frequencies --   3095.7180              3104.5787              3114.9211
 Red. masses --      1.0976                 1.0891                 1.1015
 Frc consts  --      6.1975                 6.1845                 6.2972
 IR Inten    --      4.0871                43.3551                25.4890

                     49                     50                     51
                      A                      A                      A
 Frequencies --   3119.3706              3171.7147              3189.2314
 Red. masses --      1.1020                 1.0877                 1.1009
 Frc consts  --      6.3178                 6.4467                 6.5974
 IR Inten    --     22.3769                18.5745                15.5116

 - Thermochemistry -
 -------------------
 Temperature   298.150 Kelvin.  Pressure   1.00000 Atm.
 Atom     1 has atomic number  6 and mass  12.00000

 Molecular mass:   126.06808 amu.
 Principal axes and moments of inertia in atomic units:
                           1         2         3
     Eigenvalues --   420.328411453.485751625.02030
           X            0.99997  -0.00704   0.00380
           Y            0.00696   0.99976   0.02100
           Z           -0.00394  -0.02097   0.99977
 This molecule is an asymmetric top.
 Rotational symmetry number  1.
 Rotational temperatures (Kelvin)      0.20606     0.05959     0.05330
 Rotational constants (GHZ):           4.29365     1.24166     1.11060
 Zero-point vibrational energy     420519.1 (Joules/Mol)
                                  100.50647 (Kcal/Mol)
 Warning -- explicit consideration of   8 degrees of freedom as
           vibrations may cause significant error
 Vibrational temperatures:    161.62   238.59   332.17   380.22   424.35
          (Kelvin)            579.06   606.84   738.66   907.79   953.70
                             1165.80  1197.84  1213.06  1244.06  1260.07
                             1267.85  1326.54  1363.42  1414.62  1435.91
                             1502.17  1532.88  1549.76  1610.17  1626.83
                             1658.44  1696.10  1749.82  1758.54  1786.07
                             1816.15  1848.77  1914.21  1942.79  1975.78
                             1981.41  2003.96  2033.01  2133.47  2139.48
                             2157.35  4273.97  4374.43  4384.23  4449.03
                             4454.04  4466.79  4481.67  4488.07  4563.38
                             4588.59

 Zero-point correction=                           0.160167 (Hartree/Particle)
 Thermal correction to Energy=                    0.167685
 Thermal correction to Enthalpy=                  0.168629
 Thermal correction to Gibbs Free Energy=         0.128295
 Sum of electronic and zero-point Energies=           -422.997268
 Sum of electronic and thermal Energies=              -422.989750
 Sum of electronic and thermal Enthalpies=            -422.988806
 Sum of electronic and thermal Free Energies=         -423.029140

                     E (Thermal)             CV                S
                      KCal/Mol        Cal/Mol-Kelvin    Cal/Mol-Kelvin
 Total                  105.224             29.826             84.891
 Electronic               0.000              0.000              0.000
 Translational            0.889              2.981             40.409
 Rotational               0.889              2.981             28.386
 Vibrational            103.446             23.865             16.096
 Vibration     1          0.607              1.939              3.228
 Vibration     2          0.624              1.884              2.482
 Vibration     3          0.653              1.794              1.872
 Vibration     4          0.671              1.738              1.633
 Vibration     5          0.689              1.683              1.445
 Vibration     6          0.768              1.465              0.954
 Vibration     7          0.784              1.423              0.886
 Vibration     8          0.868              1.220              0.625

 Normal termination of Gaussian 09 at Tue Jan 28 03:52:02 2020.
