 Gaussian 09, Revision D.01,
 Gaussian 09:  ES64L-G09RevD.01 24-Apr-2013

 -----------------------------
 # b3lyp 6-31G(2df,p) opt Freq
 -----------------------------

 -----
 titel
 -----
 Symbolic Z-matrix:
 Charge =  0 Multiplicity = 1

 SCF Done:  E(RB3LYP) =  -423.136446761     A.U. after   13 cycles
 Optimization completed.
    -- Stationary point found.
 Normal termination of Gaussian 09 at Mon Jan 27 22:03:01 2020.

 ----------------------------------------------------------------------
 #N Geom=AllCheck Guess=TCheck SCRF=Check GenChk RB3LYP/6-31G(2df,p) Fr
 eq
 ----------------------------------------------------------------------

 Structure from the checkpoint file:  "/scratch/puck/g09_aec0e3c8-2238-48e2-a42b-15ebe930a31f/Gau-72732.chk"
 -----
 titel
 -----
 Charge =  0 Multiplicity = 1

                         Standard orientation:
 ---------------------------------------------------------------------
 Center     Atomic      Atomic             Coordinates (Angstroms)
 Number     Number       Type             X           Y           Z
 ---------------------------------------------------------------------
      1          6           0        0.492258    2.358665   -0.625503
      2          6           0        0.285502    1.054089    0.122956
      3          6           0        1.345478   -0.076889    0.007578
      4          8           0        2.417672   -0.144518    0.907232
      5          6           0        0.208642   -1.114870    0.051936
      6          8           0        0.386912   -2.234360   -0.767106
      7          6           0       -0.772789    0.024954   -0.401702
      8          6           0       -2.114976    0.047324    0.131833
      9          6           0       -3.220110    0.049671    0.608658
     10          1           0       -0.383148    3.010888   -0.540140
     11          1           0        1.356572    2.900519   -0.226905
     12          1           0        0.673752    2.176288   -1.690397
     13          1           0        0.084924    1.248121    1.183795
     14          1           0        1.787847   -0.082234   -0.994568
     15          1           0        2.059555   -0.160055    1.801146
     16          1           0       -0.014872   -1.391839    1.093712
     17          1           0       -0.359626   -2.829662   -0.643007
     18          1           0       -0.786167    0.041551   -1.497516
     19          1           0       -4.199532    0.059779    1.018330
 ---------------------------------------------------------------------

 SCF Done:  E(RB3LYP) =  -423.136446760     A.U. after    1 cycles

 The electronic state is 1-A.
 Alpha  occ. eigenvalues --  -19.14579 -19.14156 -10.23931 -10.23207 -10.20880
 Alpha  occ. eigenvalues --  -10.19692 -10.18199 -10.17941 -10.17244  -1.03469
 Alpha  occ. eigenvalues --   -1.02114  -0.85426  -0.75214  -0.72716  -0.66938
 Alpha  occ. eigenvalues --   -0.62068  -0.59052  -0.54074  -0.52077  -0.50543
 Alpha  occ. eigenvalues --   -0.45206  -0.44018  -0.43307  -0.42413  -0.40531
 Alpha  occ. eigenvalues --   -0.38388  -0.36003  -0.35314  -0.34640  -0.31520
 Alpha  occ. eigenvalues --   -0.29283  -0.26644  -0.25947  -0.24576
 Alpha virt. eigenvalues --    0.04363   0.05164   0.07485   0.07659   0.10755
 Alpha virt. eigenvalues --    0.11032   0.12799   0.13730   0.15087   0.16165
 Alpha virt. eigenvalues --    0.17685   0.18244   0.19901   0.20781   0.20905

 Mulliken charges:
               1
     1  C   -0.417443
     2  C   -0.024692
     3  C    0.116910
     4  O   -0.431702
     5  C    0.075565
     6  O   -0.427003
     7  C   -0.227277
     8  C    0.289761
     9  C   -0.439667
    10  H    0.125059
    11  H    0.126370
    12  H    0.116757
    13  H    0.074908
    14  H    0.103669
    15  H    0.278371
    16  H    0.069681
    17  H    0.290240
    18  H    0.107159
    19  H    0.193334
 Sum of Mulliken charges =   0.00000

 Dipole moment (field-independent basis, Debye):
    X=             -1.6708    Y=              0.1450    Z=              1.0858  Tot=              1.9979
 Quadrupole moment (field-independent basis, Debye-Ang):
   XX=            -57.4164   YY=            -51.5990   ZZ=            -49.9107
   XY=              4.1123   XZ=             -0.3905   YZ=             -1.4239

  Exact polarizability:  97.366   1.683  73.027  -7.338  -0.425  65.501
 Approx polarizability: 143.211   0.353  96.379 -16.883   1.766 103.590

                      1                      2                      3
                      A                      A                      A
 Frequencies --     69.8533               115.5774               165.9591
 Red. masses --      4.5371                 3.8109                 3.6414
 Frc consts  --      0.0130                 0.0300                 0.0591
 IR Inten    --      1.2396                 0.2476                 0.0344

                      4                      5                      6
                      A                      A                      A
 Frequencies --    195.1812               227.6470               239.9038
 Red. masses --      1.4521                 1.6926                 2.5829
 Frc consts  --      0.0326                 0.0517                 0.0876
 IR Inten    --      0.4311                 1.6403                17.7565

                      7                      8                      9
                      A                      A                      A
 Frequencies --    284.1265               306.3537               325.3676
 Red. masses --      1.1443                 1.5769                 2.9628
 Frc consts  --      0.0544                 0.0872                 0.1848
 IR Inten    --     45.8679                61.3746                52.1218

                     10                     11                     12
                      A                      A                      A
 Frequencies --    398.3961               425.4085               490.2623
 Red. masses --      4.1883                 2.7818                 5.5377
 Frc consts  --      0.3917                 0.2966                 0.7842
 IR Inten    --     39.6446                24.9781                 0.0676

                     13                     14                     15
                      A                      A                      A
 Frequencies --    510.0896               550.4038               562.0596
 Red. masses --      4.2616                 4.5811                 3.2437
 Frc consts  --      0.6533                 0.8177                 0.6038
 IR Inten    --      4.3664                 2.3344                 3.9609

                     16                     17                     18
                      A                      A                      A
 Frequencies --    616.5014               621.1313               842.4549
 Red. masses --      1.2044                 1.2118                 2.5260
 Frc consts  --      0.2697                 0.2755                 1.0563
 IR Inten    --     42.2572                43.7032                 2.6065

                     19                     20                     21
                      A                      A                      A
 Frequencies --    885.2759               924.1785               986.8588
 Red. masses --      1.9735                 3.8902                 3.5105
 Frc consts  --      0.9113                 1.9577                 2.0143
 IR Inten    --     23.0534                11.9160                 8.6427

                     22                     23                     24
                      A                      A                      A
 Frequencies --   1037.0612              1066.6497              1091.7355
 Red. masses --      2.4363                 1.7931                 1.8587
 Frc consts  --      1.5438                 1.2020                 1.3053
 IR Inten    --     20.5571                50.2946                 4.1712

                     25                     26                     27
                      A                      A                      A
 Frequencies --   1103.4630              1147.3552              1160.9563
 Red. masses --      2.2929                 1.4571                 2.9201
 Frc consts  --      1.6450                 1.1301                 2.3189
 IR Inten    --     36.5817                28.6105                70.2926

                     28                     29                     30
                      A                      A                      A
 Frequencies --   1172.5599              1182.8111              1212.8545
 Red. masses --      2.5924                 1.2853                 1.2864
 Frc consts  --      2.1000                 1.0595                 1.1149
 IR Inten    --     70.2797                20.0756                12.0049

                     31                     32                     33
                      A                      A                      A
 Frequencies --   1252.9148              1290.1242              1322.3777
 Red. masses --      1.3915                 1.2883                 1.5278
 Frc consts  --      1.2870                 1.2633                 1.5741
 IR Inten    --      3.4524                69.7030                10.9299

                     34                     35                     36
                      A                      A                      A
 Frequencies --   1348.6949              1385.6258              1406.5286
 Red. masses --      1.4488                 1.5419                 1.2531
 Frc consts  --      1.5527                 1.7442                 1.4606
 IR Inten    --     11.2847                 4.5745                 2.3580

                     37                     38                     39
                      A                      A                      A
 Frequencies --   1423.2590              1464.5187              1494.6039
 Red. masses --      1.2560                 1.5477                 1.0516
 Frc consts  --      1.4990                 1.9558                 1.3840
 IR Inten    --     35.8117                33.3869                 7.3512

                     40                     41                     42
                      A                      A                      A
 Frequencies --   1495.3185              2229.0239              2985.7882
 Red. masses --      1.0466                 6.0067                 1.0838
 Frc consts  --      1.3787                17.5840                 5.6925
 IR Inten    --      5.9114                10.8711                30.4073

                     43                     44                     45
                      A                      A                      A
 Frequencies --   3028.7439              3032.0102              3047.9904
 Red. masses --      1.0359                 1.0819                 1.0828
 Frc consts  --      5.5987                 5.8600                 5.9271
 IR Inten    --     24.1465                 5.3347                10.0803

                     46                     47                     48
                      A                      A                      A
 Frequencies --   3069.6892              3098.7932              3100.4120
 Red. masses --      1.0857                 1.1011                 1.1014
 Frc consts  --      6.0277                 6.2295                 6.2380
 IR Inten    --     29.8631                32.8268                18.4568

                     49                     50                     51
                      A                      A                      A
 Frequencies --   3504.4389              3807.8767              3812.7591
 Red. masses --      1.1601                 1.0658                 1.0661
 Frc consts  --      8.3939                 9.1056                 9.1315
 IR Inten    --     77.5719                15.2915                24.4963

 - Thermochemistry -
 -------------------
 Temperature   298.150 Kelvin.  Pressure   1.00000 Atm.
 Atom     1 has atomic number  6 and mass  12.00000

 Molecular mass:   126.06808 amu.
 Principal axes and moments of inertia in atomic units:
                           1         2         3
     Eigenvalues --   917.348211370.340971946.49491
           X            0.99933   0.03581  -0.00761
           Y           -0.03601   0.99898  -0.02730
           Z            0.00662   0.02756   0.99960
 This molecule is an asymmetric top.
 Rotational symmetry number  1.
 Warning -- assumption of classical behavior for rotation
           may cause significant error
 Rotational temperatures (Kelvin)      0.09442     0.06321     0.04450
 Rotational constants (GHZ):           1.96735     1.31700     0.92717
 Zero-point vibrational energy     409840.2 (Joules/Mol)
                                   97.95415 (Kcal/Mol)
 Warning -- explicit consideration of  16 degrees of freedom as
           vibrations may cause significant error
 Vibrational temperatures:    100.50   166.29   238.78   280.82   327.53
          (Kelvin)            345.17   408.79   440.77   468.13   573.20
                              612.07   705.38   733.90   791.91   808.68
                              887.01   893.67  1212.10  1273.71  1329.69
                             1419.87  1492.10  1534.67  1570.76  1587.64
                             1650.79  1670.36  1687.05  1701.80  1745.02
                             1802.66  1856.20  1902.60  1940.47  1993.60
                             2023.68  2047.75  2107.11  2150.40  2151.43
                             3207.06  4295.88  4357.68  4362.38  4385.37
                             4416.59  4458.47  4460.80  5042.10  5478.68
                             5485.70

 Zero-point correction=                           0.156100 (Hartree/Particle)
 Thermal correction to Energy=                    0.166091
 Thermal correction to Enthalpy=                  0.167036
 Thermal correction to Gibbs Free Energy=         0.121484
 Sum of electronic and zero-point Energies=           -422.980347
 Sum of electronic and thermal Energies=              -422.970355
 Sum of electronic and thermal Enthalpies=            -422.969411
 Sum of electronic and thermal Free Energies=         -423.014962

                     E (Thermal)             CV                S
                      KCal/Mol        Cal/Mol-Kelvin    Cal/Mol-Kelvin
 Total                  104.224             37.220             95.870
 Electronic               0.000              0.000              0.000
 Translational            0.889              2.981             40.409
 Rotational               0.889              2.981             29.283
 Vibrational            102.446             31.259             26.179
 Vibration     1          0.598              1.968              4.157
 Vibration     2          0.608              1.936              3.173
 Vibration     3          0.624              1.884              2.481
 Vibration     4          0.636              1.847              2.178
 Vibration     5          0.651              1.799              1.897
 Vibration     6          0.657              1.779              1.804
 Vibration     7          0.683              1.703              1.509
 Vibration     8          0.697              1.662              1.382
 Vibration     9          0.709              1.625              1.283
 Vibration    10          0.765              1.474              0.969
 Vibration    11          0.787              1.415              0.874
 Vibration    12          0.846              1.272              0.683
 Vibration    13          0.865              1.228              0.633
 Vibration    14          0.906              1.139              0.543
 Vibration    15          0.918              1.113              0.520
 Vibration    16          0.976              0.997              0.422

 Optimization completed.
    -- Stationary point found.
 Normal termination of Gaussian 09 at Mon Jan 27 22:44:03 2020.
