 Gaussian 09, Revision D.01,
 Gaussian 09:  ES64L-G09RevD.01 24-Apr-2013

 -----------------------------
 # b3lyp 6-31G(2df,p) opt Freq
 -----------------------------

 -----
 titel
 -----
 Symbolic Z-matrix:
 Charge =  0 Multiplicity = 1

 SCF Done:  E(RB3LYP) =  -423.115420423     A.U. after   13 cycles
 Optimization completed.
    -- Stationary point found.
 Normal termination of Gaussian 09 at Tue Jan 28 12:08:10 2020.

 ----------------------------------------------------------------------
 #N Geom=AllCheck Guess=TCheck SCRF=Check GenChk RB3LYP/6-31G(2df,p) Fr
 eq
 ----------------------------------------------------------------------

 Structure from the checkpoint file:  "/scratch/puck/g09_7e2955d4-8e97-41b9-b333-3bde5bf47a25/Gau-138513.chk"
 -----
 titel
 -----
 Charge =  0 Multiplicity = 1

                         Standard orientation:
 ---------------------------------------------------------------------
 Center     Atomic      Atomic             Coordinates (Angstroms)
 Number     Number       Type             X           Y           Z
 ---------------------------------------------------------------------
      1          8           0        2.727186   -0.389262   -0.278298
      2          6           0        1.761074    0.038854    0.674407
      3          6           0        0.371153    0.104819    0.089218
      4          6           0       -0.014987    1.287986   -0.855414
      5          6           0       -1.262246    1.591459    0.033282
      6          6           0       -0.891247    0.405573    0.970832
      7          6           0       -1.436952   -0.989711    0.582617
      8          8           0       -1.547428   -1.045587   -0.844954
      9          6           0       -0.259677   -1.269049   -0.260701
     10          1           0        2.723895    0.246572   -1.001555
     11          1           0        1.797503   -0.701589    1.482491
     12          1           0        2.032807    1.012705    1.112803
     13          1           0        0.726156    2.093660   -0.859583
     14          1           0       -0.239661    1.004481   -1.884762
     15          1           0       -1.218538    2.561223    0.533815
     16          1           0       -2.224410    1.494700   -0.471648
     17          1           0       -0.798398    0.586608    2.042566
     18          1           0       -2.088894   -1.648092    1.146197
     19          1           0        0.248787   -2.191069   -0.519762
 ---------------------------------------------------------------------

 SCF Done:  E(RB3LYP) =  -423.115420423     A.U. after    1 cycles

 The electronic state is 1-A.
 Alpha  occ. eigenvalues --  -19.15304 -19.13774 -10.23715 -10.23424 -10.22982
 Alpha  occ. eigenvalues --  -10.19319 -10.19123 -10.18223 -10.18202  -1.07852
 Alpha  occ. eigenvalues --   -1.01767  -0.85219  -0.73033  -0.70731  -0.65485
 Alpha  occ. eigenvalues --   -0.60458  -0.59445  -0.53147  -0.51925  -0.49362
 Alpha  occ. eigenvalues --   -0.47479  -0.45730  -0.43909  -0.40520  -0.40137
 Alpha  occ. eigenvalues --   -0.37348  -0.36869  -0.35733  -0.32184  -0.31960
 Alpha  occ. eigenvalues --   -0.29769  -0.27341  -0.26009  -0.25328
 Alpha virt. eigenvalues --    0.05717   0.08120   0.09246   0.10176   0.11000
 Alpha virt. eigenvalues --    0.13526   0.14648   0.15167   0.15825   0.16655
 Alpha virt. eigenvalues --    0.17358   0.18256   0.19268   0.20866   0.20965

 Mulliken charges:
               1
     1  O   -0.419549
     2  C   -0.171451
     3  C    0.311270
     4  C   -0.293179
     5  C   -0.220471
     6  C   -0.131872
     7  C    0.016600
     8  O   -0.241954
     9  C   -0.029487
    10  H    0.286346
    11  H    0.107661
    12  H    0.087505
    13  H    0.089361
    14  H    0.113308
    15  H    0.098456
    16  H    0.114298
    17  H    0.072412
    18  H    0.102736
    19  H    0.108010
 Sum of Mulliken charges =   0.00000

 Dipole moment (field-independent basis, Debye):
    X=              0.0622    Y=              1.1586    Z=              1.0963  Tot=              1.5963
 Quadrupole moment (field-independent basis, Debye-Ang):
   XX=            -58.4356   YY=            -51.7897   ZZ=            -51.5867
   XY=              2.5835   XZ=             -4.1429   YZ=             -2.0921

  Exact polarizability:  78.154   0.201  75.151  -3.675  -0.755  68.208
 Approx polarizability: 111.959  -0.598 106.540  -5.173   1.288 108.559

                      1                      2                      3
                      A                      A                      A
 Frequencies --     88.0253               152.9082               173.2711
 Red. masses --      3.6478                 3.8828                 2.0928
 Frc consts  --      0.0167                 0.0535                 0.0370
 IR Inten    --      3.0156                 2.0221                 1.9261

                      4                      5                      6
                      A                      A                      A
 Frequencies --    272.6352               295.9517               332.6527
 Red. masses --      2.8950                 1.6609                 2.0181
 Frc consts  --      0.1268                 0.0857                 0.1316
 IR Inten    --     17.1767                35.6863                23.5488

                      7                      8                      9
                      A                      A                      A
 Frequencies --    362.2794               446.6638               580.9288
 Red. masses --      2.3609                 2.8125                 3.9096
 Frc consts  --      0.1826                 0.3306                 0.7774
 IR Inten    --     44.6163                 0.3384                14.6075

                     10                     11                     12
                      A                      A                      A
 Frequencies --    660.2019               700.8043               740.8965
 Red. masses --      3.4468                 4.5588                 1.3653
 Frc consts  --      0.8852                 1.3191                 0.4416
 IR Inten    --      1.0024                 0.9725                 7.4501

                     13                     14                     15
                      A                      A                      A
 Frequencies --    813.0100               829.0888               844.5116
 Red. masses --      4.1194                 2.2636                 1.8096
 Frc consts  --      1.6043                 0.9168                 0.7604
 IR Inten    --      4.2177                 2.4281                19.8563

                     16                     17                     18
                      A                      A                      A
 Frequencies --    880.7289               896.3275               945.3005
 Red. masses --      2.7140                 1.8393                 3.0650
 Frc consts  --      1.2404                 0.8706                 1.6137
 IR Inten    --      6.2110                 7.4815                 1.5616

                     19                     20                     21
                      A                      A                      A
 Frequencies --    961.9206               978.1785              1007.2550
 Red. masses --      2.1745                 1.7548                 2.2897
 Frc consts  --      1.1855                 0.9893                 1.3687
 IR Inten    --      0.4104                 5.0823                18.4961

                     22                     23                     24
                      A                      A                      A
 Frequencies --   1038.8732              1054.1069              1060.1963
 Red. masses --      4.0515                 1.5598                 2.5350
 Frc consts  --      2.5763                 1.0212                 1.6788
 IR Inten    --     43.8161                 1.4989                49.2550

                     25                     26                     27
                      A                      A                      A
 Frequencies --   1098.7268              1126.8697              1132.6677
 Red. masses --      1.6882                 1.8022                 1.4918
 Frc consts  --      1.2007                 1.3483                 1.1277
 IR Inten    --     16.1529                 5.9757                 9.4415

                     28                     29                     30
                      A                      A                      A
 Frequencies --   1204.2184              1228.0691              1236.9646
 Red. masses --      1.3828                 1.3604                 1.3421
 Frc consts  --      1.1815                 1.2088                 1.2099
 IR Inten    --      5.0466                 0.7838                 5.2023

                     31                     32                     33
                      A                      A                      A
 Frequencies --   1241.6274              1255.2490              1284.6852
 Red. masses --      1.4174                 1.5262                 1.6701
 Frc consts  --      1.2874                 1.4169                 1.6240
 IR Inten    --      6.1350                 5.4389                 5.5990

                     34                     35                     36
                      A                      A                      A
 Frequencies --   1295.6581              1328.9370              1370.9569
 Red. masses --      1.6424                 2.3862                 1.8749
 Frc consts  --      1.6245                 2.4829                 2.0762
 IR Inten    --      1.7238                 3.4357                 6.0413

                     37                     38                     39
                      A                      A                      A
 Frequencies --   1375.2039              1417.5433              1460.0671
 Red. masses --      1.7913                 1.2858                 1.0839
 Frc consts  --      1.9959                 1.5223                 1.3615
 IR Inten    --      7.9055                63.1938                 0.7794

                     40                     41                     42
                      A                      A                      A
 Frequencies --   1480.1789              1502.0690              2973.6036
 Red. masses --      1.1269                 1.0877                 1.0691
 Frc consts  --      1.4546                 1.4459                 5.5695
 IR Inten    --      2.4917                 1.5891                53.4478

                     43                     44                     45
                      A                      A                      A
 Frequencies --   3048.1902              3055.4682              3072.0528
 Red. masses --      1.0636                 1.0929                 1.0603
 Frc consts  --      5.8225                 6.0116                 5.8959
 IR Inten    --     32.7550                30.9177                39.4683

                     46                     47                     48
                      A                      A                      A
 Frequencies --   3104.3180              3115.9136              3134.3508
 Red. masses --      1.0885                 1.1018                 1.1064
 Frc consts  --      6.1804                 6.3026                 6.4042
 IR Inten    --     23.5793                 1.2173                29.5654

                     49                     50                     51
                      A                      A                      A
 Frequencies --   3171.2303              3186.9830              3809.9748
 Red. masses --      1.0873                 1.1008                 1.0661
 Frc consts  --      6.4428                 6.5878                 9.1180
 IR Inten    --     19.6502                22.3385                16.0469

 - Thermochemistry -
 -------------------
 Temperature   298.150 Kelvin.  Pressure   1.00000 Atm.
 Atom     1 has atomic number  8 and mass  15.99491

 Molecular mass:   126.06808 amu.
 Principal axes and moments of inertia in atomic units:
                           1         2         3
     Eigenvalues --   661.873001198.609391444.94352
           X            0.99993  -0.00856  -0.00754
           Y            0.00826   0.99923  -0.03847
           Z            0.00786   0.03841   0.99923
 This molecule is an asymmetric top.
 Rotational symmetry number  1.
 Warning -- assumption of classical behavior for rotation
           may cause significant error
 Rotational temperatures (Kelvin)      0.13086     0.07226     0.05994
 Rotational constants (GHZ):           2.72672     1.50570     1.24900
 Zero-point vibrational energy     417667.1 (Joules/Mol)
                                   99.82484 (Kcal/Mol)
 Warning -- explicit consideration of   9 degrees of freedom as
           vibrations may cause significant error
 Vibrational temperatures:    126.65   220.00   249.30   392.26   425.81
          (Kelvin)            478.61   521.24   642.65   835.83   949.88
                             1008.30  1065.98  1169.74  1192.87  1215.06
                             1267.17  1289.61  1360.07  1383.99  1407.38
                             1449.21  1494.70  1516.62  1525.38  1580.82
                             1621.31  1629.65  1732.60  1766.92  1779.71
                             1786.42  1806.02  1848.37  1864.16  1912.04
                             1972.50  1978.61  2039.53  2100.71  2129.64
                             2161.14  4278.35  4385.66  4396.13  4419.99
                             4466.42  4483.10  4509.63  4562.69  4585.35
                             5481.70

 Zero-point correction=                           0.159081 (Hartree/Particle)
 Thermal correction to Energy=                    0.167095
 Thermal correction to Enthalpy=                  0.168039
 Thermal correction to Gibbs Free Energy=         0.126563
 Sum of electronic and zero-point Energies=           -422.956339
 Sum of electronic and thermal Energies=              -422.948326
 Sum of electronic and thermal Enthalpies=            -422.947382
 Sum of electronic and thermal Free Energies=         -422.988858

                     E (Thermal)             CV                S
                      KCal/Mol        Cal/Mol-Kelvin    Cal/Mol-Kelvin
 Total                  104.853             31.369             87.294
 Electronic               0.000              0.000              0.000
 Translational            0.889              2.981             40.409
 Rotational               0.889              2.981             28.529
 Vibrational            103.076             25.407             18.356
 Vibration     1          0.601              1.958              3.703
 Vibration     2          0.619              1.899              2.636
 Vibration     3          0.627              1.875              2.400
 Vibration     4          0.676              1.724              1.579
 Vibration     5          0.690              1.681              1.440
 Vibration     6          0.715              1.610              1.247
 Vibration     7          0.736              1.550              1.112
 Vibration     8          0.806              1.368              0.806
 Vibration     9          0.938              1.073              0.484

 Normal termination of Gaussian 09 at Tue Jan 28 12:51:21 2020.
