 Gaussian 09, Revision D.01,
 Gaussian 09:  ES64L-G09RevD.01 24-Apr-2013

 -----------------------------
 # b3lyp 6-31G(2df,p) opt Freq
 -----------------------------

 -----
 titel
 -----
 Symbolic Z-matrix:
 Charge =  0 Multiplicity = 1

 SCF Done:  E(RB3LYP) =  -423.118513298     A.U. after   13 cycles
 Optimization completed.
    -- Stationary point found.
 Normal termination of Gaussian 09 at Mon Jan 27 17:06:19 2020.

 ----------------------------------------------------------------------
 #N Geom=AllCheck Guess=TCheck SCRF=Check GenChk RB3LYP/6-31G(2df,p) Fr
 eq
 ----------------------------------------------------------------------

 Structure from the checkpoint file:  "/scratch/puck/g09_91eb3dc3-ae2e-4f22-8a0c-4870851fe447/Gau-179014.chk"
 -----
 titel
 -----
 Charge =  0 Multiplicity = 1

                         Standard orientation:
 ---------------------------------------------------------------------
 Center     Atomic      Atomic             Coordinates (Angstroms)
 Number     Number       Type             X           Y           Z
 ---------------------------------------------------------------------
      1          8           0       -1.316265    1.808642   -0.154427
      2          6           0       -1.003422    0.471006   -0.023348
      3          6           0       -1.441762   -0.536570    1.089100
      4          6           0       -0.625385   -1.370085    0.061485
      5          6           0       -1.386337   -0.605352   -1.068752
      6          6           0        0.396125   -0.209246    0.044405
      7          6           0        1.505205    0.067730    1.074763
      8          6           0        2.414103    0.185542   -0.163277
      9          8           0        1.310387   -0.078577   -1.053084
     10          1           0       -1.003269    2.276545    0.627375
     11          1           0       -1.011966   -0.410192    2.087099
     12          1           0       -2.510757   -0.753795    1.133741
     13          1           0       -0.407500   -2.434171    0.106302
     14          1           0       -0.890352   -0.541915   -2.037018
     15          1           0       -2.453016   -0.823924   -1.160067
     16          1           0        1.387284    0.985860    1.655903
     17          1           0        1.734586   -0.755659    1.753707
     18          1           0        2.852648    1.174050   -0.341845
     19          1           0        3.198197   -0.575464   -0.251360
 ---------------------------------------------------------------------

 SCF Done:  E(RB3LYP) =  -423.118513298     A.U. after    1 cycles

 The electronic state is 1-A.
 Alpha  occ. eigenvalues --  -19.14692 -19.13061 -10.24279 -10.23768 -10.23132
 Alpha  occ. eigenvalues --  -10.19710 -10.19110 -10.18691 -10.18185  -1.04391
 Alpha  occ. eigenvalues --   -1.02931  -0.90204  -0.74526  -0.67222  -0.66416
 Alpha  occ. eigenvalues --   -0.62218  -0.59063  -0.53883  -0.50594  -0.48537
 Alpha  occ. eigenvalues --   -0.48315  -0.46054  -0.42368  -0.39857  -0.38710
 Alpha  occ. eigenvalues --   -0.37917  -0.36986  -0.33970  -0.33640  -0.31701
 Alpha  occ. eigenvalues --   -0.30565  -0.29207  -0.27858  -0.22782
 Alpha virt. eigenvalues --    0.06524   0.09778   0.10471   0.11187   0.11758
 Alpha virt. eigenvalues --    0.14231   0.14745   0.16078   0.16384   0.17398
 Alpha virt. eigenvalues --    0.18154   0.18379   0.19423   0.20319   0.23093

 Mulliken charges:
               1
     1  O   -0.466906
     2  C    0.323537
     3  C   -0.302608
     4  C   -0.137313
     5  C   -0.271060
     6  C    0.467306
     7  C   -0.392140
     8  C   -0.082522
     9  O   -0.333675
    10  H    0.282050
    11  H    0.088405
    12  H    0.100229
    13  H    0.081592
    14  H    0.122391
    15  H    0.092551
    16  H    0.101953
    17  H    0.116632
    18  H    0.105291
    19  H    0.104288
 Sum of Mulliken charges =   0.00000

 Dipole moment (field-independent basis, Debye):
    X=              0.8513    Y=             -0.1661    Z=              2.6100  Tot=              2.7503
 Quadrupole moment (field-independent basis, Debye-Ang):
   XX=            -51.9788   YY=            -51.6424   ZZ=            -54.2829
   XY=              2.0655   XZ=              0.9449   YZ=              3.0476

  Exact polarizability:  85.650   3.511  70.155   0.832   1.291  70.287
 Approx polarizability: 112.532   2.003 106.619   0.756   1.097 107.740

                      1                      2                      3
                      A                      A                      A
 Frequencies --     84.7675               189.2733               201.2758
 Red. masses --      2.4234                 2.4948                 1.5061
 Frc consts  --      0.0103                 0.0527                 0.0359
 IR Inten    --      1.1820                 7.2100                34.6518

                      4                      5                      6
                      A                      A                      A
 Frequencies --    228.1615               251.4861               377.4838
 Red. masses --      4.0427                 2.2311                 3.1903
 Frc consts  --      0.1240                 0.0831                 0.2678
 IR Inten    --      0.8638                63.5659                 8.1957

                      7                      8                      9
                      A                      A                      A
 Frequencies --    436.6024               475.5484               567.9468
 Red. masses --      3.3946                 2.5763                 3.2927
 Frc consts  --      0.3813                 0.3433                 0.6258
 IR Inten    --      0.0425                 4.6263                 7.5606

                     10                     11                     12
                      A                      A                      A
 Frequencies --    624.4895               673.0603               735.2045
 Red. masses --      2.6564                 3.9167                 2.4801
 Frc consts  --      0.6104                 1.0454                 0.7898
 IR Inten    --      4.7144                 7.0910                 5.3962

                     13                     14                     15
                      A                      A                      A
 Frequencies --    799.6377               817.5411               866.4340
 Red. masses --      1.1973                 3.1461                 5.0505
 Frc consts  --      0.4511                 1.2389                 2.2339
 IR Inten    --      1.5363                 4.3864                12.7227

                     16                     17                     18
                      A                      A                      A
 Frequencies --    923.7784               946.5900               950.1232
 Red. masses --      2.5962                 1.7221                 1.7315
 Frc consts  --      1.3054                 0.9092                 0.9210
 IR Inten    --      2.9842                 5.0740                 4.4850

                     19                     20                     21
                      A                      A                      A
 Frequencies --    972.5955               986.9829              1025.7136
 Red. masses --      2.2649                 1.7571                 4.7652
 Frc consts  --      1.2623                 1.0085                 2.9538
 IR Inten    --      6.7342                 8.6978               122.9721

                     22                     23                     24
                      A                      A                      A
 Frequencies --   1031.5698              1047.8913              1105.9454
 Red. masses --      1.2298                 1.7760                 1.5306
 Frc consts  --      0.7711                 1.1490                 1.1030
 IR Inten    --      9.3258                 7.7213                24.8925

                     25                     26                     27
                      A                      A                      A
 Frequencies --   1120.3446              1123.2296              1158.1124
 Red. masses --      2.3410                 2.3373                 1.4328
 Frc consts  --      1.7312                 1.7374                 1.1322
 IR Inten    --     27.3595                21.8956                 4.4196

                     28                     29                     30
                      A                      A                      A
 Frequencies --   1166.9167              1175.2358              1197.7580
 Red. masses --      1.1941                 2.0345                 1.5917
 Frc consts  --      0.9580                 1.6556                 1.3454
 IR Inten    --      0.1102                 9.5134                11.3215

                     31                     32                     33
                      A                      A                      A
 Frequencies --   1210.9788              1225.0965              1242.9109
 Red. masses --      1.4577                 1.6032                 1.5608
 Frc consts  --      1.2595                 1.4177                 1.4206
 IR Inten    --      0.3833                 4.0875                 4.4414

                     34                     35                     36
                      A                      A                      A
 Frequencies --   1272.2581              1337.3522              1354.9352
 Red. masses --      2.2725                 2.6011                 1.5454
 Frc consts  --      2.1672                 2.7410                 1.6716
 IR Inten    --    136.1189               107.6731                10.4627

                     37                     38                     39
                      A                      A                      A
 Frequencies --   1374.6410              1485.0268              1492.8722
 Red. masses --      2.5467                 1.1114                 1.0989
 Frc consts  --      2.8353                 1.4441                 1.4430
 IR Inten    --     31.0936                 3.2132                 0.3850

                     40                     41                     42
                      A                      A                      A
 Frequencies --   1531.6141              1538.4010              3022.8991
 Red. masses --      1.1181                 1.2229                 1.0550
 Frc consts  --      1.5454                 1.7052                 5.6802
 IR Inten    --      5.0248                12.1235                92.7324

                     43                     44                     45
                      A                      A                      A
 Frequencies --   3053.4208              3062.4523              3067.0912
 Red. masses --      1.0557                 1.0989                 1.0719
 Frc consts  --      5.7993                 6.0721                 5.9411
 IR Inten    --     29.7835                26.8863                43.8893

                     46                     47                     48
                      A                      A                      A
 Frequencies --   3070.5098              3120.8435              3124.7621
 Red. masses --      1.0577                 1.1070                 1.1092
 Frc consts  --      5.8752                 6.3525                 6.3811
 IR Inten    --     26.4785                21.4624                31.5185

                     49                     50                     51
                      A                      A                      A
 Frequencies --   3150.2564              3152.1164              3806.8763
 Red. masses --      1.1002                 1.1017                 1.0657
 Frc consts  --      6.4331                 6.4492                 9.0995
 IR Inten    --     25.8590                20.4863                20.0568

 - Thermochemistry -
 -------------------
 Temperature   298.150 Kelvin.  Pressure   1.00000 Atm.
 Atom     1 has atomic number  8 and mass  15.99491

 Molecular mass:   126.06808 amu.
 Principal axes and moments of inertia in atomic units:
                           1         2         3
     Eigenvalues --   643.930631199.253591287.84005
           X            0.99938   0.03117   0.01610
           Y           -0.03213   0.99746   0.06361
           Z           -0.01408  -0.06409   0.99784
 This molecule is an asymmetric top.
 Rotational symmetry number  1.
 Warning -- assumption of classical behavior for rotation
           may cause significant error
 Rotational temperatures (Kelvin)      0.13451     0.07222     0.06726
 Rotational constants (GHZ):           2.80270     1.50489     1.40137
 Zero-point vibrational energy     418447.8 (Joules/Mol)
                                  100.01143 (Kcal/Mol)
 Warning -- explicit consideration of   9 degrees of freedom as
           vibrations may cause significant error
 Vibrational temperatures:    121.96   272.32   289.59   328.27   361.83
          (Kelvin)            543.11   628.17   684.21   817.15   898.50
                              968.38  1057.79  1150.50  1176.26  1246.60
                             1329.11  1361.93  1367.01  1399.35  1420.05
                             1475.77  1484.20  1507.68  1591.21  1611.92
                             1616.07  1666.26  1678.93  1690.90  1723.30
                             1742.33  1762.64  1788.27  1830.49  1924.15
                             1949.45  1977.80  2136.62  2147.91  2203.65
                             2213.41  4349.27  4393.19  4406.18  4412.85
                             4417.77  4490.19  4495.83  4532.51  4535.19
                             5477.24

 Zero-point correction=                           0.159378 (Hartree/Particle)
 Thermal correction to Energy=                    0.167289
 Thermal correction to Enthalpy=                  0.168234
 Thermal correction to Gibbs Free Energy=         0.127062
 Sum of electronic and zero-point Energies=           -422.959135
 Sum of electronic and thermal Energies=              -422.951224
 Sum of electronic and thermal Enthalpies=            -422.950280
 Sum of electronic and thermal Free Energies=         -422.991451

                     E (Thermal)             CV                S
                      KCal/Mol        Cal/Mol-Kelvin    Cal/Mol-Kelvin
 Total                  104.976             31.171             86.653
 Electronic               0.000              0.000              0.000
 Translational            0.889              2.981             40.409
 Rotational               0.889              2.981             28.388
 Vibrational            103.198             25.209             17.856
 Vibration     1          0.601              1.960              3.777
 Vibration     2          0.633              1.855              2.235
 Vibration     3          0.638              1.838              2.121
 Vibration     4          0.651              1.798              1.893
 Vibration     5          0.663              1.760              1.720
 Vibration     6          0.748              1.518              1.049
 Vibration     7          0.797              1.390              0.837
 Vibration     8          0.832              1.304              0.722
 Vibration     9          0.924              1.101              0.508

 Optimization completed.
    -- Stationary point found.
 Normal termination of Gaussian 09 at Mon Jan 27 17:49:26 2020.
