 Gaussian 09, Revision D.01,
 Gaussian 09:  ES64L-G09RevD.01 24-Apr-2013

 -----------------------------
 # b3lyp 6-31G(2df,p) opt Freq
 -----------------------------

 -----
 titel
 -----
 Symbolic Z-matrix:
 Charge =  0 Multiplicity = 1

 SCF Done:  E(RB3LYP) =  -423.173560787     A.U. after   13 cycles
 SCF Done:  E(RB3LYP) =  -423.173560861     A.U. after    6 cycles
 SCF Done:  E(RB3LYP) =  -423.173560928     A.U. after    6 cycles
 Optimization completed.
    -- Stationary point found.
 Normal termination of Gaussian 09 at Tue Jan 28 14:10:09 2020.

 ----------------------------------------------------------------------
 #N Geom=AllCheck Guess=TCheck SCRF=Check GenChk RB3LYP/6-31G(2df,p) Fr
 eq
 ----------------------------------------------------------------------

 Structure from the checkpoint file:  "/scratch/puck/g09_4b03d25f-94d2-4302-a83a-e306918faca7/Gau-9654.chk"
 -----
 titel
 -----
 Charge =  0 Multiplicity = 1

                         Standard orientation:
 ---------------------------------------------------------------------
 Center     Atomic      Atomic             Coordinates (Angstroms)
 Number     Number       Type             X           Y           Z
 ---------------------------------------------------------------------
      1          8           0       -2.732082    0.184983   -0.464335
      2          6           0       -1.907199   -0.911818   -0.032506
      3          6           0       -0.450937   -0.701541   -0.381170
      4          6           0        0.612180   -0.836286    0.716743
      5          6           0        2.007633   -1.038642    0.238216
      6          6           0        2.439885    0.006801   -0.474053
      7          6           0        1.410702    1.112790   -0.540376
      8          6           0        0.199035    0.531549    0.192108
      9          8           0       -0.579236    1.411438    0.938300
     10          1           0       -2.645281    0.258229   -1.420780
     11          1           0       -2.045095   -0.949617    1.050699
     12          1           0       -2.279389   -1.857111   -0.449466
     13          1           0       -0.153813   -1.014997   -1.380707
     14          1           0        0.289263   -1.198195    1.686926
     15          1           0        2.574437   -1.940850    0.438649
     16          1           0        3.408759    0.081285   -0.954206
     17          1           0        1.749494    2.020022   -0.022375
     18          1           0        1.175061    1.410451   -1.570324
     19          1           0       -1.450675    1.442304    0.516099
 ---------------------------------------------------------------------

 SCF Done:  E(RB3LYP) =  -423.173560928     A.U. after    1 cycles

 The electronic state is 1-A.
 Alpha  occ. eigenvalues --  -19.15326 -19.12836 -10.23733 -10.23335 -10.19121
 Alpha  occ. eigenvalues --  -10.18790 -10.18102 -10.17979 -10.17777  -1.03300
 Alpha  occ. eigenvalues --   -1.01385  -0.87520  -0.77423  -0.69875  -0.69327
 Alpha  occ. eigenvalues --   -0.59649  -0.55743  -0.54565  -0.52812  -0.49978
 Alpha  occ. eigenvalues --   -0.46279  -0.44795  -0.42801  -0.41276  -0.40021
 Alpha  occ. eigenvalues --   -0.37840  -0.37250  -0.35940  -0.34131  -0.33141
 Alpha  occ. eigenvalues --   -0.29433  -0.27392  -0.25030  -0.22283
 Alpha virt. eigenvalues --    0.01658   0.06140   0.10987   0.11744   0.12658
 Alpha virt. eigenvalues --    0.13419   0.14529   0.15799   0.16765   0.17248
 Alpha virt. eigenvalues --    0.17756   0.18273   0.19577   0.22102   0.23467

 Mulliken charges:
               1
     1  O   -0.417000
     2  C   -0.125833
     3  C   -0.123985
     4  C   -0.163956
     5  C   -0.077272
     6  C   -0.083434
     7  C   -0.336754
     8  C    0.422963
     9  O   -0.484339
    10  H    0.287906
    11  H    0.126482
    12  H    0.103131
    13  H    0.080020
    14  H    0.092233
    15  H    0.094012
    16  H    0.094128
    17  H    0.120039
    18  H    0.100564
    19  H    0.291091
 Sum of Mulliken charges =   0.00000

 Dipole moment (field-independent basis, Debye):
    X=             -0.0570    Y=             -1.3624    Z=             -2.1036  Tot=              2.5069
 Quadrupole moment (field-independent basis, Debye-Ang):
   XX=            -53.3756   YY=            -53.3992   ZZ=            -51.2561
   XY=              1.1210   XZ=              2.2778   YZ=             -3.3516

  Exact polarizability:  89.274   1.830  76.050  -2.456  -6.456  64.219
 Approx polarizability: 117.562   2.965 120.726  -3.865 -12.596 104.325

                      1                      2                      3
                      A                      A                      A
 Frequencies --    112.4918               159.6096               212.7591
 Red. masses --      3.6702                 3.5882                 2.8390
 Frc consts  --      0.0274                 0.0539                 0.0757
 IR Inten    --      3.9900                 0.3788                 0.4756

                      4                      5                      6
                      A                      A                      A
 Frequencies --    228.3334               323.3245               368.7384
 Red. masses --      2.9607                 1.7207                 3.1724
 Frc consts  --      0.0909                 0.1060                 0.2541
 IR Inten    --      4.0781                27.5809                 1.7541

                      7                      8                      9
                      A                      A                      A
 Frequencies --    377.7590               415.1201               440.4237
 Red. masses --      2.0517                 3.2388                 2.3715
 Frc consts  --      0.1725                 0.3288                 0.2710
 IR Inten    --     63.2719                 8.2868                 6.9416

                     10                     11                     12
                      A                      A                      A
 Frequencies --    550.4385               596.3422               676.5814
 Red. masses --      3.2584                 1.0531                 3.6647
 Frc consts  --      0.5817                 0.2207                 0.9884
 IR Inten    --      2.3378               115.5023                 7.3064

                     13                     14                     15
                      A                      A                      A
 Frequencies --    727.7763               728.6132               775.7519
 Red. masses --      1.7533                 2.3051                 4.0114
 Frc consts  --      0.5471                 0.7210                 1.4223
 IR Inten    --     18.0697                12.5092                10.2670

                     16                     17                     18
                      A                      A                      A
 Frequencies --    846.2517               931.3377               938.9296
 Red. masses --      3.2835                 2.0526                 1.8030
 Frc consts  --      1.3854                 1.0490                 0.9365
 IR Inten    --     10.4988                25.1026                 7.3287

                     19                     20                     21
                      A                      A                      A
 Frequencies --    955.6907               963.9580               986.6107
 Red. masses --      1.4180                 1.8411                 2.2009
 Frc consts  --      0.7631                 1.0079                 1.2622
 IR Inten    --      2.4148                 5.7421                24.8849

                     22                     23                     24
                      A                      A                      A
 Frequencies --   1011.6929              1019.4483              1050.3792
 Red. masses --      2.1964                 3.2449                 1.7682
 Frc consts  --      1.3245                 1.9869                 1.1494
 IR Inten    --     60.7812                14.6226                11.9294

                     25                     26                     27
                      A                      A                      A
 Frequencies --   1073.7914              1089.5310              1135.5213
 Red. masses --      1.9087                 1.8966                 1.1405
 Frc consts  --      1.2967                 1.3265                 0.8665
 IR Inten    --      9.7519                10.0162                 1.1213

                     28                     29                     30
                      A                      A                      A
 Frequencies --   1150.2704              1185.7080              1226.8133
 Red. masses --      1.2249                 1.4835                 1.6998
 Frc consts  --      0.9549                 1.2288                 1.5074
 IR Inten    --     22.3866                 9.5096                28.9865

                     31                     32                     33
                      A                      A                      A
 Frequencies --   1257.4909              1287.2809              1330.8332
 Red. masses --      1.8475                 1.4792                 1.5536
 Frc consts  --      1.7212                 1.4442                 1.6212
 IR Inten    --     23.0159                 7.3267                53.9678

                     34                     35                     36
                      A                      A                      A
 Frequencies --   1360.3382              1372.6468              1410.7742
 Red. masses --      1.3690                 1.6404                 1.3286
 Frc consts  --      1.4926                 1.8210                 1.5580
 IR Inten    --      4.3991                 5.3115                23.9747

                     37                     38                     39
                      A                      A                      A
 Frequencies --   1419.3203              1426.9171              1473.5284
 Red. masses --      2.4757                 1.4430                 1.1292
 Frc consts  --      2.9384                 1.7310                 1.4445
 IR Inten    --     46.8335                46.5010                 2.4392

                     40                     41                     42
                      A                      A                      A
 Frequencies --   1498.6327              1662.3545              3016.4391
 Red. masses --      1.0838                 6.0970                 1.0692
 Frc consts  --      1.4341                 9.9269                 5.7320
 IR Inten    --      1.2220                 2.8928                64.4986

                     43                     44                     45
                      A                      A                      A
 Frequencies --   3017.9294              3047.2696              3099.3311
 Red. masses --      1.0591                 1.1022                 1.0930
 Frc consts  --      5.6831                 6.0300                 6.1858
 IR Inten    --     25.8951                18.0821                 3.1081

                     46                     47                     48
                      A                      A                      A
 Frequencies --   3118.3204              3169.9326              3186.0222
 Red. masses --      1.0908                 1.0889                 1.0856
 Frc consts  --      6.2493                 6.4469                 6.4926
 IR Inten    --     25.4727                10.9330                 9.0791

                     49                     50                     51
                      A                      A                      A
 Frequencies --   3210.2939              3706.4698              3811.1817
 Red. masses --      1.1036                 1.0662                 1.0663
 Frc consts  --      6.7011                 8.6302                 9.1251
 IR Inten    --     25.0131               141.3397                21.7619

 - Thermochemistry -
 -------------------
 Temperature   298.150 Kelvin.  Pressure   1.00000 Atm.
 Atom     1 has atomic number  8 and mass  15.99491

 Molecular mass:   126.06808 amu.
 Principal axes and moments of inertia in atomic units:
                           1         2         3
     Eigenvalues --   541.025741448.766191671.69164
           X            0.99989   0.01397  -0.00512
           Y           -0.01424   0.99828  -0.05691
           Z            0.00432   0.05698   0.99837
 This molecule is an asymmetric top.
 Rotational symmetry number  1.
 Warning -- assumption of classical behavior for rotation
           may cause significant error
 Rotational temperatures (Kelvin)      0.16009     0.05978     0.05181
 Rotational constants (GHZ):           3.33578     1.24571     1.07959
 Zero-point vibrational energy     419550.1 (Joules/Mol)
                                  100.27489 (Kcal/Mol)
 Warning -- explicit consideration of  11 degrees of freedom as
           vibrations may cause significant error
 Vibrational temperatures:    161.85   229.64   306.11   328.52   465.19
          (Kelvin)            530.53   543.51   597.26   633.67   791.96
                              858.00   973.45  1047.11  1048.31  1116.13
                             1217.57  1339.99  1350.91  1375.02  1386.92
                             1419.51  1455.60  1466.76  1511.26  1544.94
                             1567.59  1633.76  1654.98  1705.97  1765.11
                             1809.25  1852.11  1914.77  1957.22  1974.93
                             2029.79  2042.08  2053.01  2120.08  2156.20
                             2391.75  4339.98  4342.12  4384.34  4459.24
                             4486.56  4560.82  4583.97  4618.89  5332.78
                             5483.43

 Zero-point correction=                           0.159798 (Hartree/Particle)
 Thermal correction to Energy=                    0.168021
 Thermal correction to Enthalpy=                  0.168965
 Thermal correction to Gibbs Free Energy=         0.127368
 Sum of electronic and zero-point Energies=           -423.013763
 Sum of electronic and thermal Energies=              -423.005540
 Sum of electronic and thermal Enthalpies=            -423.004596
 Sum of electronic and thermal Free Energies=         -423.046192

                     E (Thermal)             CV                S
                      KCal/Mol        Cal/Mol-Kelvin    Cal/Mol-Kelvin
 Total                  105.435             32.660             87.548
 Electronic               0.000              0.000              0.000
 Translational            0.889              2.981             40.409
 Rotational               0.889              2.981             28.662
 Vibrational            103.657             26.698             18.477
 Vibration     1          0.607              1.939              3.225
 Vibration     2          0.621              1.892              2.554
 Vibration     3          0.644              1.821              2.020
 Vibration     4          0.651              1.798              1.892
 Vibration     5          0.708              1.629              1.293
 Vibration     6          0.741              1.536              1.085
 Vibration     7          0.748              1.518              1.048
 Vibration     8          0.779              1.437              0.909
 Vibration     9          0.800              1.382              0.825
 Vibration    10          0.906              1.139              0.543
 Vibration    11          0.954              1.040              0.456

 Optimization completed.
    -- Stationary point found.
 Normal termination of Gaussian 09 at Tue Jan 28 14:57:46 2020.
