 Gaussian 09, Revision D.01,
 Gaussian 09:  ES64L-G09RevD.01 24-Apr-2013

 -----------------------------
 # b3lyp 6-31G(2df,p) opt Freq
 -----------------------------

 -----
 titel
 -----
 Symbolic Z-matrix:
 Charge =  0 Multiplicity = 1

 SCF Done:  E(RB3LYP) =  -423.217666049     A.U. after   14 cycles
 Optimization completed.
    -- Stationary point found.
 Normal termination of Gaussian 09 at Mon Jan 27 10:21:28 2020.

 ----------------------------------------------------------------------
 #N Geom=AllCheck Guess=TCheck SCRF=Check GenChk RB3LYP/6-31G(2df,p) Fr
 eq
 ----------------------------------------------------------------------

 Structure from the checkpoint file:  "/scratch/puck/g09_68c6a523-e19d-499e-a7a8-8cecf5975ef7/Gau-14498.chk"
 -----
 titel
 -----
 Charge =  0 Multiplicity = 1

                         Standard orientation:
 ---------------------------------------------------------------------
 Center     Atomic      Atomic             Coordinates (Angstroms)
 Number     Number       Type             X           Y           Z
 ---------------------------------------------------------------------
      1          6           0       -2.426037   -0.001898   -1.270486
      2          6           0       -1.733793   -0.531599    0.000086
      3          6           0       -2.425946   -0.001480    1.270521
      4          6           0       -0.272549   -0.211187    0.000006
      5          6           0        0.850179   -0.983912    0.000137
      6          6           0        1.962177   -0.076752   -0.000004
      7          8           0        3.289856   -0.375322    0.000156
      8          6           0        1.440877    1.179088   -0.000185
      9          8           0        0.071903    1.102571   -0.000175
     10          1           0       -1.967719   -0.417501   -2.172628
     11          1           0       -3.487733   -0.268686   -1.269450
     12          1           0       -2.348757    1.088145   -1.324578
     13          1           0       -1.803871   -1.626081    0.000272
     14          1           0       -1.967748   -0.416947    2.172786
     15          1           0       -2.348401    1.088553    1.324330
     16          1           0       -3.487708   -0.268005    1.269518
     17          1           0        0.885781   -2.063372    0.000366
     18          1           0        3.389296   -1.331277   -0.000616
     19          1           0        1.873335    2.163623   -0.000300
 ---------------------------------------------------------------------

 SCF Done:  E(RB3LYP) =  -423.217666049     A.U. after    1 cycles

 The electronic state is 1-A.
 Alpha  occ. eigenvalues --  -19.19184 -19.16578 -10.22924 -10.22655 -10.20710
 Alpha  occ. eigenvalues --  -10.19860 -10.17426 -10.17426 -10.17364  -1.09541
 Alpha  occ. eigenvalues --   -1.05133  -0.80911  -0.78140  -0.71984  -0.68295
 Alpha  occ. eigenvalues --   -0.61402  -0.60172  -0.54756  -0.51896  -0.48843
 Alpha  occ. eigenvalues --   -0.44960  -0.44176  -0.43592  -0.41845  -0.40144
 Alpha  occ. eigenvalues --   -0.38334  -0.37655  -0.36909  -0.36734  -0.34095
 Alpha  occ. eigenvalues --   -0.33923  -0.32530  -0.24688  -0.19836
 Alpha virt. eigenvalues --    0.02641   0.06860   0.09077   0.10005   0.12291
 Alpha virt. eigenvalues --    0.14131   0.15038   0.15520   0.15617   0.17785
 Alpha virt. eigenvalues --    0.18916   0.19274   0.20250   0.20798   0.23692

 Mulliken charges:
               1
     1  C   -0.383177
     2  C   -0.086513
     3  C   -0.383175
     4  C    0.430929
     5  C   -0.457971
     6  C    0.309503
     7  O   -0.440850
     8  C   -0.123318
     9  O   -0.196142
    10  H    0.117242
    11  H    0.109617
    12  H    0.130111
    13  H    0.084582
    14  H    0.117244
    15  H    0.130115
    16  H    0.109614
    17  H    0.101279
    18  H    0.300150
    19  H    0.130760
 Sum of Mulliken charges =   0.00000

 Dipole moment (field-independent basis, Debye):
    X=             -0.5515    Y=             -1.8885    Z=             -0.0010  Tot=              1.9674
 Quadrupole moment (field-independent basis, Debye-Ang):
   XX=            -52.6361   YY=            -48.1137   ZZ=            -55.2921
   XY=             -3.4040   XZ=             -0.0046   YZ=              0.0013

  Exact polarizability: 102.377   0.008  77.609  -0.001  -0.001  56.646
 Approx polarizability: 139.240  -3.618 131.619   0.001  -0.005  80.235

                      1                      2                      3
                      A                      A                      A
 Frequencies --     45.9008               118.4585               175.0857
 Red. masses --      3.5729                 3.5102                 2.6770
 Frc consts  --      0.0044                 0.0290                 0.0484
 IR Inten    --      0.8279                 0.5129                 1.0647

                      4                      5                      6
                      A                      A                      A
 Frequencies --    195.6902               219.4860               256.8658
 Red. masses --      1.1834                 1.0305                 1.1868
 Frc consts  --      0.0267                 0.0293                 0.0461
 IR Inten    --     94.1600                 0.1149                 0.0374

                      7                      8                      9
                      A                      A                      A
 Frequencies --    292.6102               296.4784               394.9620
 Red. masses --      2.7710                 3.8061                 2.9076
 Frc consts  --      0.1398                 0.1971                 0.2672
 IR Inten    --      0.1794                 5.1921                 2.2523

                     10                     11                     12
                      A                      A                      A
 Frequencies --    422.4197               495.7890               615.6477
 Red. masses --      5.5796                 3.3078                 3.1155
 Frc consts  --      0.5866                 0.4790                 0.6957
 IR Inten    --      0.1807                 6.5379                 0.7695

                     13                     14                     15
                      A                      A                      A
 Frequencies --    630.8311               694.8540               715.0994
 Red. masses --      1.7696                 1.9379                 3.7865
 Frc consts  --      0.4149                 0.5513                 1.1408
 IR Inten    --     13.9063                 7.5999                 3.9374

                     16                     17                     18
                      A                      A                      A
 Frequencies --    716.4146               774.6019               873.7468
 Red. masses --      4.8931                 1.5682                 2.9462
 Frc consts  --      1.4797                 0.5544                 1.3252
 IR Inten    --      1.8670                34.1768                 2.0517

                     19                     20                     21
                      A                      A                      A
 Frequencies --    929.4016               957.6907               962.0069
 Red. masses --      1.1661                 3.0820                 1.5518
 Frc consts  --      0.5934                 1.6655                 0.8461
 IR Inten    --      1.0523                35.6458                 0.0009

                     22                     23                     24
                      A                      A                      A
 Frequencies --   1007.5206              1056.9111              1119.6804
 Red. masses --      4.7272                 1.6193                 2.3172
 Frc consts  --      2.8272                 1.0657                 1.7116
 IR Inten    --     12.0486                11.1368                 1.7046

                     25                     26                     27
                      A                      A                      A
 Frequencies --   1146.4442              1158.7054              1178.1913
 Red. masses --      1.4635                 4.1566                 1.4083
 Frc consts  --      1.1333                 3.2880                 1.1518
 IR Inten    --      3.7934                77.1572                27.8504

                     28                     29                     30
                      A                      A                      A
 Frequencies --   1204.7246              1284.4554              1328.0991
 Red. masses --      1.7825                 1.9689                 3.3051
 Frc consts  --      1.5242                 1.9138                 3.4348
 IR Inten    --     17.0084                23.6796                68.9516

                     31                     32                     33
                      A                      A                      A
 Frequencies --   1331.5560              1352.6888              1393.7154
 Red. masses --      1.3196                 1.5182                 1.2185
 Frc consts  --      1.3785                 1.6368                 1.3945
 IR Inten    --      2.3761                 6.9007                 2.4015

                     34                     35                     36
                      A                      A                      A
 Frequencies --   1415.6699              1448.3812              1485.6945
 Red. masses --      1.2518                 3.3755                 1.0419
 Frc consts  --      1.4782                 4.1721                 1.3549
 IR Inten    --      4.7481               119.2603                 0.8370

                     37                     38                     39
                      A                      A                      A
 Frequencies --   1491.3201              1499.3708              1510.4651
 Red. masses --      1.0490                 1.0435                 1.0727
 Frc consts  --      1.3745                 1.3822                 1.4419
 IR Inten    --      0.9862                 7.2784                 5.2393

                     40                     41                     42
                      A                      A                      A
 Frequencies --   1588.5836              1690.5644              3034.8108
 Red. masses --      6.1343                 5.7654                 1.0343
 Frc consts  --      9.1208                 9.7082                 5.6127
 IR Inten    --      0.6401                71.2476                25.4668

                     43                     44                     45
                      A                      A                      A
 Frequencies --   3035.8922              3038.7564              3105.5848
 Red. masses --      1.0832                 1.0351                 1.1020
 Frc consts  --      5.8821                 5.6317                 6.2619
 IR Inten    --     14.0345                24.7170                 7.3260

                     46                     47                     48
                      A                      A                      A
 Frequencies --   3109.9257              3114.0237              3118.3257
 Red. masses --      1.1018                 1.1024                 1.1014
 Frc consts  --      6.2786                 6.2983                 6.3100
 IR Inten    --     51.1274                12.3712                35.7218

                     49                     50                     51
                      A                      A                      A
 Frequencies --   3238.4182              3297.1747              3849.0075
 Red. masses --      1.0968                 1.0983                 1.0663
 Frc consts  --      6.7772                 7.0348                 9.3077
 IR Inten    --      1.9823                 0.8573                59.4483

 - Thermochemistry -
 -------------------
 Temperature   298.150 Kelvin.  Pressure   1.00000 Atm.
 Atom     1 has atomic number  6 and mass  12.00000

 Molecular mass:   126.06808 amu.
 Principal axes and moments of inertia in atomic units:
                           1         2         3
     Eigenvalues --   447.609891956.515592011.02477
           X            1.00000  -0.00182  -0.00001
           Y            0.00182   1.00000   0.00008
           Z            0.00001  -0.00008   1.00000
 This molecule is an asymmetric top.
 Rotational symmetry number  1.
 Warning -- assumption of classical behavior for rotation
           may cause significant error
 Rotational temperatures (Kelvin)      0.19350     0.04427     0.04307
 Rotational constants (GHZ):           4.03195     0.92243     0.89742
 Zero-point vibrational energy     415216.0 (Joules/Mol)
                                   99.23902 (Kcal/Mol)
 Warning -- explicit consideration of  12 degrees of freedom as
           vibrations may cause significant error
 Vibrational temperatures:     66.04   170.44   251.91   281.55   315.79
          (Kelvin)            369.57   421.00   426.57   568.26   607.77
                              713.33   885.78   907.62   999.74  1028.87
                             1030.76  1114.48  1257.13  1337.20  1377.90
                             1384.11  1449.60  1520.66  1610.97  1649.48
                             1667.12  1695.15  1733.33  1848.04  1910.84
                             1915.81  1946.22  2005.24  2036.83  2083.89
                             2137.58  2145.67  2157.26  2173.22  2285.61
                             2432.34  4366.41  4367.97  4372.09  4468.24
                             4474.48  4480.38  4486.57  4659.36  4743.89
                             5537.86

 Zero-point correction=                           0.158147 (Hartree/Particle)
 Thermal correction to Energy=                    0.167537
 Thermal correction to Enthalpy=                  0.168481
 Thermal correction to Gibbs Free Energy=         0.123741
 Sum of electronic and zero-point Energies=           -423.059519
 Sum of electronic and thermal Energies=              -423.050129
 Sum of electronic and thermal Enthalpies=            -423.049185
 Sum of electronic and thermal Free Energies=         -423.093925

                     E (Thermal)             CV                S
                      KCal/Mol        Cal/Mol-Kelvin    Cal/Mol-Kelvin
 Total                  105.131             34.720             94.164
 Electronic               0.000              0.000              0.000
 Translational            0.889              2.981             40.409
 Rotational               0.889              2.981             28.956
 Vibrational            103.353             28.758             24.800
 Vibration     1          0.595              1.979              4.987
 Vibration     2          0.609              1.934              3.125
 Vibration     3          0.627              1.873              2.380
 Vibration     4          0.636              1.846              2.173
 Vibration     5          0.647              1.811              1.963
 Vibration     6          0.666              1.751              1.683
 Vibration     7          0.688              1.688              1.459
 Vibration     8          0.690              1.680              1.437
 Vibration     9          0.762              1.481              0.981
 Vibration    10          0.785              1.421              0.884
 Vibration    11          0.851              1.259              0.669
 Vibration    12          0.975              0.999              0.424

 Optimization completed.
    -- Stationary point found.
 Normal termination of Gaussian 09 at Mon Jan 27 10:58:53 2020.
