 Gaussian 09, Revision D.01,
 Gaussian 09:  ES64L-G09RevD.01 24-Apr-2013

 -----------------------------
 # b3lyp 6-31G(2df,p) opt Freq
 -----------------------------

 -----
 titel
 -----
 Symbolic Z-matrix:
 Charge =  0 Multiplicity = 1

 SCF Done:  E(RB3LYP) =  -423.202602426     A.U. after   14 cycles
 Optimization completed.
    -- Stationary point found.
 Normal termination of Gaussian 09 at Tue Jan 28 00:48:22 2020.

 ----------------------------------------------------------------------
 #N Geom=AllCheck Guess=TCheck SCRF=Check GenChk RB3LYP/6-31G(2df,p) Fr
 eq
 ----------------------------------------------------------------------

 Structure from the checkpoint file:  "/scratch/puck/g09_f2be626e-6420-4a0d-9735-5f467e1b74bb/Gau-38485.chk"
 -----
 titel
 -----
 Charge =  0 Multiplicity = 1

                         Standard orientation:
 ---------------------------------------------------------------------
 Center     Atomic      Atomic             Coordinates (Angstroms)
 Number     Number       Type             X           Y           Z
 ---------------------------------------------------------------------
      1          8           0       -0.085946    2.121605   -0.769974
      2          6           0       -0.502230    1.277851    0.299843
      3          6           0        0.711313    0.636165    1.002329
      4          6           0        1.370326   -0.429052    0.140910
      5          8           0        2.559399   -0.438810   -0.077112
      6          6           0        0.454946   -1.503378   -0.449662
      7          6           0       -1.020661   -1.138247   -0.572052
      8          6           0       -1.883281   -0.946287    0.650369
      9          6           0       -1.502341    0.247878   -0.188659
     10          1           0        0.280482    1.567643   -1.468477
     11          1           0       -0.990256    1.962133    1.002909
     12          1           0        1.450986    1.401641    1.243683
     13          1           0        0.387354    0.166759    1.940297
     14          1           0        0.874446   -1.760742   -1.427045
     15          1           0        0.579220   -2.402883    0.170472
     16          1           0       -1.514243   -1.599675   -1.421598
     17          1           0       -2.912126   -1.285982    0.609067
     18          1           0       -1.424157   -1.065955    1.626514
     19          1           0       -2.287759    0.685128   -0.797587
 ---------------------------------------------------------------------

 SCF Done:  E(RB3LYP) =  -423.202602426     A.U. after    1 cycles

 The electronic state is 1-A.
 Alpha  occ. eigenvalues --  -19.13951 -19.12954 -10.27133 -10.24545 -10.20663
 Alpha  occ. eigenvalues --  -10.19991 -10.19885 -10.19624 -10.19125  -1.04120
 Alpha  occ. eigenvalues --   -1.02262  -0.87965  -0.77394  -0.74785  -0.66363
 Alpha  occ. eigenvalues --   -0.59993  -0.59180  -0.52351  -0.51924  -0.48613
 Alpha  occ. eigenvalues --   -0.47569  -0.45801  -0.43880  -0.43230  -0.41348
 Alpha  occ. eigenvalues --   -0.39318  -0.37432  -0.36294  -0.35620  -0.33782
 Alpha  occ. eigenvalues --   -0.30348  -0.29434  -0.27117  -0.23958
 Alpha virt. eigenvalues --   -0.02018   0.07391   0.08530   0.09569   0.10170
 Alpha virt. eigenvalues --    0.13541   0.13915   0.15269   0.16282   0.16735
 Alpha virt. eigenvalues --    0.17628   0.19130   0.20129   0.21264   0.23457

 Mulliken charges:
               1
     1  O   -0.430027
     2  C    0.097809
     3  C   -0.332671
     4  C    0.368063
     5  O   -0.304826
     6  C   -0.327915
     7  C   -0.035408
     8  C   -0.308324
     9  C   -0.046169
    10  H    0.283153
    11  H    0.096069
    12  H    0.130481
    13  H    0.120777
    14  H    0.131922
    15  H    0.135309
    16  H    0.095123
    17  H    0.116755
    18  H    0.112942
    19  H    0.096936
 Sum of Mulliken charges =   0.00000

 Dipole moment (field-independent basis, Debye):
    X=             -2.7182    Y=             -1.5343    Z=              0.3491  Tot=              3.1407
 Quadrupole moment (field-independent basis, Debye-Ang):
   XX=            -60.8155   YY=            -56.6536   ZZ=            -48.9914
   XY=              1.7760   XZ=              0.4940   YZ=              1.4939

  Exact polarizability:  81.474   1.115  74.387  -2.495   2.778  66.865
 Approx polarizability: 118.154   0.235 107.231  -7.204   1.303 104.150

                      1                      2                      3
                      A                      A                      A
 Frequencies --     29.5202               120.1601               213.9636
 Red. masses --      3.5432                 4.8571                 1.9570
 Frc consts  --      0.0018                 0.0413                 0.0528
 IR Inten    --      4.2168                 2.8082                11.0633

                      4                      5                      6
                      A                      A                      A
 Frequencies --    276.8555               313.0960               380.4798
 Red. masses --      1.2937                 2.8734                 2.8550
 Frc consts  --      0.0584                 0.1660                 0.2435
 IR Inten    --     69.8822                 7.6616                 4.2598

                      7                      8                      9
                      A                      A                      A
 Frequencies --    410.1841               449.8628               471.3821
 Red. masses --      2.8023                 3.1771                 3.5232
 Frc consts  --      0.2778                 0.3788                 0.4613
 IR Inten    --      5.5071                 4.3473                 7.7585

                     10                     11                     12
                      A                      A                      A
 Frequencies --    530.9203               558.7449               692.9173
 Red. masses --      3.9610                 3.8714                 3.5127
 Frc consts  --      0.6578                 0.7121                 0.9937
 IR Inten    --      1.6049                 1.6404                 1.7448

                     13                     14                     15
                      A                      A                      A
 Frequencies --    747.8703               790.5931               815.5237
 Red. masses --      2.2930                 1.8978                 2.5187
 Frc consts  --      0.7556                 0.6989                 0.9869
 IR Inten    --      7.0875                 0.5580                 9.2296

                     16                     17                     18
                      A                      A                      A
 Frequencies --    855.3555               877.7398               929.6395
 Red. masses --      1.4372                 2.2683                 2.3559
 Frc consts  --      0.6195                 1.0296                 1.1996
 IR Inten    --      0.6180                16.8527                 0.8707

                     19                     20                     21
                      A                      A                      A
 Frequencies --    939.1143              1017.6926              1032.0283
 Red. masses --      2.0124                 2.2974                 2.4483
 Frc consts  --      1.0457                 1.4019                 1.5364
 IR Inten    --      4.5444                44.7722                 5.3985

                     22                     23                     24
                      A                      A                      A
 Frequencies --   1063.8973              1070.0559              1098.0611
 Red. masses --      1.6639                 1.7713                 2.0154
 Frc consts  --      1.1096                 1.1950                 1.4317
 IR Inten    --      6.1746                 3.6293                63.1060

                     25                     26                     27
                      A                      A                      A
 Frequencies --   1120.6797              1138.0235              1167.1108
 Red. masses --      1.3166                 1.1957                 1.4304
 Frc consts  --      0.9742                 0.9124                 1.1480
 IR Inten    --     12.0008                 2.6463                27.7861

                     28                     29                     30
                      A                      A                      A
 Frequencies --   1205.6937              1235.5471              1242.0918
 Red. masses --      1.7079                 1.4130                 1.4327
 Frc consts  --      1.4628                 1.2709                 1.3023
 IR Inten    --     20.6007                10.5697                 7.7197

                     31                     32                     33
                      A                      A                      A
 Frequencies --   1268.2787              1295.2855              1326.7898
 Red. masses --      1.5763                 1.6146                 1.8076
 Frc consts  --      1.4939                 1.5961                 1.8748
 IR Inten    --     11.1111                11.2233                 6.1146

                     34                     35                     36
                      A                      A                      A
 Frequencies --   1371.6613              1378.4748              1408.6218
 Red. masses --      1.4444                 1.5929                 1.7053
 Frc consts  --      1.6011                 1.7834                 1.9936
 IR Inten    --     16.0695                 8.3673                 2.3562

                     37                     38                     39
                      A                      A                      A
 Frequencies --   1426.2423              1451.7951              1456.7262
 Red. masses --      1.2379                 1.0749                 1.1691
 Frc consts  --      1.4836                 1.3348                 1.4618
 IR Inten    --     54.3803                 5.1155                17.5387

                     40                     41                     42
                      A                      A                      A
 Frequencies --   1497.0574              1811.7868              3014.9393
 Red. masses --      1.3010                11.6334                 1.0687
 Frc consts  --      1.7179                22.4993                 5.7238
 IR Inten    --      5.7331               178.0506                14.3537

                     43                     44                     45
                      A                      A                      A
 Frequencies --   3033.5575              3048.6266              3082.3287
 Red. masses --      1.0679                 1.0837                 1.0918
 Frc consts  --      5.7901                 5.9342                 6.1116
 IR Inten    --      9.5159                32.7900                 7.1493

                     46                     47                     48
                      A                      A                      A
 Frequencies --   3122.7936              3131.5326              3148.8238
 Red. masses --      1.0950                 1.0552                 1.0877
 Frc consts  --      6.2917                 6.0968                 6.3540
 IR Inten    --      8.4776                14.6118                10.6888

                     49                     50                     51
                      A                      A                      A
 Frequencies --   3158.5116              3213.5153              3799.8858
 Red. masses --      1.0909                 1.1151                 1.0659
 Frc consts  --      6.4121                 6.7844                 9.0683
 IR Inten    --     14.1912                12.8524                11.8381

 - Thermochemistry -
 -------------------
 Temperature   298.150 Kelvin.  Pressure   1.00000 Atm.
 Atom     1 has atomic number  8 and mass  15.99491

 Molecular mass:   126.06808 amu.
 Principal axes and moments of inertia in atomic units:
                           1         2         3
     Eigenvalues --   821.056941052.858321509.23764
           X            0.99823   0.05940  -0.00044
           Y           -0.05937   0.99796   0.02333
           Z            0.00182  -0.02326   0.99973
 This molecule is an asymmetric top.
 Rotational symmetry number  1.
 Warning -- assumption of classical behavior for rotation
           may cause significant error
 Rotational temperatures (Kelvin)      0.10549     0.08227     0.05739
 Rotational constants (GHZ):           2.19807     1.71413     1.19580
 Zero-point vibrational energy     420140.7 (Joules/Mol)
                                  100.41604 (Kcal/Mol)
 Warning -- explicit consideration of  11 degrees of freedom as
           vibrations may cause significant error
 Vibrational temperatures:     42.47   172.88   307.85   398.33   450.47
          (Kelvin)            547.42   590.16   647.25   678.21   763.87
                              803.91   996.95  1076.02  1137.49  1173.36
                             1230.66  1262.87  1337.54  1351.17  1464.23
                             1484.86  1530.71  1539.57  1579.86  1612.41
                             1637.36  1679.21  1734.72  1777.67  1787.09
                             1824.77  1863.62  1908.95  1973.51  1983.32
                             2026.69  2052.04  2088.81  2095.90  2153.93
                             2606.75  4337.82  4364.61  4386.29  4434.78
                             4493.00  4505.57  4530.45  4544.39  4623.53
                             5467.18

 Zero-point correction=                           0.160023 (Hartree/Particle)
 Thermal correction to Energy=                    0.168272
 Thermal correction to Enthalpy=                  0.169216
 Thermal correction to Gibbs Free Energy=         0.126490
 Sum of electronic and zero-point Energies=           -423.042579
 Sum of electronic and thermal Energies=              -423.034330
 Sum of electronic and thermal Enthalpies=            -423.033386
 Sum of electronic and thermal Free Energies=         -423.076112

                     E (Thermal)             CV                S
                      KCal/Mol        Cal/Mol-Kelvin    Cal/Mol-Kelvin
 Total                  105.592             31.940             89.924
 Electronic               0.000              0.000              0.000
 Translational            0.889              2.981             40.409
 Rotational               0.889              2.981             28.658
 Vibrational            103.815             25.979             20.858
 Vibration     1          0.593              1.984              5.861
 Vibration     2          0.609              1.932              3.098
 Vibration     3          0.644              1.820              2.010
 Vibration     4          0.678              1.716              1.553
 Vibration     5          0.701              1.649              1.346
 Vibration     6          0.750              1.512              1.037
 Vibration     7          0.774              1.448              0.926
 Vibration     8          0.809              1.361              0.796
 Vibration     9          0.828              1.314              0.734
 Vibration    10          0.886              1.182              0.585
 Vibration    11          0.914              1.121              0.526

 Optimization completed.
    -- Stationary point found.
 Normal termination of Gaussian 09 at Tue Jan 28 02:56:57 2020.
