 Gaussian 09, Revision D.01,
 Gaussian 09:  ES64L-G09RevD.01 24-Apr-2013

 -----------------------------
 # b3lyp 6-31G(2df,p) opt Freq
 -----------------------------

 -----
 titel
 -----
 Symbolic Z-matrix:
 Charge =  0 Multiplicity = 1

 SCF Done:  E(RB3LYP) =  -423.128172602     A.U. after   13 cycles
 Optimization completed.
    -- Stationary point found.
 Normal termination of Gaussian 09 at Mon Jan 27 16:24:31 2020.

 ----------------------------------------------------------------------
 #N Geom=AllCheck Guess=TCheck SCRF=Check GenChk RB3LYP/6-31G(2df,p) Fr
 eq
 ----------------------------------------------------------------------

 Structure from the checkpoint file:  "/scratch/puck/g09_ac026856-0e08-4159-89fd-333b22475342/Gau-37054.chk"
 -----
 titel
 -----
 Charge =  0 Multiplicity = 1

                         Standard orientation:
 ---------------------------------------------------------------------
 Center     Atomic      Atomic             Coordinates (Angstroms)
 Number     Number       Type             X           Y           Z
 ---------------------------------------------------------------------
      1          8           0       -1.350339    1.521424   -0.619481
      2          6           0       -1.067767    0.253445   -0.083481
      3          6           0       -2.056176   -0.347007    0.889789
      4          6           0       -1.966938   -0.855794   -0.534011
      5          6           0        0.385942   -0.003986    0.099723
      6          6           0        1.446967    0.937958    0.707000
      7          6           0        2.522227    0.222989   -0.185360
      8          6           0        1.403910   -0.667738   -0.738566
      9          8           0        0.809967   -1.339868    0.387439
     10          1           0       -1.283107    2.164996    0.094110
     11          1           0       -1.673895   -0.979793    1.682718
     12          1           0       -2.914819    0.262023    1.150812
     13          1           0       -1.523153   -1.830301   -0.695895
     14          1           0       -2.758891   -0.573594   -1.217423
     15          1           0        1.303926    1.982318    0.420691
     16          1           0        1.569294    0.862540    1.790120
     17          1           0        2.954609    0.888414   -0.935847
     18          1           0        3.320441   -0.308845    0.337325
     19          1           0        1.319585   -1.159407   -1.700842
 ---------------------------------------------------------------------

 SCF Done:  E(RB3LYP) =  -423.128172602     A.U. after    1 cycles

 The electronic state is 1-A.
 Alpha  occ. eigenvalues --  -19.14951 -19.14646 -10.24320 -10.23732 -10.23222
 Alpha  occ. eigenvalues --  -10.18964 -10.18886 -10.18449 -10.18228  -1.07607
 Alpha  occ. eigenvalues --   -1.03132  -0.84566  -0.79918  -0.68091  -0.64196
 Alpha  occ. eigenvalues --   -0.60408  -0.58927  -0.55061  -0.53469  -0.49184
 Alpha  occ. eigenvalues --   -0.45913  -0.45087  -0.44626  -0.42027  -0.38938
 Alpha  occ. eigenvalues --   -0.37069  -0.35807  -0.34884  -0.34134  -0.32906
 Alpha  occ. eigenvalues --   -0.30175  -0.28676  -0.26192  -0.24257
 Alpha virt. eigenvalues --    0.07180   0.08730   0.10452   0.11834   0.12085
 Alpha virt. eigenvalues --    0.12299   0.13565   0.14792   0.15256   0.16917
 Alpha virt. eigenvalues --    0.17463   0.18723   0.19616   0.21204   0.23039

 Mulliken charges:
               1
     1  O   -0.454634
     2  C    0.244477
     3  C   -0.327195
     4  C   -0.297982
     5  C    0.413649
     6  C   -0.310208
     7  C   -0.236149
     8  C   -0.050972
     9  O   -0.294636
    10  H    0.284478
    11  H    0.127772
    12  H    0.112431
    13  H    0.130589
    14  H    0.121393
    15  H    0.105320
    16  H    0.105836
    17  H    0.109281
    18  H    0.112052
    19  H    0.104498
 Sum of Mulliken charges =   0.00000

 Dipole moment (field-independent basis, Debye):
    X=              0.3190    Y=              1.3279    Z=              0.3522  Tot=              1.4104
 Quadrupole moment (field-independent basis, Debye-Ang):
   XX=            -51.3942   YY=            -52.8418   ZZ=            -52.7645
   XY=              0.7122   XZ=             -2.9843   YZ=              4.3903

  Exact polarizability:  87.192   2.196  71.139  -2.977   4.216  67.815
 Approx polarizability: 110.742   0.449 110.996  -5.573   3.006 105.793

                      1                      2                      3
                      A                      A                      A
 Frequencies --     63.9376               146.2247               184.7401
 Red. masses --      3.7944                 3.0087                 3.0969
 Frc consts  --      0.0091                 0.0379                 0.0623
 IR Inten    --      1.5305                 4.0353                 0.4139

                      4                      5                      6
                      A                      A                      A
 Frequencies --    261.0683               287.0258               308.3892
 Red. masses --      1.7143                 1.4619                 2.6937
 Frc consts  --      0.0688                 0.0710                 0.1509
 IR Inten    --     19.5437                71.4283                 4.6712

                      7                      8                      9
                      A                      A                      A
 Frequencies --    359.7823               446.3448               498.2347
 Red. masses --      2.0896                 3.8543                 4.4021
 Frc consts  --      0.1594                 0.4524                 0.6438
 IR Inten    --     21.8938                11.1217                 9.2998

                     10                     11                     12
                      A                      A                      A
 Frequencies --    521.3033               552.7647               741.3841
 Red. masses --      3.2387                 3.4047                 4.8400
 Frc consts  --      0.5186                 0.6129                 1.5674
 IR Inten    --      5.9346                 0.5299                 1.5274

                     13                     14                     15
                      A                      A                      A
 Frequencies --    774.3638               778.9480               842.2787
 Red. masses --      1.2964                 1.1352                 2.7374
 Frc consts  --      0.4580                 0.4058                 1.1442
 IR Inten    --      1.1326                 0.7165                 3.4495

                     16                     17                     18
                      A                      A                      A
 Frequencies --    881.4380               901.4002               922.4297
 Red. masses --      2.4841                 2.0768                 2.2550
 Frc consts  --      1.1371                 0.9942                 1.1305
 IR Inten    --     19.1289                 7.4964                12.8310

                     19                     20                     21
                      A                      A                      A
 Frequencies --    930.8953               947.3609               950.1410
 Red. masses --      2.1656                 2.4524                 2.3882
 Frc consts  --      1.1057                 1.2968                 1.2703
 IR Inten    --     13.0102                 8.4909                 1.7226

                     22                     23                     24
                      A                      A                      A
 Frequencies --    987.0527              1015.0262              1055.3965
 Red. masses --      2.1375                 1.9251                 1.4068
 Frc consts  --      1.2270                 1.1686                 0.9232
 IR Inten    --     13.4124                 5.0579                15.9252

                     25                     26                     27
                      A                      A                      A
 Frequencies --   1057.1127              1084.8358              1123.8944
 Red. masses --      2.1535                 1.4347                 2.3246
 Frc consts  --      1.4179                 0.9948                 1.7300
 IR Inten    --      4.4351                 0.4625                19.5247

                     28                     29                     30
                      A                      A                      A
 Frequencies --   1154.2764              1195.9243              1210.0444
 Red. masses --      1.5524                 1.2685                 1.5863
 Frc consts  --      1.2187                 1.0689                 1.3685
 IR Inten    --     11.7073                 0.4104                 8.2073

                     31                     32                     33
                      A                      A                      A
 Frequencies --   1215.2842              1234.5750              1259.0169
 Red. masses --      1.2041                 1.4245                 2.1787
 Frc consts  --      1.0477                 1.2792                 2.0348
 IR Inten    --      2.3607                14.8029               114.2051

                     34                     35                     36
                      A                      A                      A
 Frequencies --   1273.1293              1312.9296              1362.3487
 Red. masses --      1.6658                 2.1709                 1.6887
 Frc consts  --      1.5908                 2.2048                 1.8466
 IR Inten    --      4.1716                 5.4310                13.6204

                     37                     38                     39
                      A                      A                      A
 Frequencies --   1441.3423              1461.3594              1464.7885
 Red. masses --      1.0929                 1.2316                 1.6273
 Frc consts  --      1.3377                 1.5496                 2.0571
 IR Inten    --      3.4021                 0.3585                 0.4278

                     40                     41                     42
                      A                      A                      A
 Frequencies --   1483.8366              1501.8568              3064.1051
 Red. masses --      1.3288                 2.2021                 1.0561
 Frc consts  --      1.7238                 2.9265                 5.8420
 IR Inten    --      6.3254                 0.8786                31.6346

                     43                     44                     45
                      A                      A                      A
 Frequencies --   3071.9612              3117.0156              3133.2549
 Red. masses --      1.0592                 1.1090                 1.1078
 Frc consts  --      5.8890                 6.3481                 6.4076
 IR Inten    --     34.3072                 0.2254                31.4586

                     46                     47                     48
                      A                      A                      A
 Frequencies --   3134.4530              3148.7273              3188.3658
 Red. masses --      1.0532                 1.0542                 1.0941
 Frc consts  --      6.0964                 6.1580                 6.5532
 IR Inten    --     10.7695                 5.8250                16.0131

                     49                     50                     51
                      A                      A                      A
 Frequencies --   3225.0747              3245.8639              3801.7841
 Red. masses --      1.1186                 1.1173                 1.0662
 Frc consts  --      6.8549                 6.9353                 9.0796
 IR Inten    --      2.8366                 4.5861                18.5252

 - Thermochemistry -
 -------------------
 Temperature   298.150 Kelvin.  Pressure   1.00000 Atm.
 Atom     1 has atomic number  8 and mass  15.99491

 Molecular mass:   126.06808 amu.
 Principal axes and moments of inertia in atomic units:
                           1         2         3
     Eigenvalues --   562.661581336.807141557.97536
           X            0.99952   0.03027  -0.00697
           Y           -0.02973   0.99729   0.06722
           Z            0.00899  -0.06698   0.99771
 This molecule is an asymmetric top.
 Rotational symmetry number  1.
 Warning -- assumption of classical behavior for rotation
           may cause significant error
 Rotational temperatures (Kelvin)      0.15394     0.06479     0.05559
 Rotational constants (GHZ):           3.20751     1.35004     1.15839
 Zero-point vibrational energy     414656.1 (Joules/Mol)
                                   99.10519 (Kcal/Mol)
 Warning -- explicit consideration of  11 degrees of freedom as
           vibrations may cause significant error
 Vibrational temperatures:     91.99   210.38   265.80   375.62   412.97
          (Kelvin)            443.70   517.65   642.19   716.85   750.04
                              795.30  1066.68  1114.14  1120.73  1211.85
                             1268.19  1296.91  1327.17  1339.35  1363.04
                             1367.04  1420.15  1460.39  1518.48  1520.95
                             1560.83  1617.03  1660.74  1720.67  1740.98
                             1748.52  1776.28  1811.44  1831.75  1889.01
                             1960.11  2073.77  2102.57  2107.50  2134.91
                             2160.83  4408.56  4419.86  4484.68  4508.05
                             4509.77  4530.31  4587.34  4640.16  4670.07
                             5469.91

 Zero-point correction=                           0.157934 (Hartree/Particle)
 Thermal correction to Energy=                    0.166337
 Thermal correction to Enthalpy=                  0.167281
 Thermal correction to Gibbs Free Energy=         0.124971
 Sum of electronic and zero-point Energies=           -422.970238
 Sum of electronic and thermal Energies=              -422.961835
 Sum of electronic and thermal Enthalpies=            -422.960891
 Sum of electronic and thermal Free Energies=         -423.003202

                     E (Thermal)             CV                S
                      KCal/Mol        Cal/Mol-Kelvin    Cal/Mol-Kelvin
 Total                  104.378             32.834             89.050
 Electronic               0.000              0.000              0.000
 Translational            0.889              2.981             40.409
 Rotational               0.889              2.981             28.551
 Vibrational            102.601             26.872             20.090
 Vibration     1          0.597              1.972              4.332
 Vibration     2          0.617              1.907              2.721
 Vibration     3          0.631              1.861              2.280
 Vibration     4          0.669              1.744              1.655
 Vibration     5          0.684              1.698              1.491
 Vibration     6          0.698              1.658              1.371
 Vibration     7          0.734              1.555              1.123
 Vibration     8          0.806              1.369              0.807
 Vibration     9          0.854              1.254              0.663
 Vibration    10          0.876              1.203              0.607
 Vibration    11          0.908              1.134              0.538

 Optimization completed.
    -- Stationary point found.
 Normal termination of Gaussian 09 at Mon Jan 27 17:18:51 2020.
