 Gaussian 09, Revision D.01,
 Gaussian 09:  ES64L-G09RevD.01 24-Apr-2013

 -----------------------------
 # b3lyp 6-31G(2df,p) opt Freq
 -----------------------------

 -----
 titel
 -----
 Symbolic Z-matrix:
 Charge =  0 Multiplicity = 1

 SCF Done:  E(RB3LYP) =  -423.168577409     A.U. after   14 cycles
 Optimization completed.
    -- Stationary point found.
 Normal termination of Gaussian 09 at Mon Jan 27 15:27:04 2020.

 ----------------------------------------------------------------------
 #N Geom=AllCheck Guess=TCheck SCRF=Check GenChk RB3LYP/6-31G(2df,p) Fr
 eq
 ----------------------------------------------------------------------

 Structure from the checkpoint file:  "/scratch/puck/g09_83839113-5673-4c71-970c-88878810ca6e/Gau-173884.chk"
 -----
 titel
 -----
 Charge =  0 Multiplicity = 1

                         Standard orientation:
 ---------------------------------------------------------------------
 Center     Atomic      Atomic             Coordinates (Angstroms)
 Number     Number       Type             X           Y           Z
 ---------------------------------------------------------------------
      1          6           0        2.184731   -1.246202   -0.420249
      2          6           0        1.517801    0.131808   -0.513997
      3          6           0        2.336119    1.207267    0.223272
      4          6           0        0.107978    0.112699    0.011317
      5          6           0       -0.975565    1.203172   -0.132840
      6          6           0       -2.010686    0.037727   -0.116071
      7          8           0       -3.178359   -0.033433   -0.355850
      8          6           0       -0.901397   -0.985298    0.093417
      9          8           0       -0.177267   -0.521700    1.257979
     10          1           0        2.210279   -1.591910    0.616972
     11          1           0        1.648089   -1.991863   -1.014592
     12          1           0        3.212345   -1.197254   -0.791531
     13          1           0        1.451402    0.420628   -1.572119
     14          1           0        2.415867    0.967749    1.288587
     15          1           0        3.347880    1.267730   -0.188395
     16          1           0        1.875505    2.195896    0.132545
     17          1           0       -1.022479    1.929973    0.680123
     18          1           0       -0.996531    1.715652   -1.099787
     19          1           0       -0.851228   -2.042572   -0.137929
 ---------------------------------------------------------------------

 SCF Done:  E(RB3LYP) =  -423.168577409     A.U. after    1 cycles

 The electronic state is 1-A.
 Alpha  occ. eigenvalues --  -19.17119 -19.14451 -10.28039 -10.25946 -10.24767
 Alpha  occ. eigenvalues --  -10.21051 -10.20136 -10.18622 -10.18427  -1.09658
 Alpha  occ. eigenvalues --   -1.05186  -0.81817  -0.79577  -0.69780  -0.67446
 Alpha  occ. eigenvalues --   -0.64543  -0.56305  -0.54888  -0.49713  -0.47853
 Alpha  occ. eigenvalues --   -0.46490  -0.45065  -0.43189  -0.42052  -0.41579
 Alpha  occ. eigenvalues --   -0.39644  -0.39293  -0.36934  -0.36265  -0.34842
 Alpha  occ. eigenvalues --   -0.34539  -0.31635  -0.28321  -0.24211
 Alpha virt. eigenvalues --   -0.02605   0.06651   0.09446   0.10930   0.11447
 Alpha virt. eigenvalues --    0.12801   0.13744   0.14411   0.15109   0.15603
 Alpha virt. eigenvalues --    0.16703   0.17479   0.18848   0.19239   0.20633

 Mulliken charges:
               1
     1  C   -0.396726
     2  C   -0.100507
     3  C   -0.392506
     4  C    0.442617
     5  C   -0.427104
     6  C    0.435672
     7  O   -0.299439
     8  C   -0.198012
     9  O   -0.277836
    10  H    0.137359
    11  H    0.115632
    12  H    0.116000
    13  H    0.086295
    14  H    0.133409
    15  H    0.117796
    16  H    0.120329
    17  H    0.134978
    18  H    0.131424
    19  H    0.120618
 Sum of Mulliken charges =   0.00000

 Dipole moment (field-independent basis, Debye):
    X=              3.0446    Y=              0.4158    Z=             -1.2466  Tot=              3.3161
 Quadrupole moment (field-independent basis, Debye-Ang):
   XX=            -62.9399   YY=            -50.2758   ZZ=            -54.5586
   XY=              0.1061   XZ=             -1.6392   YZ=              0.8320

  Exact polarizability:  92.853   1.880  76.005   1.904  -0.201  59.801
 Approx polarizability: 129.052   6.239 110.009   6.389  -2.712  99.703

                      1                      2                      3
                      A                      A                      A
 Frequencies --     60.0428                92.4604               173.9005
 Red. masses --      3.2290                 5.2355                 3.2928
 Frc consts  --      0.0069                 0.0264                 0.0587
 IR Inten    --      0.0476                 3.2413                 1.1405

                      4                      5                      6
                      A                      A                      A
 Frequencies --    212.9069               225.6085               271.8313
 Red. masses --      1.1412                 1.3862                 1.6765
 Frc consts  --      0.0305                 0.0416                 0.0730
 IR Inten    --      0.4602                 1.6832                 1.2514

                      7                      8                      9
                      A                      A                      A
 Frequencies --    316.4502               376.1652               442.2057
 Red. masses --      2.6074                 3.5689                 2.7120
 Frc consts  --      0.1538                 0.2975                 0.3125
 IR Inten    --      1.2333                 2.3821                 6.4437

                     10                     11                     12
                      A                      A                      A
 Frequencies --    460.5428               497.9399               579.0430
 Red. masses --      3.3149                 3.0658                 3.3734
 Frc consts  --      0.4142                 0.4479                 0.6664
 IR Inten    --      3.0096                 1.5165                 6.0080

                     13                     14                     15
                      A                      A                      A
 Frequencies --    642.7843               681.2542               772.3956
 Red. masses --      2.7428                 3.7642                 3.5536
 Frc consts  --      0.6677                 1.0293                 1.2491
 IR Inten    --      1.2813                 1.9518                12.1772

                     16                     17                     18
                      A                      A                      A
 Frequencies --    859.1555               875.6557               932.0301
 Red. masses --      4.7464                 2.6298                 1.1643
 Frc consts  --      2.0642                 1.1881                 0.5959
 IR Inten    --     18.7932                 1.2290                 0.8220

                     19                     20                     21
                      A                      A                      A
 Frequencies --    952.1904               967.4312               983.4844
 Red. masses --      2.7844                 1.6859                 2.4424
 Frc consts  --      1.4874                 0.9297                 1.3919
 IR Inten    --     10.5390                 2.0670                 5.7918

                     22                     23                     24
                      A                      A                      A
 Frequencies --   1000.3814              1043.1111              1084.7051
 Red. masses --      1.5302                 3.4858                 1.6161
 Frc consts  --      0.9022                 2.2347                 1.1203
 IR Inten    --      0.2053                22.1167                 5.3569

                     25                     26                     27
                      A                      A                      A
 Frequencies --   1107.7344              1133.5653              1168.8106
 Red. masses --      1.9380                 1.7874                 1.7977
 Frc consts  --      1.4012                 1.3532                 1.4469
 IR Inten    --     13.5979                 8.2708                 4.7914

                     28                     29                     30
                      A                      A                      A
 Frequencies --   1195.1541              1212.8310              1217.1578
 Red. masses --      1.5772                 2.0930                 1.7634
 Frc consts  --      1.3273                 1.8139                 1.5392
 IR Inten    --     12.6196                12.3281                 4.2396

                     31                     32                     33
                      A                      A                      A
 Frequencies --   1337.4669              1358.5902              1398.7350
 Red. masses --      1.3545                 1.6389                 1.2368
 Frc consts  --      1.4276                 1.7823                 1.4257
 IR Inten    --      1.7392                13.0233                 3.8473

                     34                     35                     36
                      A                      A                      A
 Frequencies --   1409.0730              1426.0893              1452.4544
 Red. masses --      1.8742                 1.3776                 1.4788
 Frc consts  --      2.1925                 1.6507                 1.8381
 IR Inten    --      8.3537                 7.8107                 6.1360

                     37                     38                     39
                      A                      A                      A
 Frequencies --   1488.1077              1492.2029              1502.5530
 Red. masses --      1.0413                 1.0490                 1.0479
 Frc consts  --      1.3587                 1.3762                 1.3939
 IR Inten    --      2.0006                 0.8585                 6.6161

                     40                     41                     42
                      A                      A                      A
 Frequencies --   1517.2477              1899.5277              3013.3796
 Red. masses --      1.0998                12.5449                 1.0824
 Frc consts  --      1.4917                26.6692                 5.7908
 IR Inten    --     11.7338               338.0975                16.0578

                     43                     44                     45
                      A                      A                      A
 Frequencies --   3036.6105              3043.4610              3064.8846
 Red. masses --      1.0343                 1.0351                 1.0591
 Frc consts  --      5.6195                 5.6490                 5.8617
 IR Inten    --     22.6134                14.2816                 7.2674

                     46                     47                     48
                      A                      A                      A
 Frequencies --   3107.9097              3110.8724              3112.4451
 Red. masses --      1.1019                 1.1020                 1.1017
 Frc consts  --      6.2712                 6.2835                 6.2879
 IR Inten    --     18.7741                13.6514                32.8258

                     49                     50                     51
                      A                      A                      A
 Frequencies --   3122.5874              3130.3263              3197.0592
 Red. masses --      1.1017                 1.1054                 1.0954
 Frc consts  --      6.3293                 6.3817                 6.5968
 IR Inten    --     23.5162                 6.9931                 7.4519

 - Thermochemistry -
 -------------------
 Temperature   298.150 Kelvin.  Pressure   1.00000 Atm.
 Atom     1 has atomic number  6 and mass  12.00000

 Molecular mass:   126.06808 amu.
 Principal axes and moments of inertia in atomic units:
                           1         2         3
     Eigenvalues --   492.913421664.789341861.02505
           X            0.99998  -0.00307  -0.00555
           Y            0.00330   0.99913   0.04169
           Z            0.00541  -0.04171   0.99912
 This molecule is an asymmetric top.
 Rotational symmetry number  1.
 Warning -- assumption of classical behavior for rotation
           may cause significant error
 Rotational temperatures (Kelvin)      0.17572     0.05203     0.04654
 Rotational constants (GHZ):           3.66138     1.08407     0.96976
 Zero-point vibrational energy     411279.2 (Joules/Mol)
                                   98.29809 (Kcal/Mol)
 Warning -- explicit consideration of  12 degrees of freedom as
           vibrations may cause significant error
 Vibrational temperatures:     86.39   133.03   250.20   306.33   324.60
          (Kelvin)            391.10   455.30   541.22   636.23   662.62
                              716.42   833.11   924.82   980.17  1111.30
                             1236.13  1259.87  1340.98  1369.99  1391.92
                             1415.01  1439.32  1500.80  1560.65  1593.78
                             1630.95  1681.66  1719.56  1744.99  1751.22
                             1924.31  1954.71  2012.47  2027.34  2051.82
                             2089.76  2141.05  2146.94  2161.84  2182.98
                             2732.99  4335.58  4369.00  4378.86  4409.68
                             4471.58  4475.85  4478.11  4492.70  4503.84
                             4599.85

 Zero-point correction=                           0.156648 (Hartree/Particle)
 Thermal correction to Energy=                    0.165737
 Thermal correction to Enthalpy=                  0.166681
 Thermal correction to Gibbs Free Energy=         0.122638
 Sum of electronic and zero-point Energies=           -423.011929
 Sum of electronic and thermal Energies=              -423.002841
 Sum of electronic and thermal Enthalpies=            -423.001897
 Sum of electronic and thermal Free Energies=         -423.045939

                     E (Thermal)             CV                S
                      KCal/Mol        Cal/Mol-Kelvin    Cal/Mol-Kelvin
 Total                  104.001             33.939             92.696
 Electronic               0.000              0.000              0.000
 Translational            0.889              2.981             40.409
 Rotational               0.889              2.981             28.814
 Vibrational            102.224             27.977             23.473
 Vibration     1          0.597              1.973              4.456
 Vibration     2          0.602              1.955              3.607
 Vibration     3          0.627              1.875              2.393
 Vibration     4          0.644              1.821              2.019
 Vibration     5          0.650              1.802              1.914
 Vibration     6          0.675              1.725              1.585
 Vibration     7          0.703              1.642              1.328
 Vibration     8          0.747              1.521              1.055
 Vibration     9          0.802              1.378              0.820
 Vibration    10          0.818              1.338              0.765
 Vibration    11          0.853              1.255              0.663
 Vibration    12          0.936              1.077              0.487

 Optimization completed.
    -- Stationary point found.
 Normal termination of Gaussian 09 at Mon Jan 27 16:06:08 2020.
