 Gaussian 09, Revision D.01,
 Gaussian 09:  ES64L-G09RevD.01 24-Apr-2013

 -----------------------------
 # b3lyp 6-31G(2df,p) opt Freq
 -----------------------------

 -----
 titel
 -----
 Symbolic Z-matrix:
 Charge =  0 Multiplicity = 1

 SCF Done:  E(RB3LYP) =  -423.152842580     A.U. after   13 cycles
 Optimization completed.
    -- Stationary point found.
 Normal termination of Gaussian 09 at Mon Jan 27 23:05:14 2020.

 ----------------------------------------------------------------------
 #N Geom=AllCheck Guess=TCheck SCRF=Check GenChk RB3LYP/6-31G(2df,p) Fr
 eq
 ----------------------------------------------------------------------

 Structure from the checkpoint file:  "/scratch/puck/g09_2aea497d-2bc3-41c2-bd5b-4c0eb81e0c94/Gau-48933.chk"
 -----
 titel
 -----
 Charge =  0 Multiplicity = 1

                         Standard orientation:
 ---------------------------------------------------------------------
 Center     Atomic      Atomic             Coordinates (Angstroms)
 Number     Number       Type             X           Y           Z
 ---------------------------------------------------------------------
      1          8           0        0.044186    2.039606   -0.145643
      2          6           0       -0.898116    1.009281   -0.122838
      3          6           0       -0.848762   -0.259086   -1.053999
      4          6           0       -1.798422   -0.886387    0.021534
      5          6           0       -0.926373   -0.048775    1.016021
      6          6           0        0.414747   -0.781964    0.850034
      7          8           0        1.620720    0.044901    0.781411
      8          6           0        1.797954   -0.267536   -0.633306
      9          6           0        0.447974   -1.003144   -0.686521
     10          1           0        0.813786    1.717461    0.346174
     11          1           0       -1.881964    1.475859   -0.229321
     12          1           0       -1.124947   -0.201262   -2.106496
     13          1           0       -2.828067   -0.530200   -0.037634
     14          1           0       -1.781613   -1.973875    0.127152
     15          1           0       -1.257226    0.196543    2.024928
     16          1           0        0.558746   -1.625930    1.530169
     17          1           0        1.908927    0.634635   -1.240575
     18          1           0        2.666718   -0.920236   -0.774675
     19          1           0        0.472378   -2.023383   -1.071415
 ---------------------------------------------------------------------

 SCF Done:  E(RB3LYP) =  -423.152842580     A.U. after    1 cycles

 The electronic state is 1-A.
 Alpha  occ. eigenvalues --  -19.14603 -19.12163 -10.23890 -10.23327 -10.23155
 Alpha  occ. eigenvalues --  -10.19595 -10.19553 -10.19405 -10.19400  -1.04733
 Alpha  occ. eigenvalues --   -1.00651  -0.88056  -0.74066  -0.70206  -0.65033
 Alpha  occ. eigenvalues --   -0.64675  -0.57642  -0.53380  -0.52151  -0.49287
 Alpha  occ. eigenvalues --   -0.48329  -0.45320  -0.43438  -0.40558  -0.39865
 Alpha  occ. eigenvalues --   -0.37635  -0.37042  -0.35117  -0.33959  -0.31502
 Alpha  occ. eigenvalues --   -0.31156  -0.29427  -0.25854  -0.24734
 Alpha virt. eigenvalues --    0.06998   0.09193   0.10335   0.11276   0.13759
 Alpha virt. eigenvalues --    0.14630   0.15344   0.15882   0.16060   0.16850
 Alpha virt. eigenvalues --    0.17595   0.17695   0.18799   0.21135   0.21699

 Mulliken charges:
               1
     1  O   -0.456407
     2  C    0.168919
     3  C   -0.100158
     4  C   -0.235240
     5  C   -0.119536
     6  C    0.131776
     7  O   -0.329263
     8  C   -0.128316
     9  C   -0.051360
    10  H    0.297092
    11  H    0.085481
    12  H    0.066109
    13  H    0.108447
    14  H    0.099964
    15  H    0.068626
    16  H    0.082641
    17  H    0.123895
    18  H    0.107463
    19  H    0.079865
 Sum of Mulliken charges =   0.00000

 Dipole moment (field-independent basis, Debye):
    X=             -0.7044    Y=             -2.4335    Z=             -0.4389  Tot=              2.5711
 Quadrupole moment (field-independent basis, Debye-Ang):
   XX=            -51.7438   YY=            -56.6367   ZZ=            -52.6809
   XY=             -0.5363   XZ=             -2.3922   YZ=              0.6663

  Exact polarizability:  80.509  -0.161  70.975  -2.713  -0.625  67.644
 Approx polarizability: 113.033   2.230 107.715  -1.278  -0.632 105.675

                      1                      2                      3
                      A                      A                      A
 Frequencies --    220.7042               266.2397               317.2906
 Red. masses --      4.2156                 4.6617                 2.9600
 Frc consts  --      0.1210                 0.1947                 0.1756
 IR Inten    --      9.6038                 1.8427                 4.1208

                      4                      5                      6
                      A                      A                      A
 Frequencies --    365.5477               443.2010               460.8257
 Red. masses --      4.1079                 3.5583                 2.4124
 Frc consts  --      0.3234                 0.4118                 0.3018
 IR Inten    --      4.3917                 4.3442                 0.3515

                      7                      8                      9
                      A                      A                      A
 Frequencies --    639.2951               650.5918               675.7750
 Red. masses --      4.6543                 3.6061                 1.1404
 Frc consts  --      1.1208                 0.8993                 0.3068
 IR Inten    --      6.6998                 2.3136                69.7921

                     10                     11                     12
                      A                      A                      A
 Frequencies --    768.5910               808.2302               813.8281
 Red. masses --      2.6552                 3.4450                 2.2152
 Frc consts  --      0.9242                 1.3259                 0.8644
 IR Inten    --      0.6928                 9.7045                 0.9870

                     13                     14                     15
                      A                      A                      A
 Frequencies --    842.8225               876.1573               879.2495
 Red. masses --      2.3588                 2.5685                 3.0642
 Frc consts  --      0.9872                 1.1617                 1.3957
 IR Inten    --      2.4762                13.2482                 4.0901

                     16                     17                     18
                      A                      A                      A
 Frequencies --    916.4614               938.5091               976.1278
 Red. masses --      1.9837                 2.0791                 5.0045
 Frc consts  --      0.9816                 1.0790                 2.8095
 IR Inten    --      3.4749                 2.4466                55.6037

                     19                     20                     21
                      A                      A                      A
 Frequencies --    990.2366              1005.4040              1010.4929
 Red. masses --      2.9868                 1.8919                 2.2307
 Frc consts  --      1.7256                 1.1267                 1.3420
 IR Inten    --     58.1807                 3.5433                 2.5390

                     22                     23                     24
                      A                      A                      A
 Frequencies --   1063.8587              1071.2345              1099.1498
 Red. masses --      1.3205                 2.2694                 1.1195
 Frc consts  --      0.8805                 1.5343                 0.7969
 IR Inten    --      1.2126                 3.7617                 1.1430

                     25                     26                     27
                      A                      A                      A
 Frequencies --   1112.2260              1160.1687              1168.1597
 Red. masses --      1.7044                 2.1690                 1.3898
 Frc consts  --      1.2423                 1.7201                 1.1174
 IR Inten    --      3.3098               100.5028                 1.5445

                     28                     29                     30
                      A                      A                      A
 Frequencies --   1184.7942              1197.8184              1217.8429
 Red. masses --      1.9720                 1.6346                 1.4539
 Frc consts  --      1.6309                 1.3818                 1.2705
 IR Inten    --      7.8673                18.3469                 0.7033

                     31                     32                     33
                      A                      A                      A
 Frequencies --   1231.1867              1251.2876              1294.3398
 Red. masses --      1.8287                 1.4439                 1.3815
 Frc consts  --      1.6332                 1.3320                 1.3637
 IR Inten    --     36.6270                 3.9144                 0.0122

                     34                     35                     36
                      A                      A                      A
 Frequencies --   1304.0184              1326.6546              1350.8512
 Red. masses --      1.5378                 1.3538                 1.5821
 Frc consts  --      1.5407                 1.4039                 1.7009
 IR Inten    --      2.8240                19.1472                12.7709

                     37                     38                     39
                      A                      A                      A
 Frequencies --   1362.2951              1381.4599              1475.0104
 Red. masses --      1.5859                 1.3729                 1.1388
 Frc consts  --      1.7341                 1.5437                 1.4598
 IR Inten    --      1.5266                 9.3874                41.1171

                     40                     41                     42
                      A                      A                      A
 Frequencies --   1509.8630              1518.5751              3036.0143
 Red. masses --      1.1264                 1.1021                 1.0602
 Frc consts  --      1.5129                 1.4975                 5.7574
 IR Inten    --     20.1903                 5.2455                66.3888

                     43                     44                     45
                      A                      A                      A
 Frequencies --   3063.2479              3068.6202              3071.1767
 Red. masses --      1.0804                 1.0786                 1.0727
 Frc consts  --      5.9733                 5.9841                 5.9613
 IR Inten    --     30.6226                32.4063                39.3170

                     46                     47                     48
                      A                      A                      A
 Frequencies --   3095.1458              3103.9394              3119.3260
 Red. masses --      1.0969                 1.0972                 1.0883
 Frc consts  --      6.1913                 6.2279                 6.2390
 IR Inten    --      5.2289                42.4119                73.9955

                     49                     50                     51
                      A                      A                      A
 Frequencies --   3123.1809              3133.1715              3701.4960
 Red. masses --      1.0944                 1.1062                 1.0654
 Frc consts  --      6.2895                 6.3979                 8.6005
 IR Inten    --      6.7670                30.8610               120.1221

 - Thermochemistry -
 -------------------
 Temperature   298.150 Kelvin.  Pressure   1.00000 Atm.
 Atom     1 has atomic number  8 and mass  15.99491

 Molecular mass:   126.06808 amu.
 Principal axes and moments of inertia in atomic units:
                           1         2         3
     Eigenvalues --   700.77273 900.072841104.58173
           X            0.99944   0.01069  -0.03186
           Y           -0.01044   0.99991   0.00813
           Z            0.03195  -0.00779   0.99946
 This molecule is an asymmetric top.
 Rotational symmetry number  1.
 Warning -- assumption of classical behavior for rotation
           may cause significant error
 Rotational temperatures (Kelvin)      0.12360     0.09623     0.07841
 Rotational constants (GHZ):           2.57536     2.00511     1.63387
 Zero-point vibrational energy     428632.1 (Joules/Mol)
                                  102.44553 (Kcal/Mol)
 Warning -- explicit consideration of   6 degrees of freedom as
           vibrations may cause significant error
 Vibrational temperatures:    317.54   383.06   456.51   525.94   637.67
          (Kelvin)            663.02   919.80   936.06   972.29  1105.83
                             1162.86  1170.92  1212.63  1260.59  1265.04
                             1318.58  1350.30  1404.43  1424.73  1446.55
                             1453.87  1530.65  1541.27  1581.43  1600.24
                             1669.22  1680.72  1704.65  1723.39  1752.20
                             1771.40  1800.32  1862.26  1876.19  1908.76
                             1943.57  1960.04  1987.61  2122.21  2172.35
                             2184.89  4368.14  4407.32  4415.05  4418.73
                             4453.22  4465.87  4488.01  4493.56  4507.93
                             5325.62

 Zero-point correction=                           0.163257 (Hartree/Particle)
 Thermal correction to Energy=                    0.169714
 Thermal correction to Enthalpy=                  0.170658
 Thermal correction to Gibbs Free Energy=         0.132843
 Sum of electronic and zero-point Energies=           -422.989585
 Sum of electronic and thermal Energies=              -422.983129
 Sum of electronic and thermal Enthalpies=            -422.982185
 Sum of electronic and thermal Free Energies=         -423.020000

                     E (Thermal)             CV                S
                      KCal/Mol        Cal/Mol-Kelvin    Cal/Mol-Kelvin
 Total                  106.497             27.844             79.588
 Electronic               0.000              0.000              0.000
 Translational            0.889              2.981             40.409
 Rotational               0.889              2.981             28.035
 Vibrational            104.719             21.882             11.145
 Vibration     1          0.647              1.810              1.953
 Vibration     2          0.672              1.735              1.621
 Vibration     3          0.704              1.641              1.324
 Vibration     4          0.739              1.543              1.098
 Vibration     5          0.803              1.376              0.817
 Vibration     6          0.819              1.337              0.764

 Normal termination of Gaussian 09 at Tue Jan 28 00:00:13 2020.
