 Gaussian 09, Revision D.01,
 Gaussian 09:  ES64L-G09RevD.01 24-Apr-2013

 -----------------------------
 # b3lyp 6-31G(2df,p) opt Freq
 -----------------------------

 -----
 titel
 -----
 Symbolic Z-matrix:
 Charge =  0 Multiplicity = 1

 SCF Done:  E(RB3LYP) =  -423.171841956     A.U. after   14 cycles
 Optimization completed.
    -- Stationary point found.
 Normal termination of Gaussian 09 at Tue Jan 28 08:15:37 2020.

 ----------------------------------------------------------------------
 #N Geom=AllCheck Guess=TCheck SCRF=Check GenChk RB3LYP/6-31G(2df,p) Fr
 eq
 ----------------------------------------------------------------------

 Structure from the checkpoint file:  "/scratch/puck/g09_ff5d06f4-a665-4050-9275-c0ff7c925ad7/Gau-59927.chk"
 -----
 titel
 -----
 Charge =  0 Multiplicity = 1

                         Standard orientation:
 ---------------------------------------------------------------------
 Center     Atomic      Atomic             Coordinates (Angstroms)
 Number     Number       Type             X           Y           Z
 ---------------------------------------------------------------------
      1          6           0        4.479130    0.684180    0.004246
      2          6           0        3.149513    0.090210    0.001866
      3          6           0        2.055539   -0.413043    0.000356
      4          6           0        0.718321   -0.995282   -0.001307
      5          6           0       -0.386076    0.071862    0.040923
      6          6           0       -1.779519   -0.526369    0.004603
      7          8           0       -1.984281   -1.714238   -0.100541
      8          6           0       -2.963859    0.439851    0.143540
      9          8           0       -2.653399    1.809193   -0.019383
     10          1           0        5.077507    0.327298   -0.841497
     11          1           0        4.428656    1.776613   -0.065453
     12          1           0        5.025012    0.437762    0.921833
     13          1           0        0.574696   -1.622657   -0.888461
     14          1           0        0.595639   -1.671788    0.852651
     15          1           0       -0.298883    0.705525    0.931820
     16          1           0       -0.282313    0.770273   -0.799206
     17          1           0       -3.762654    0.093993   -0.526220
     18          1           0       -3.341479    0.326386    1.167616
     19          1           0       -2.553036    1.988497   -0.959046
 ---------------------------------------------------------------------

 SCF Done:  E(RB3LYP) =  -423.171841956     A.U. after    1 cycles

 The electronic state is 1-A.
 Alpha  occ. eigenvalues --  -19.15601 -19.13507 -10.27217 -10.24329 -10.20331
 Alpha  occ. eigenvalues --  -10.20040 -10.19759 -10.16802 -10.16427  -1.04907
 Alpha  occ. eigenvalues --   -1.03378  -0.80413  -0.76461  -0.73116  -0.69403
 Alpha  occ. eigenvalues --   -0.64560  -0.54892  -0.52005  -0.49167  -0.47749
 Alpha  occ. eigenvalues --   -0.45565  -0.44995  -0.43872  -0.42237  -0.42191
 Alpha  occ. eigenvalues --   -0.40475  -0.38772  -0.37956  -0.36214  -0.34018
 Alpha  occ. eigenvalues --   -0.31022  -0.25401  -0.24408  -0.23589
 Alpha virt. eigenvalues --   -0.01852   0.05257   0.06643   0.06799   0.10824
 Alpha virt. eigenvalues --    0.11316   0.12622   0.14644   0.15104   0.16715
 Alpha virt. eigenvalues --    0.17794   0.18420   0.19705   0.21743   0.22433

 Mulliken charges:
               1
     1  C   -0.497657
     2  C    0.123734
     3  C    0.008184
     4  C   -0.362642
     5  C   -0.280421
     6  C    0.323657
     7  O   -0.295712
     8  C   -0.165020
     9  O   -0.401545
    10  H    0.146165
    11  H    0.144931
    12  H    0.146572
    13  H    0.139400
    14  H    0.138629
    15  H    0.143569
    16  H    0.124133
    17  H    0.125723
    18  H    0.146197
    19  H    0.292105
 Sum of Mulliken charges =   0.00000

 Dipole moment (field-independent basis, Debye):
    X=              0.3647    Y=              1.8726    Z=             -0.9012  Tot=              2.1100
 Quadrupole moment (field-independent basis, Debye-Ang):
   XX=            -47.1625   YY=            -59.0600   ZZ=            -49.8652
   XY=             -0.9377   XZ=              2.4122   YZ=             -3.3666

  Exact polarizability: 113.599  11.322  73.179  -0.314  -0.399  57.362
 Approx polarizability: 141.450  24.279 115.903  -0.268   0.698  87.900

                      1                      2                      3
                      A                      A                      A
 Frequencies --      8.5848                38.5724                60.7264
 Red. masses --      1.0234                 2.7906                 3.2741
 Frc consts  --      0.0000                 0.0024                 0.0071
 IR Inten    --      0.0169                 1.0542                 5.8168

                      4                      5                      6
                      A                      A                      A
 Frequencies --     66.9080                81.7179               176.9406
 Red. masses --      3.9473                 1.9532                 5.6790
 Frc consts  --      0.0104                 0.0077                 0.1048
 IR Inten    --      0.8505                 0.7011                 0.7982

                      7                      8                      9
                      A                      A                      A
 Frequencies --    210.5037               243.0179               302.3772
 Red. masses --      2.7212                 6.7755                 4.0044
 Frc consts  --      0.0710                 0.2358                 0.2157
 IR Inten    --      9.5660                10.0493                11.4582

                     10                     11                     12
                      A                      A                      A
 Frequencies --    318.6176               387.3081               449.6014
 Red. masses --      1.0904                 3.9664                 2.5928
 Frc consts  --      0.0652                 0.3506                 0.3088
 IR Inten    --    137.7634                 0.2520                 8.4610

                     13                     14                     15
                      A                      A                      A
 Frequencies --    482.7640               520.0174               574.0908
 Red. masses --      3.8502                 6.1346                 4.2792
 Frc consts  --      0.5287                 0.9774                 0.8310
 IR Inten    --      0.3653                14.5577                13.8840

                     16                     17                     18
                      A                      A                      A
 Frequencies --    723.1733               751.2086               851.4947
 Red. masses --      1.4003                 3.5266                 3.6909
 Frc consts  --      0.4315                 1.1725                 1.5767
 IR Inten    --      4.0209                 0.5948                 3.0547

                     19                     20                     21
                      A                      A                      A
 Frequencies --    878.7258              1033.8077              1038.1663
 Red. masses --      1.4546                 2.7744                 2.4990
 Frc consts  --      0.6618                 1.7470                 1.5869
 IR Inten    --      6.4662                 5.8377                13.8300

                     22                     23                     24
                      A                      A                      A
 Frequencies --   1054.7402              1056.4877              1094.0264
 Red. masses --      1.4261                 1.4541                 5.2120
 Frc consts  --      0.9348                 0.9562                 3.6754
 IR Inten    --      1.2381                 3.5724                72.1077

                     25                     26                     27
                      A                      A                      A
 Frequencies --   1136.7112              1153.5728              1170.5499
 Red. masses --      2.0658                 1.2341                 3.0713
 Frc consts  --      1.5727                 0.9676                 2.4794
 IR Inten    --     49.2791                 9.6992                 2.3902

                     28                     29                     30
                      A                      A                      A
 Frequencies --   1213.5553              1294.7848              1304.0373
 Red. masses --      1.2386                 1.1584                 1.6859
 Frc consts  --      1.0747                 1.1442                 1.6891
 IR Inten    --     11.4480                 2.6489                 9.2620

                     31                     32                     33
                      A                      A                      A
 Frequencies --   1360.4995              1383.4756              1395.0187
 Red. masses --      1.3420                 1.7351                 1.2042
 Frc consts  --      1.4636                 1.9566                 1.3807
 IR Inten    --      5.9247                40.5866                27.3557

                     34                     35                     36
                      A                      A                      A
 Frequencies --   1415.4925              1434.7165              1460.3889
 Red. masses --      1.2465                 1.0752                 1.0734
 Frc consts  --      1.4715                 1.3040                 1.3488
 IR Inten    --      7.3278                16.9406                 5.8654

                     37                     38                     39
                      A                      A                      A
 Frequencies --   1470.7080              1479.1474              1479.7680
 Red. masses --      1.0830                 1.0398                 1.0398
 Frc consts  --      1.3802                 1.3404                 1.3416
 IR Inten    --      4.5022                 4.8740                 5.1335

                     40                     41                     42
                      A                      A                      A
 Frequencies --   1806.3641              2374.8962              3018.2156
 Red. masses --     11.7264                11.8166                 1.0595
 Frc consts  --     22.5437                39.2673                 5.6868
 IR Inten    --    127.1550                 0.0648                26.0477

                     43                     44                     45
                      A                      A                      A
 Frequencies --   3025.1237              3034.5033              3042.9101
 Red. masses --      1.0348                 1.0611                 1.0618
 Frc consts  --      5.5796                 5.7568                 5.7926
 IR Inten    --     36.7653                 8.1829                18.8146

                     46                     47                     48
                      A                      A                      A
 Frequencies --   3058.1561              3065.7943              3077.9601
 Red. masses --      1.0963                 1.1026                 1.1000
 Frc consts  --      6.0410                 6.1058                 6.1397
 IR Inten    --      1.2752                10.0728                16.8398

                     49                     50                     51
                      A                      A                      A
 Frequencies --   3084.5591              3085.1124              3829.0293
 Red. masses --      1.1000                 1.1002                 1.0666
 Frc consts  --      6.1666                 6.1696                 9.2135
 IR Inten    --     11.8535                11.0342                26.8373

 - Thermochemistry -
 -------------------
 Temperature   298.150 Kelvin.  Pressure   1.00000 Atm.
 Atom     1 has atomic number  6 and mass  12.00000

 Molecular mass:   126.06808 amu.
 Principal axes and moments of inertia in atomic units:
                           1         2         3
     Eigenvalues --   522.858773031.912173500.35274
           X            0.99999   0.00421   0.00059
           Y           -0.00421   0.99993  -0.01141
           Z           -0.00064   0.01140   0.99993
 This molecule is an asymmetric top.
 Rotational symmetry number  1.
 Warning -- assumption of classical behavior for rotation
           may cause significant error
 Rotational temperatures (Kelvin)      0.16565     0.02857     0.02474
 Rotational constants (GHZ):           3.45168     0.59525     0.51559
 Zero-point vibrational energy     407081.0 (Joules/Mol)
                                   97.29469 (Kcal/Mol)
 Warning -- explicit consideration of  15 degrees of freedom as
           vibrations may cause significant error
 Vibrational temperatures:     12.35    55.50    87.37    96.27   117.57
          (Kelvin)            254.58   302.87   349.65   435.05   458.42
                              557.25   646.88   694.59   748.19   825.99
                             1040.48  1080.82  1225.11  1264.29  1487.42
                             1493.69  1517.53  1520.05  1574.06  1635.47
                             1659.73  1684.16  1746.03  1862.90  1876.22
                             1957.45  1990.51  2007.12  2036.58  2064.23
                             2101.17  2116.02  2128.16  2129.05  2598.95
                             3416.94  4342.53  4352.47  4365.97  4378.06
                             4400.00  4410.99  4428.49  4437.99  4438.78
                             5509.11

 Zero-point correction=                           0.155049 (Hartree/Particle)
 Thermal correction to Energy=                    0.166339
 Thermal correction to Enthalpy=                  0.167283
 Thermal correction to Gibbs Free Energy=         0.114633
 Sum of electronic and zero-point Energies=           -423.016793
 Sum of electronic and thermal Energies=              -423.005503
 Sum of electronic and thermal Enthalpies=            -423.004559
 Sum of electronic and thermal Free Energies=         -423.057209

                     E (Thermal)             CV                S
                      KCal/Mol        Cal/Mol-Kelvin    Cal/Mol-Kelvin
 Total                  104.379             37.375            110.812
 Electronic               0.000              0.000              0.000
 Translational            0.889              2.981             40.409
 Rotational               0.889              2.981             30.096
 Vibrational            102.602             31.413             40.307
 Vibration     1          0.593              1.987              8.314
 Vibration     2          0.594              1.981              5.331
 Vibration     3          0.597              1.973              4.433
 Vibration     4          0.598              1.970              4.242
 Vibration     5          0.600              1.962              3.849
 Vibration     6          0.628              1.871              2.360
 Vibration     7          0.643              1.825              2.039
 Vibration     8          0.659              1.774              1.781
 Vibration     9          0.694              1.669              1.404
 Vibration    10          0.705              1.638              1.317
 Vibration    11          0.756              1.497              1.010
 Vibration    12          0.808              1.362              0.797
 Vibration    13          0.839              1.288              0.703
 Vibration    14          0.875              1.206              0.610
 Vibration    15          0.930              1.087              0.496

 Optimization completed on the basis of negligible forces.
    -- Stationary point found.
 Normal termination of Gaussian 09 at Tue Jan 28 09:36:09 2020.
