 Gaussian 09, Revision D.01,
 Gaussian 09:  ES64L-G09RevD.01 24-Apr-2013

 -----------------------------
 # b3lyp 6-31G(2df,p) opt Freq
 -----------------------------

 -----
 titel
 -----
 Symbolic Z-matrix:
 Charge =  0 Multiplicity = 1

 SCF Done:  E(RB3LYP) =  -423.186228545     A.U. after   13 cycles
 Optimization completed.
    -- Stationary point found.
 Normal termination of Gaussian 09 at Tue Jan 28 12:11:47 2020.

 ----------------------------------------------------------------------
 #N Geom=AllCheck Guess=TCheck SCRF=Check GenChk RB3LYP/6-31G(2df,p) Fr
 eq
 ----------------------------------------------------------------------

 Structure from the checkpoint file:  "/scratch/puck/g09_74c60420-98b1-48d7-80a0-2926979a8ffb/Gau-115426.chk"
 -----
 titel
 -----
 Charge =  0 Multiplicity = 1

                         Standard orientation:
 ---------------------------------------------------------------------
 Center     Atomic      Atomic             Coordinates (Angstroms)
 Number     Number       Type             X           Y           Z
 ---------------------------------------------------------------------
      1          8           0        2.730795   -0.526956    0.026978
      2          6           0        1.922573    0.631809   -0.096982
      3          6           0        0.464970    0.313552   -0.003938
      4          8           0        0.007262   -0.550421   -1.040841
      5          6           0       -1.374692   -0.668419   -0.657036
      6          6           0       -1.816757    0.808134   -0.545056
      7          6           0       -0.676112    1.228460    0.376043
      8          6           0       -0.334657    0.006777    1.240534
      9          6           0       -1.281504   -1.110407    0.820279
     10          1           0        2.377114   -1.170287   -0.597485
     11          1           0        2.205267    1.305955    0.717520
     12          1           0        2.120355    1.154021   -1.046780
     13          1           0       -1.901096   -1.313019   -1.357619
     14          1           0       -1.794706    1.317434   -1.512346
     15          1           0       -2.808170    0.918931   -0.096822
     16          1           0       -0.525362    2.244383    0.715771
     17          1           0        0.086741    0.094507    2.232607
     18          1           0       -0.837929   -2.104391    0.924286
     19          1           0       -2.249590   -1.087948    1.328713
 ---------------------------------------------------------------------

 SCF Done:  E(RB3LYP) =  -423.186228545     A.U. after    1 cycles

 The electronic state is 1-A.
 Alpha  occ. eigenvalues --  -19.14413 -19.12714 -10.23624 -10.23106 -10.22788
 Alpha  occ. eigenvalues --  -10.19156 -10.18903 -10.18715 -10.18603  -1.05776
 Alpha  occ. eigenvalues --   -1.00824  -0.85880  -0.77300  -0.71959  -0.68378
 Alpha  occ. eigenvalues --   -0.59766  -0.55550  -0.55326  -0.53264  -0.48011
 Alpha  occ. eigenvalues --   -0.46694  -0.45395  -0.43470  -0.42503  -0.40332
 Alpha  occ. eigenvalues --   -0.37562  -0.37344  -0.35071  -0.34083  -0.33584
 Alpha  occ. eigenvalues --   -0.29926  -0.28384  -0.25940  -0.23791
 Alpha virt. eigenvalues --    0.08481   0.10258   0.11353   0.12783   0.13544
 Alpha virt. eigenvalues --    0.13845   0.15172   0.15810   0.15861   0.16540
 Alpha virt. eigenvalues --    0.17369   0.18704   0.19247   0.20889   0.22637

 Mulliken charges:
               1
     1  O   -0.417040
     2  C   -0.182159
     3  C    0.448997
     4  O   -0.311148
     5  C    0.049548
     6  C   -0.228081
     7  C   -0.165531
     8  C   -0.145042
     9  C   -0.227183
    10  H    0.291211
    11  H    0.109632
    12  H    0.094993
    13  H    0.081030
    14  H    0.106641
    15  H    0.102275
    16  H    0.089668
    17  H    0.093759
    18  H    0.107246
    19  H    0.101185
 Sum of Mulliken charges =   0.00000

 Dipole moment (field-independent basis, Debye):
    X=             -2.1224    Y=              0.5546    Z=              0.1909  Tot=              2.2019
 Quadrupole moment (field-independent basis, Debye-Ang):
   XX=            -56.6378   YY=            -50.2564   ZZ=            -52.9568
   XY=              1.9666   XZ=             -0.8072   YZ=              1.0281

  Exact polarizability:  80.541   1.474  72.202   1.219  -0.950  67.455
 Approx polarizability: 110.066  -1.056 108.055   0.119   0.667 105.127

                      1                      2                      3
                      A                      A                      A
 Frequencies --     92.3564               135.1094               276.1030
 Red. masses --      3.7029                 4.2485                 1.7760
 Frc consts  --      0.0186                 0.0457                 0.0798
 IR Inten    --      3.6069                 1.1029                14.7802

                      4                      5                      6
                      A                      A                      A
 Frequencies --    358.8690               387.8846               422.7156
 Red. masses --      2.0591                 1.6462                 1.7775
 Frc consts  --      0.1562                 0.1459                 0.1871
 IR Inten    --     27.1810                82.8739                 6.9258

                      7                      8                      9
                      A                      A                      A
 Frequencies --    460.1158               574.9086               629.0160
 Red. masses --      2.3906                 4.5930                 4.0941
 Frc consts  --      0.2982                 0.8944                 0.9544
 IR Inten    --      4.8627                 7.2155                 3.3706

                     10                     11                     12
                      A                      A                      A
 Frequencies --    698.0599               747.1995               801.4841
 Red. masses --      4.4813                 4.0541                 3.1756
 Frc consts  --      1.2866                 1.3336                 1.2019
 IR Inten    --      5.1929                 8.0803                 3.4460

                     13                     14                     15
                      A                      A                      A
 Frequencies --    869.1786               873.2736               893.4771
 Red. masses --      1.6527                 2.3184                 1.9981
 Frc consts  --      0.7356                 1.0417                 0.9398
 IR Inten    --     11.8330                17.9093                 2.7421

                     16                     17                     18
                      A                      A                      A
 Frequencies --    914.9143               940.1742               946.6569
 Red. masses --      2.9519                 1.8326                 2.5355
 Frc consts  --      1.4558                 0.9544                 1.3388
 IR Inten    --     21.2185                 9.4767                16.8783

                     19                     20                     21
                      A                      A                      A
 Frequencies --    963.7043               992.7130              1003.1044
 Red. masses --      2.2893                 1.4514                 2.8472
 Frc consts  --      1.2527                 0.8427                 1.6880
 IR Inten    --     17.9816                 5.6736                10.5894

                     22                     23                     24
                      A                      A                      A
 Frequencies --   1021.0204              1039.8882              1062.5367
 Red. masses --      1.6125                 1.6795                 4.0735
 Frc consts  --      0.9904                 1.0701                 2.7096
 IR Inten    --     25.3192                 4.9426                93.0598

                     25                     26                     27
                      A                      A                      A
 Frequencies --   1087.2870              1139.3561              1144.6236
 Red. masses --      2.2247                 1.4735                 1.3094
 Frc consts  --      1.5496                 1.1270                 1.0108
 IR Inten    --     16.9987                14.5532                 0.4744

                     28                     29                     30
                      A                      A                      A
 Frequencies --   1164.9692              1193.4299              1213.7676
 Red. masses --      1.6841                 1.6343                 1.9675
 Frc consts  --      1.3466                 1.3714                 1.7078
 IR Inten    --     11.3727                 4.7398                 7.6984

                     31                     32                     33
                      A                      A                      A
 Frequencies --   1249.7566              1270.4488              1312.7097
 Red. masses --      1.3115                 1.4190                 1.6665
 Frc consts  --      1.2069                 1.3494                 1.6920
 IR Inten    --     12.1366                 1.7237                 2.4363

                     34                     35                     36
                      A                      A                      A
 Frequencies --   1319.0944              1337.9925              1376.9612
 Red. masses --      1.7511                 1.6285                 1.2437
 Frc consts  --      1.7952                 1.7177                 1.3894
 IR Inten    --      7.5546                 6.5566                 3.2332

                     37                     38                     39
                      A                      A                      A
 Frequencies --   1410.3005              1464.2283              1476.3821
 Red. masses --      1.6388                 2.4478                 1.1133
 Frc consts  --      1.9204                 3.0920                 1.4297
 IR Inten    --     54.2009                24.7847                 1.6542

                     40                     41                     42
                      A                      A                      A
 Frequencies --   1495.3013              1495.9632              2979.0536
 Red. masses --      1.0963                 1.1469                 1.0706
 Frc consts  --      1.4442                 1.5122                 5.5979
 IR Inten    --      0.9049                 0.9180                60.1131

                     43                     44                     45
                      A                      A                      A
 Frequencies --   3056.7177              3061.9545              3081.7581
 Red. masses --      1.0575                 1.0581                 1.0917
 Frc consts  --      5.8219                 5.8450                 6.1088
 IR Inten    --     33.0013                24.9609                20.1173

                     46                     47                     48
                      A                      A                      A
 Frequencies --   3108.0302              3112.3072              3150.7396
 Red. masses --      1.1070                 1.1079                 1.0911
 Frc consts  --      6.3002                 6.3228                 6.3819
 IR Inten    --     12.2270                28.8505                31.6290

                     49                     50                     51
                      A                      A                      A
 Frequencies --   3204.1889              3213.4263              3805.2766
 Red. masses --      1.0910                 1.0946                 1.0658
 Frc consts  --      6.5996                 6.6598                 9.0930
 IR Inten    --      5.7750                 8.3172                24.1747

 - Thermochemistry -
 -------------------
 Temperature   298.150 Kelvin.  Pressure   1.00000 Atm.
 Atom     1 has atomic number  8 and mass  15.99491

 Molecular mass:   126.06808 amu.
 Principal axes and moments of inertia in atomic units:
                           1         2         3
     Eigenvalues --   534.162961284.364761328.63413
           X            0.99989   0.01426  -0.00368
           Y           -0.01459   0.99320  -0.11548
           Z            0.00200   0.11552   0.99330
 This molecule is an asymmetric top.
 Rotational symmetry number  1.
 Warning -- assumption of classical behavior for rotation
           may cause significant error
 Rotational temperatures (Kelvin)      0.16215     0.06744     0.06519
 Rotational constants (GHZ):           3.37863     1.40516     1.35834
 Zero-point vibrational energy     424856.7 (Joules/Mol)
                                  101.54318 (Kcal/Mol)
 Warning -- explicit consideration of   8 degrees of freedom as
           vibrations may cause significant error
 Vibrational temperatures:    132.88   194.39   397.25   516.33   558.08
          (Kelvin)            608.19   662.00   827.16   905.01  1004.35
                             1075.05  1153.16  1250.55  1256.44  1285.51
                             1316.36  1352.70  1362.03  1386.55  1428.29
                             1443.24  1469.02  1496.17  1528.75  1564.36
                             1639.28  1646.86  1676.13  1717.08  1746.34
                             1798.12  1827.89  1888.69  1897.88  1925.07
                             1981.14  2029.11  2106.70  2124.18  2151.40
                             2152.35  4286.19  4397.93  4405.46  4433.96
                             4471.76  4477.91  4533.21  4610.11  4623.40
                             5474.94

 Zero-point correction=                           0.161819 (Hartree/Particle)
 Thermal correction to Energy=                    0.169087
 Thermal correction to Enthalpy=                  0.170031
 Thermal correction to Gibbs Free Energy=         0.130080
 Sum of electronic and zero-point Energies=           -423.024409
 Sum of electronic and thermal Energies=              -423.017142
 Sum of electronic and thermal Enthalpies=            -423.016197
 Sum of electronic and thermal Free Energies=         -423.056149

                     E (Thermal)             CV                S
                      KCal/Mol        Cal/Mol-Kelvin    Cal/Mol-Kelvin
 Total                  106.104             29.485             84.084
 Electronic               0.000              0.000              0.000
 Translational            0.889              2.981             40.409
 Rotational               0.889              2.981             28.302
 Vibrational            104.326             23.523             15.374
 Vibration     1          0.602              1.955              3.610
 Vibration     2          0.613              1.918              2.872
 Vibration     3          0.678              1.718              1.558
 Vibration     4          0.734              1.557              1.127
 Vibration     5          0.756              1.496              1.008
 Vibration     6          0.785              1.421              0.883
 Vibration     7          0.818              1.339              0.766
 Vibration     8          0.931              1.086              0.495

 Optimization completed.
    -- Stationary point found.
 Normal termination of Gaussian 09 at Tue Jan 28 12:56:02 2020.
