 Gaussian 09, Revision D.01,
 Gaussian 09:  ES64L-G09RevD.01 24-Apr-2013

 -----------------------------
 # b3lyp 6-31G(2df,p) opt Freq
 -----------------------------

 -----
 titel
 -----
 Symbolic Z-matrix:
 Charge =  0 Multiplicity = 1

 SCF Done:  E(RB3LYP) =  -423.089154253     A.U. after   14 cycles
 Optimization completed.
    -- Stationary point found.
 Normal termination of Gaussian 09 at Tue Jan 28 13:28:21 2020.

 ----------------------------------------------------------------------
 #N Geom=AllCheck Guess=TCheck SCRF=Check GenChk RB3LYP/6-31G(2df,p) Fr
 eq
 ----------------------------------------------------------------------

 Structure from the checkpoint file:  "/scratch/puck/g09_1ab0f2ef-27a3-472b-9847-a6ad77b73d9a/Gau-31058.chk"
 -----
 titel
 -----
 Charge =  0 Multiplicity = 1

                         Standard orientation:
 ---------------------------------------------------------------------
 Center     Atomic      Atomic             Coordinates (Angstroms)
 Number     Number       Type             X           Y           Z
 ---------------------------------------------------------------------
      1          6           0       -2.759870   -1.048401    0.050165
      2          6           0       -2.183020    0.301820   -0.396471
      3          6           0       -1.024932    0.715164    0.476712
      4          8           0       -0.112244    1.731243   -0.050286
      5          6           0        0.351488    0.424708    0.132327
      6          6           0        1.608683   -0.098105    0.849228
      7          6           0        2.417916    0.183105   -0.442804
      8          6           0        1.090333   -0.510042   -0.844012
      9          8           0        1.263250   -1.435447    0.302961
     10          1           0       -3.580998   -1.358994   -0.601923
     11          1           0       -1.989160   -1.825348    0.030183
     12          1           0       -3.149291   -0.994987    1.072587
     13          1           0       -1.838600    0.247739   -1.434766
     14          1           0       -2.958214    1.076927   -0.360121
     15          1           0       -1.261547    0.866034    1.531490
     16          1           0        1.911271   -0.038918    1.893784
     17          1           0        2.563174    1.224260   -0.739842
     18          1           0        3.307202   -0.436310   -0.565136
     19          1           0        0.784522   -0.936261   -1.798529
 ---------------------------------------------------------------------

 SCF Done:  E(RB3LYP) =  -423.089154253     A.U. after    1 cycles

 The electronic state is 1-A.
 Alpha  occ. eigenvalues --  -19.15348 -19.14140 -10.25146 -10.25112 -10.24844
 Alpha  occ. eigenvalues --  -10.23805 -10.19760 -10.19022 -10.18017  -1.08181
 Alpha  occ. eigenvalues --   -1.05360  -0.78706  -0.78092  -0.67564  -0.66168
 Alpha  occ. eigenvalues --   -0.65204  -0.59582  -0.53284  -0.52893  -0.48288
 Alpha  occ. eigenvalues --   -0.46706  -0.43947  -0.43275  -0.41639  -0.40492
 Alpha  occ. eigenvalues --   -0.37894  -0.36968  -0.35154  -0.33746  -0.33541
 Alpha  occ. eigenvalues --   -0.33198  -0.29419  -0.26555  -0.24832
 Alpha virt. eigenvalues --    0.07478   0.08279   0.10492   0.11334   0.12218
 Alpha virt. eigenvalues --    0.13061   0.13950   0.14911   0.15367   0.16154
 Alpha virt. eigenvalues --    0.16458   0.17052   0.18360   0.18807   0.19686

 Mulliken charges:
               1
     1  C   -0.383159
     2  C   -0.214670
     3  C   -0.082695
     4  O   -0.313659
     5  C    0.527878
     6  C   -0.056412
     7  C   -0.229706
     8  C   -0.053169
     9  O   -0.312140
    10  H    0.118255
    11  H    0.136705
    12  H    0.119362
    13  H    0.104092
    14  H    0.108096
    15  H    0.098669
    16  H    0.102595
    17  H    0.117882
    18  H    0.110014
    19  H    0.102062
 Sum of Mulliken charges =   0.00000

 Dipole moment (field-independent basis, Debye):
    X=             -0.3922    Y=             -0.0013    Z=             -0.0854  Tot=              0.4014
 Quadrupole moment (field-independent basis, Debye-Ang):
   XX=            -48.5602   YY=            -60.7295   ZZ=            -49.7129
   XY=              1.8471   XZ=             -0.3956   YZ=              2.2689

  Exact polarizability:  91.926  -0.068  67.304  -1.114   1.290  68.702
 Approx polarizability: 114.942  -0.916 110.454  -1.328  -0.438 106.676

                      1                      2                      3
                      A                      A                      A
 Frequencies --     72.3011               122.9413               162.0665
 Red. masses --      3.0951                 3.1624                 1.9375
 Frc consts  --      0.0095                 0.0282                 0.0300
 IR Inten    --      0.4821                 1.2827                 0.6843

                      4                      5                      6
                      A                      A                      A
 Frequencies --    207.0346               245.7651               344.2343
 Red. masses --      3.0518                 1.3167                 3.4680
 Frc consts  --      0.0771                 0.0469                 0.2421
 IR Inten    --      4.9567                 0.4976                 3.7409

                      7                      8                      9
                      A                      A                      A
 Frequencies --    412.1201               460.2431               513.7926
 Red. masses --      3.0406                 5.3773                 3.1377
 Frc consts  --      0.3043                 0.6711                 0.4880
 IR Inten    --      0.5072                10.3687                 1.3714

                     10                     11                     12
                      A                      A                      A
 Frequencies --    585.5547               664.0199               760.6344
 Red. masses --      3.1821                 3.5163                 5.0309
 Frc consts  --      0.6428                 0.9135                 1.7149
 IR Inten    --      6.2589                 9.9407                18.0177

                     13                     14                     15
                      A                      A                      A
 Frequencies --    795.4314               820.7509               841.0112
 Red. masses --      1.6329                 2.6636                 2.3801
 Frc consts  --      0.6087                 1.0572                 0.9919
 IR Inten    --      2.8165                 1.0823                26.9715

                     16                     17                     18
                      A                      A                      A
 Frequencies --    878.3522               910.9759               940.0869
 Red. masses --      2.3982                 2.0792                 2.3192
 Frc consts  --      1.0901                 1.0166                 1.2076
 IR Inten    --     13.8186                 4.5998                 3.7508

                     19                     20                     21
                      A                      A                      A
 Frequencies --    952.3262               988.9419              1020.5454
 Red. masses --      3.1841                 2.3165                 1.0560
 Frc consts  --      1.7014                 1.3348                 0.6480
 IR Inten    --     25.4298                18.3827                 0.3861

                     22                     23                     24
                      A                      A                      A
 Frequencies --   1047.6775              1070.3067              1098.2345
 Red. masses --      2.7548                 2.7358                 1.6458
 Frc consts  --      1.7815                 1.8465                 1.1696
 IR Inten    --     19.8905                42.7725                 7.1035

                     25                     26                     27
                      A                      A                      A
 Frequencies --   1120.6234              1136.5918              1154.4759
 Red. masses --      1.4739                 3.3349                 1.9024
 Frc consts  --      1.0905                 2.5383                 1.4939
 IR Inten    --      8.0630                 1.1881                 2.2659

                     28                     29                     30
                      A                      A                      A
 Frequencies --   1170.9763              1177.8570              1216.0578
 Red. masses --      1.3810                 1.9134                 1.5745
 Frc consts  --      1.1157                 1.5640                 1.3718
 IR Inten    --      1.5349                10.5884                 9.1336

                     31                     32                     33
                      A                      A                      A
 Frequencies --   1237.5129              1264.5416              1276.5441
 Red. masses --      1.6020                 1.5247                 1.2144
 Frc consts  --      1.4455                 1.4364                 1.1660
 IR Inten    --      2.4125                 1.5206                 1.3908

                     34                     35                     36
                      A                      A                      A
 Frequencies --   1335.1569              1372.9036              1413.5760
 Red. masses --      1.3374                 1.4558                 1.2219
 Frc consts  --      1.4047                 1.6167                 1.4386
 IR Inten    --     14.4538                 6.2036                 1.9301

                     37                     38                     39
                      A                      A                      A
 Frequencies --   1476.2369              1490.9196              1498.7468
 Red. masses --      1.1625                 1.0615                 1.0384
 Frc consts  --      1.4927                 1.3902                 1.3742
 IR Inten    --      1.4601                 1.1308                 4.5458

                     40                     41                     42
                      A                      A                      A
 Frequencies --   1511.8182              1569.8038              3034.1536
 Red. masses --      1.0793                 6.2466                 1.0595
 Frc consts  --      1.4534                 9.0695                 5.7469
 IR Inten    --      5.0705                25.5212                19.1234

                     43                     44                     45
                      A                      A                      A
 Frequencies --   3037.3253              3070.9397              3071.8201
 Red. masses --      1.0372                 1.0551                 1.0979
 Frc consts  --      5.6376                 5.8623                 6.1040
 IR Inten    --     26.5697                29.1003                 2.6543

                     46                     47                     48
                      A                      A                      A
 Frequencies --   3097.9295              3108.1752              3116.3482
 Red. masses --      1.0909                 1.0993                 1.1025
 Frc consts  --      6.1686                 6.2573                 6.3087
 IR Inten    --      5.7925                50.5028                28.6557

                     49                     50                     51
                      A                      A                      A
 Frequencies --   3131.3492              3136.2957              3154.8922
 Red. masses --      1.0908                 1.0973                 1.1116
 Frc consts  --      6.3015                 6.3590                 6.5186
 IR Inten    --     67.4515                 3.0921                18.2987

 - Thermochemistry -
 -------------------
 Temperature   298.150 Kelvin.  Pressure   1.00000 Atm.
 Atom     1 has atomic number  6 and mass  12.00000

 Molecular mass:   126.06808 amu.
 Principal axes and moments of inertia in atomic units:
                           1         2         3
     Eigenvalues --   562.014081450.721881728.97142
           X            0.99950   0.03149  -0.00272
           Y           -0.03144   0.99939   0.01552
           Z            0.00321  -0.01542   0.99988
 This molecule is an asymmetric top.
 Rotational symmetry number  1.
 Warning -- assumption of classical behavior for rotation
           may cause significant error
 Rotational temperatures (Kelvin)      0.15411     0.05970     0.05010
 Rotational constants (GHZ):           3.21120     1.24403     1.04382
 Zero-point vibrational energy     414499.6 (Joules/Mol)
                                   99.06778 (Kcal/Mol)
 Warning -- explicit consideration of  10 degrees of freedom as
           vibrations may cause significant error
 Vibrational temperatures:    104.03   176.88   233.18   297.88   353.60
          (Kelvin)            495.28   592.95   662.19   739.23   842.48
                              955.38  1094.38  1144.45  1180.88  1210.03
                             1263.75  1310.69  1352.57  1370.18  1422.87
                             1468.34  1507.37  1539.93  1580.11  1612.33
                             1635.30  1661.03  1684.77  1694.67  1749.63
                             1780.50  1819.39  1836.66  1920.99  1975.30
                             2033.82  2123.97  2145.10  2156.36  2175.17
                             2258.59  4365.46  4370.03  4418.39  4419.66
                             4457.22  4471.97  4483.72  4505.31  4512.42
                             4539.18

 Zero-point correction=                           0.157875 (Hartree/Particle)
 Thermal correction to Energy=                    0.166157
 Thermal correction to Enthalpy=                  0.167101
 Thermal correction to Gibbs Free Energy=         0.124715
 Sum of electronic and zero-point Energies=           -422.931280
 Sum of electronic and thermal Energies=              -422.922997
 Sum of electronic and thermal Enthalpies=            -422.922053
 Sum of electronic and thermal Free Energies=         -422.964440

                     E (Thermal)             CV                S
                      KCal/Mol        Cal/Mol-Kelvin    Cal/Mol-Kelvin
 Total                  104.265             31.644             89.210
 Electronic               0.000              0.000              0.000
 Translational            0.889              2.981             40.409
 Rotational               0.889              2.981             28.735
 Vibrational            102.488             25.682             20.067
 Vibration     1          0.598              1.967              4.090
 Vibration     2          0.610              1.930              3.054
 Vibration     3          0.622              1.889              2.526
 Vibration     4          0.641              1.830              2.070
 Vibration     5          0.660              1.770              1.761
 Vibration     6          0.723              1.587              1.192
 Vibration     7          0.776              1.444              0.919
 Vibration     8          0.818              1.338              0.765
 Vibration     9          0.869              1.219              0.625
 Vibration    10          0.943              1.063              0.475

 Optimization completed.
    -- Stationary point found.
 Normal termination of Gaussian 09 at Tue Jan 28 14:09:38 2020.
