 Gaussian 09, Revision D.01,
 Gaussian 09:  ES64L-G09RevD.01 24-Apr-2013

 -----------------------------
 # b3lyp 6-31G(2df,p) opt Freq
 -----------------------------

 -----
 titel
 -----
 Symbolic Z-matrix:
 Charge =  0 Multiplicity = 1

 SCF Done:  E(RB3LYP) =  -423.169096553     A.U. after   14 cycles
 Optimization completed.
    -- Stationary point found.
 Normal termination of Gaussian 09 at Mon Jan 27 17:32:02 2020.

 ----------------------------------------------------------------------
 #N Geom=AllCheck Guess=TCheck SCRF=Check GenChk RB3LYP/6-31G(2df,p) Fr
 eq
 ----------------------------------------------------------------------

 Structure from the checkpoint file:  "/scratch/puck/g09_4056fa18-6386-4710-b036-2e5b27e08314/Gau-72703.chk"
 -----
 titel
 -----
 Charge =  0 Multiplicity = 1

                         Standard orientation:
 ---------------------------------------------------------------------
 Center     Atomic      Atomic             Coordinates (Angstroms)
 Number     Number       Type             X           Y           Z
 ---------------------------------------------------------------------
      1          6           0        2.400307    0.470153    0.882577
      2          6           0        1.208238    0.122263    0.034383
      3          6           0        0.353749    1.216863   -0.599419
      4          6           0       -1.048729    0.605158   -0.726393
      5          8           0       -1.877478    0.907460    0.425713
      6          6           0       -2.017570   -0.487839    0.760854
      7          6           0       -1.000455   -0.896069   -0.320360
      8          6           0        0.410055   -1.111021    0.173007
      9          8           0        1.378233   -0.985735   -0.874518
     10          1           0        3.130137    1.047698    0.304464
     11          1           0        2.099067    1.076815    1.742882
     12          1           0        2.894517   -0.434890    1.244571
     13          1           0        0.299447    2.111049    0.029281
     14          1           0        0.771795    1.504014   -1.569981
     15          1           0       -1.563388    0.862098   -1.658066
     16          1           0       -1.740458   -0.693311    1.802727
     17          1           0       -3.039042   -0.849566    0.586643
     18          1           0       -1.317286   -1.646760   -1.045898
     19          1           0        0.625606   -1.867989    0.925915
 ---------------------------------------------------------------------

 SCF Done:  E(RB3LYP) =  -423.169096553     A.U. after    1 cycles

 The electronic state is 1-A.
 Alpha  occ. eigenvalues --  -19.14570 -19.13243 -10.24085 -10.23568 -10.23394
 Alpha  occ. eigenvalues --  -10.23269 -10.19514 -10.18438 -10.18376  -1.07004
 Alpha  occ. eigenvalues --   -1.03663  -0.79023  -0.75986  -0.72729  -0.65512
 Alpha  occ. eigenvalues --   -0.63911  -0.56460  -0.54857  -0.50496  -0.49055
 Alpha  occ. eigenvalues --   -0.45767  -0.45302  -0.43945  -0.42350  -0.40509
 Alpha  occ. eigenvalues --   -0.39965  -0.37555  -0.36124  -0.35356  -0.31982
 Alpha  occ. eigenvalues --   -0.31249  -0.28093  -0.26656  -0.24634
 Alpha virt. eigenvalues --    0.07825   0.09405   0.10045   0.10355   0.12161
 Alpha virt. eigenvalues --    0.12930   0.13106   0.15487   0.16092   0.16610
 Alpha virt. eigenvalues --    0.17321   0.18600   0.18826   0.19422   0.21332

 Mulliken charges:
               1
     1  C   -0.486707
     2  C    0.418601
     3  C   -0.300637
     4  C    0.134407
     5  O   -0.294006
     6  C   -0.089130
     7  C   -0.111829
     8  C   -0.032036
     9  O   -0.304633
    10  H    0.128651
    11  H    0.126288
    12  H    0.129055
    13  H    0.115656
    14  H    0.109200
    15  H    0.076061
    16  H    0.099826
    17  H    0.100392
    18  H    0.089731
    19  H    0.091110
 Sum of Mulliken charges =   0.00000

 Dipole moment (field-independent basis, Debye):
    X=              0.0176    Y=             -0.4248    Z=              0.7163  Tot=              0.8329
 Quadrupole moment (field-independent basis, Debye-Ang):
   XX=            -54.6422   YY=            -53.2418   ZZ=            -52.7444
   XY=              5.8719   XZ=              3.5515   YZ=             -3.4328

  Exact polarizability:  82.565   6.262  72.029   0.619  -3.731  67.479
 Approx polarizability: 107.607   5.671 110.278  -4.659  -1.685 104.141

                      1                      2                      3
                      A                      A                      A
 Frequencies --     97.2307               148.0455               199.7496
 Red. masses --      3.6702                 2.4634                 1.0597
 Frc consts  --      0.0204                 0.0318                 0.0249
 IR Inten    --      5.3435                 1.1120                 0.0193

                      4                      5                      6
                      A                      A                      A
 Frequencies --    304.9065               327.1628               359.6550
 Red. masses --      2.5528                 3.0889                 3.7469
 Frc consts  --      0.1398                 0.1948                 0.2856
 IR Inten    --      0.4395                 2.8645                 1.9054

                      7                      8                      9
                      A                      A                      A
 Frequencies --    403.3198               463.8528               584.9451
 Red. masses --      2.1449                 4.1453                 3.7791
 Frc consts  --      0.2056                 0.5255                 0.7618
 IR Inten    --      2.5657                13.9627                 0.1391

                     10                     11                     12
                      A                      A                      A
 Frequencies --    669.4169               749.1810               805.7160
 Red. masses --      4.7315                 5.1136                 2.5413
 Frc consts  --      1.2492                 1.6910                 0.9720
 IR Inten    --      2.5129                 4.8290                 3.2736

                     13                     14                     15
                      A                      A                      A
 Frequencies --    832.8833               862.4063               886.0715
 Red. masses --      3.0323                 2.3311                 3.4733
 Frc consts  --      1.2393                 1.0215                 1.6067
 IR Inten    --     29.2492                 3.2916                15.4866

                     16                     17                     18
                      A                      A                      A
 Frequencies --    899.1353               925.3432               984.7549
 Red. masses --      1.9770                 2.2912                 1.8831
 Frc consts  --      0.9417                 1.1559                 1.0759
 IR Inten    --      0.5294                 2.3925                 5.6326

                     19                     20                     21
                      A                      A                      A
 Frequencies --   1006.8058              1024.3937              1026.7005
 Red. masses --      2.6376                 5.1089                 1.5130
 Frc consts  --      1.5753                 3.1587                 0.9397
 IR Inten    --      4.4086                76.5756                 8.0886

                     22                     23                     24
                      A                      A                      A
 Frequencies --   1045.8710              1076.0565              1108.2232
 Red. masses --      1.4402                 2.5491                 2.0771
 Frc consts  --      0.9282                 1.7390                 1.5030
 IR Inten    --      2.1156                 3.3988                31.3179

                     25                     26                     27
                      A                      A                      A
 Frequencies --   1131.5098              1168.6154              1200.2489
 Red. masses --      1.9511                 1.1390                 1.4935
 Frc consts  --      1.4718                 0.9164                 1.2676
 IR Inten    --      2.0244                 0.2790                 5.5257

                     28                     29                     30
                      A                      A                      A
 Frequencies --   1212.5864              1249.6020              1260.6154
 Red. masses --      1.5767                 2.0873                 1.4511
 Frc consts  --      1.3659                 1.9203                 1.3587
 IR Inten    --      3.1782                 6.4187                 0.2110

                     31                     32                     33
                      A                      A                      A
 Frequencies --   1286.7661              1313.0149              1340.9552
 Red. masses --      1.3671                 1.5619                 1.8720
 Frc consts  --      1.3336                 1.5865                 1.9833
 IR Inten    --      3.9414                20.5201                 7.2720

                     34                     35                     36
                      A                      A                      A
 Frequencies --   1357.2400              1364.1379              1410.1312
 Red. masses --      1.6636                 1.4371                 1.2896
 Frc consts  --      1.8056                 1.5756                 1.5109
 IR Inten    --      6.0961                 6.3938                 3.4042

                     37                     38                     39
                      A                      A                      A
 Frequencies --   1445.4593              1464.7264              1486.2140
 Red. masses --      2.0236                 1.2623                 1.1053
 Frc consts  --      2.4911                 1.5956                 1.4384
 IR Inten    --     14.1672                 2.5015                 8.0195

                     40                     41                     42
                      A                      A                      A
 Frequencies --   1497.5485              1526.4919              3008.0652
 Red. masses --      1.1679                 1.1042                 1.0549
 Frc consts  --      1.5432                 1.5160                 5.6241
 IR Inten    --      2.2264                 0.7078                83.1006

                     43                     44                     45
                      A                      A                      A
 Frequencies --   3035.0218              3042.9149              3048.9864
 Red. masses --      1.0369                 1.0704                 1.1105
 Frc consts  --      5.6272                 5.8397                 6.0824
 IR Inten    --     14.1667                26.6130                36.5268

                     46                     47                     48
                      A                      A                      A
 Frequencies --   3055.4153              3095.9610              3099.0039
 Red. masses --      1.0756                 1.1029                 1.1009
 Frc consts  --      5.9164                 6.2282                 6.2293
 IR Inten    --     50.9997                 0.8718                22.7168

                     49                     50                     51
                      A                      A                      A
 Frequencies --   3102.3212              3121.4500              3123.7773
 Red. masses --      1.0879                 1.0932                 1.0988
 Frc consts  --      6.1692                 6.2756                 6.3173
 IR Inten    --     37.6652                10.7966                31.1972

 - Thermochemistry -
 -------------------
 Temperature   298.150 Kelvin.  Pressure   1.00000 Atm.
 Atom     1 has atomic number  6 and mass  12.00000

 Molecular mass:   126.06808 amu.
 Principal axes and moments of inertia in atomic units:
                           1         2         3
     Eigenvalues --   560.590011252.462641393.87802
           X            0.99836   0.05165   0.02472
           Y           -0.04927   0.99485  -0.08862
           Z           -0.02917   0.08726   0.99576
 This molecule is an asymmetric top.
 Rotational symmetry number  1.
 Warning -- assumption of classical behavior for rotation
           may cause significant error
 Rotational temperatures (Kelvin)      0.15450     0.06915     0.06214
 Rotational constants (GHZ):           3.21936     1.44095     1.29476
 Zero-point vibrational energy     420132.1 (Joules/Mol)
                                  100.41399 (Kcal/Mol)
 Warning -- explicit consideration of   9 degrees of freedom as
           vibrations may cause significant error
 Vibrational temperatures:    139.89   213.00   287.39   438.69   470.71
          (Kelvin)            517.46   580.29   667.38   841.60   963.14
                             1077.90  1159.24  1198.33  1240.81  1274.86
                             1293.65  1331.36  1416.84  1448.57  1473.87
                             1477.19  1504.77  1548.20  1594.48  1627.99
                             1681.37  1726.89  1744.64  1797.90  1813.74
                             1851.37  1889.13  1929.33  1952.76  1962.69
                             2028.86  2079.69  2107.41  2138.33  2154.64
                             2196.28  4327.93  4366.71  4378.07  4386.81
                             4396.06  4454.39  4458.77  4463.54  4491.06
                             4494.41

 Zero-point correction=                           0.160020 (Hartree/Particle)
 Thermal correction to Energy=                    0.167675
 Thermal correction to Enthalpy=                  0.168619
 Thermal correction to Gibbs Free Energy=         0.127917
 Sum of electronic and zero-point Energies=           -423.009077
 Sum of electronic and thermal Energies=              -423.001421
 Sum of electronic and thermal Enthalpies=            -423.000477
 Sum of electronic and thermal Free Energies=         -423.041179

                     E (Thermal)             CV                S
                      KCal/Mol        Cal/Mol-Kelvin    Cal/Mol-Kelvin
 Total                  105.218             30.024             85.665
 Electronic               0.000              0.000              0.000
 Translational            0.889              2.981             40.409
 Rotational               0.889              2.981             28.372
 Vibrational            103.440             24.063             16.884
 Vibration     1          0.603              1.951              3.509
 Vibration     2          0.617              1.905              2.697
 Vibration     3          0.638              1.840              2.135
 Vibration     4          0.696              1.664              1.390
 Vibration     5          0.711              1.621              1.274
 Vibration     6          0.734              1.555              1.124
 Vibration     7          0.769              1.463              0.951
 Vibration     8          0.821              1.330              0.755
 Vibration     9          0.942              1.064              0.476

 Normal termination of Gaussian 09 at Mon Jan 27 18:28:16 2020.
