 Gaussian 09, Revision D.01,
 Gaussian 09:  ES64L-G09RevD.01 24-Apr-2013

 -----------------------------
 # b3lyp 6-31G(2df,p) opt Freq
 -----------------------------

 -----
 titel
 -----
 Symbolic Z-matrix:
 Charge =  0 Multiplicity = 1

 SCF Done:  E(RB3LYP) =  -423.134181147     A.U. after   13 cycles
 Optimization completed.
    -- Stationary point found.
 Normal termination of Gaussian 09 at Tue Jan 28 03:40:56 2020.

 ----------------------------------------------------------------------
 #N Geom=AllCheck Guess=TCheck SCRF=Check GenChk RB3LYP/6-31G(2df,p) Fr
 eq
 ----------------------------------------------------------------------

 Structure from the checkpoint file:  "/scratch/puck/g09_48dacb78-2baa-4382-b66e-40b13b8f1d66/Gau-80512.chk"
 -----
 titel
 -----
 Charge =  0 Multiplicity = 1

                         Standard orientation:
 ---------------------------------------------------------------------
 Center     Atomic      Atomic             Coordinates (Angstroms)
 Number     Number       Type             X           Y           Z
 ---------------------------------------------------------------------
      1          8           0       -2.436162   -0.780808   -0.258649
      2          6           0       -1.536054    0.018444    0.445131
      3          6           0       -1.073284    1.421662   -0.132991
      4          6           0        0.348350    1.126628    0.438171
      5          6           0        1.707981    0.999200   -0.300803
      6          6           0        1.683444   -0.552886   -0.435834
      7          6           0        1.175029   -1.142339    0.923767
      8          6           0       -0.048081   -0.362591    0.419708
      9          8           0        0.330610   -0.737049   -0.952452
     10          1           0       -1.994968   -1.034976   -1.078585
     11          1           0       -1.920316    0.130693    1.462721
     12          1           0       -1.104170    1.420108   -1.223495
     13          1           0       -1.593306    2.301751    0.249394
     14          1           0        0.454492    1.532543    1.447028
     15          1           0        1.733863    1.459882   -1.291332
     16          1           0        2.548174    1.382700    0.284750
     17          1           0        2.454694   -1.047539   -1.027459
     18          1           0        1.082895   -2.227176    0.861911
     19          1           0        1.638742   -0.823832    1.860978
 ---------------------------------------------------------------------

 SCF Done:  E(RB3LYP) =  -423.134181147     A.U. after    1 cycles

 The electronic state is 1-A.
 Alpha  occ. eigenvalues --  -19.13738 -19.13451 -10.24433 -10.23758 -10.23321
 Alpha  occ. eigenvalues --  -10.19402 -10.18838 -10.18444 -10.18226  -1.05724
 Alpha  occ. eigenvalues --   -1.01800  -0.83004  -0.76879  -0.71756  -0.64708
 Alpha  occ. eigenvalues --   -0.62747  -0.56522  -0.54683  -0.52600  -0.47829
 Alpha  occ. eigenvalues --   -0.46222  -0.44931  -0.42072  -0.40018  -0.39233
 Alpha  occ. eigenvalues --   -0.38658  -0.36406  -0.36206  -0.33465  -0.32664
 Alpha  occ. eigenvalues --   -0.30334  -0.29162  -0.25827  -0.24428
 Alpha virt. eigenvalues --    0.07364   0.10118   0.10641   0.10999   0.11961
 Alpha virt. eigenvalues --    0.13118   0.13839   0.14739   0.15159   0.16967
 Alpha virt. eigenvalues --    0.17229   0.18880   0.19838   0.20114   0.22207

 Mulliken charges:
               1
     1  O   -0.432195
     2  C    0.040221
     3  C   -0.310383
     4  C   -0.005629
     5  C   -0.255697
     6  C    0.071717
     7  C   -0.341224
     8  C    0.381854
     9  O   -0.338812
    10  H    0.295099
    11  H    0.099607
    12  H    0.114425
    13  H    0.098940
    14  H    0.075181
    15  H    0.112134
    16  H    0.098197
    17  H    0.082793
    18  H    0.116306
    19  H    0.097467
 Sum of Mulliken charges =   0.00000

 Dipole moment (field-independent basis, Debye):
    X=              2.0801    Y=              0.7324    Z=              0.7259  Tot=              2.3217
 Quadrupole moment (field-independent basis, Debye-Ang):
   XX=            -55.9515   YY=            -53.2786   ZZ=            -51.1867
   XY=             -2.3055   XZ=              0.3483   YZ=              0.4993

  Exact polarizability:  82.955  -2.864  73.541  -0.879   0.339  67.405
 Approx polarizability: 115.415  -0.704 106.503   0.078   4.592 108.231

                      1                      2                      3
                      A                      A                      A
 Frequencies --    145.7835               211.4742               295.8619
 Red. masses --      3.9048                 3.4889                 2.9758
 Frc consts  --      0.0489                 0.0919                 0.1535
 IR Inten    --      3.2195                 3.3672                 1.2074

                      4                      5                      6
                      A                      A                      A
 Frequencies --    390.6324               415.1980               444.6294
 Red. masses --      1.7492                 1.3459                 2.1052
 Frc consts  --      0.1573                 0.1367                 0.2452
 IR Inten    --      2.0744                44.7130                39.4525

                      7                      8                      9
                      A                      A                      A
 Frequencies --    488.5459               511.1515               629.8178
 Red. masses --      3.9843                 2.5358                 3.6681
 Frc consts  --      0.5603                 0.3904                 0.8573
 IR Inten    --      8.3134                12.3286                 3.3224

                     10                     11                     12
                      A                      A                      A
 Frequencies --    666.7784               675.6427               804.4024
 Red. masses --      3.3232                 2.8969                 3.2160
 Frc consts  --      0.8705                 0.7791                 1.2261
 IR Inten    --     12.2107                 2.7858                 7.9253

                     13                     14                     15
                      A                      A                      A
 Frequencies --    806.5386               824.0864               854.6516
 Red. masses --      3.4829                 2.5702                 2.4561
 Frc consts  --      1.3349                 1.0284                 1.0570
 IR Inten    --     27.0624                 4.2729                 3.2760

                     16                     17                     18
                      A                      A                      A
 Frequencies --    866.6348               912.9730               954.5520
 Red. masses --      2.3978                 1.9276                 2.4533
 Frc consts  --      1.0611                 0.9466                 1.3170
 IR Inten    --      6.3988                 1.8229                 9.4615

                     19                     20                     21
                      A                      A                      A
 Frequencies --    973.5711               983.7883              1030.4436
 Red. masses --      3.2308                 3.0761                 1.5918
 Frc consts  --      1.8042                 1.7541                 0.9958
 IR Inten    --     33.9856                17.3174                 7.4514

                     22                     23                     24
                      A                      A                      A
 Frequencies --   1053.9896              1075.6417              1093.3461
 Red. masses --      2.0165                 2.0123                 1.3842
 Frc consts  --      1.3199                 1.3717                 0.9749
 IR Inten    --      2.8895                 7.0382                 1.2076

                     25                     26                     27
                      A                      A                      A
 Frequencies --   1135.6641              1144.2656              1165.4215
 Red. masses --      3.1910                 1.4434                 1.5223
 Frc consts  --      2.4248                 1.1135                 1.2182
 IR Inten    --    125.9260                11.9193                38.4744

                     28                     29                     30
                      A                      A                      A
 Frequencies --   1184.7368              1201.6966              1220.4222
 Red. masses --      1.5176                 1.3636                 1.6001
 Frc consts  --      1.2550                 1.1602                 1.4041
 IR Inten    --     15.6150                 1.4155                 8.7612

                     31                     32                     33
                      A                      A                      A
 Frequencies --   1237.0128              1265.2564              1270.3900
 Red. masses --      1.3853                 1.7656                 1.6881
 Frc consts  --      1.2489                 1.6653                 1.6052
 IR Inten    --      2.6098                 3.3314                 3.5822

                     34                     35                     36
                      A                      A                      A
 Frequencies --   1290.6200              1306.2843              1332.4887
 Red. masses --      1.4467                 1.4691                 1.9585
 Frc consts  --      1.4198                 1.4770                 2.0488
 IR Inten    --      0.7034                 1.1400                 4.2450

                     37                     38                     39
                      A                      A                      A
 Frequencies --   1353.3809              1447.3189              1471.6279
 Red. masses --      1.4914                 1.2864                 1.1071
 Frc consts  --      1.6094                 1.5876                 1.4127
 IR Inten    --      3.0336                90.2785                 0.8518

                     40                     41                     42
                      A                      A                      A
 Frequencies --   1481.2708              1489.4082              3061.2060
 Red. masses --      1.1349                 1.1387                 1.0611
 Frc consts  --      1.4672                 1.4882                 5.8583
 IR Inten    --      5.9018                 0.1411                27.5801

                     43                     44                     45
                      A                      A                      A
 Frequencies --   3066.5077              3076.0363              3079.1674
 Red. masses --      1.0603                 1.0805                 1.0642
 Frc consts  --      5.8742                 6.0239                 5.9448
 IR Inten    --     22.8208                15.7190                28.6968

                     46                     47                     48
                      A                      A                      A
 Frequencies --   3082.8086              3113.6270              3117.9468
 Red. masses --      1.0824                 1.1059                 1.0914
 Frc consts  --      6.0608                 6.3169                 6.2516
 IR Inten    --     35.1386                22.3583                51.8911

                     49                     50                     51
                      A                      A                      A
 Frequencies --   3143.1997              3144.9804              3788.3370
 Red. masses --      1.1083                 1.1082                 1.0653
 Frc consts  --      6.4516                 6.4581                 9.0082
 IR Inten    --      8.8091                38.0797                25.8880

 - Thermochemistry -
 -------------------
 Temperature   298.150 Kelvin.  Pressure   1.00000 Atm.
 Atom     1 has atomic number  8 and mass  15.99491

 Molecular mass:   126.06808 amu.
 Principal axes and moments of inertia in atomic units:
                           1         2         3
     Eigenvalues --   580.759641097.481221319.62391
           X            0.99979  -0.01984   0.00485
           Y            0.01995   0.99952  -0.02356
           Z           -0.00438   0.02366   0.99971
 This molecule is an asymmetric top.
 Rotational symmetry number  1.
 Warning -- assumption of classical behavior for rotation
           may cause significant error
 Rotational temperatures (Kelvin)      0.14914     0.07892     0.06564
 Rotational constants (GHZ):           3.10755     1.64444     1.36762
 Zero-point vibrational energy     423365.7 (Joules/Mol)
                                  101.18683 (Kcal/Mol)
 Warning -- explicit consideration of   8 degrees of freedom as
           vibrations may cause significant error
 Vibrational temperatures:    209.75   304.26   425.68   562.03   597.38
          (Kelvin)            639.72   702.91   735.43   906.17   959.34
                              972.10  1157.35  1160.43  1185.68  1229.65
                             1246.89  1313.56  1373.39  1400.75  1415.45
                             1482.58  1516.45  1547.61  1573.08  1633.97
                             1646.34  1676.78  1704.57  1728.97  1755.91
                             1779.78  1820.42  1827.81  1856.91  1879.45
                             1917.15  1947.21  2082.37  2117.34  2131.22
                             2142.92  4404.39  4412.02  4425.72  4430.23
                             4435.47  4479.81  4486.02  4522.36  4524.92
                             5450.57

 Zero-point correction=                           0.161251 (Hartree/Particle)
 Thermal correction to Energy=                    0.168284
 Thermal correction to Enthalpy=                  0.169228
 Thermal correction to Gibbs Free Energy=         0.130202
 Sum of electronic and zero-point Energies=           -422.972930
 Sum of electronic and thermal Energies=              -422.965897
 Sum of electronic and thermal Enthalpies=            -422.964953
 Sum of electronic and thermal Free Energies=         -423.003980

                     E (Thermal)             CV                S
                      KCal/Mol        Cal/Mol-Kelvin    Cal/Mol-Kelvin
 Total                  105.600             29.622             82.139
 Electronic               0.000              0.000              0.000
 Translational            0.889              2.981             40.409
 Rotational               0.889              2.981             28.222
 Vibrational            103.822             23.661             13.509
 Vibration     1          0.617              1.907              2.727
 Vibration     2          0.643              1.823              2.031
 Vibration     3          0.690              1.681              1.440
 Vibration     4          0.758              1.490              0.998
 Vibration     5          0.779              1.437              0.908
 Vibration     6          0.804              1.373              0.812
 Vibration     7          0.844              1.275              0.687
 Vibration     8          0.866              1.225              0.631

 Optimization completed.
    -- Stationary point found.
 Normal termination of Gaussian 09 at Tue Jan 28 04:25:53 2020.
