 Gaussian 09, Revision D.01,
 Gaussian 09:  ES64L-G09RevD.01 24-Apr-2013

 -----------------------------
 # b3lyp 6-31G(2df,p) opt Freq
 -----------------------------

 -----
 titel
 -----
 Symbolic Z-matrix:
 Charge =  0 Multiplicity = 1

 SCF Done:  E(RB3LYP) =  -423.218361489     A.U. after   14 cycles
 Optimization completed.
    -- Stationary point found.
 Normal termination of Gaussian 09 at Mon Jan 27 10:21:39 2020.

 ----------------------------------------------------------------------
 #N Geom=AllCheck Guess=TCheck SCRF=Check GenChk RB3LYP/6-31G(2df,p) Fr
 eq
 ----------------------------------------------------------------------

 Structure from the checkpoint file:  "/scratch/puck/g09_a7d93fe4-4963-4f2d-bda9-56b5bd83bd1e/Gau-46260.chk"
 -----
 titel
 -----
 Charge =  0 Multiplicity = 1

                         Standard orientation:
 ---------------------------------------------------------------------
 Center     Atomic      Atomic             Coordinates (Angstroms)
 Number     Number       Type             X           Y           Z
 ---------------------------------------------------------------------
      1          6           0       -1.675751   -0.675267   -1.266743
      2          6           0       -1.179546    0.045665   -0.000268
      3          6           0       -1.676029   -0.669162    1.269525
      4          8           0       -1.613833    1.406186   -0.003652
      5          6           0        0.320658    0.131586   -0.000202
      6          6           0        1.193340    1.172673   -0.000674
      7          6           0        2.507448    0.595284   -0.000223
      8          6           0        2.329696   -0.749265    0.000555
      9          8           0        1.000164   -1.051323    0.000698
     10          1           0       -2.769614   -0.749567   -1.258381
     11          1           0       -1.368867   -0.118605   -2.155655
     12          1           0       -1.266471   -1.687203   -1.327261
     13          1           0       -2.769923   -0.743534    1.261341
     14          1           0       -1.266912   -1.680865    1.334857
     15          1           0       -1.369169   -0.108448    2.155910
     16          1           0       -2.576293    1.399971    0.001707
     17          1           0        0.927246    2.216245   -0.001356
     18          1           0        3.451494    1.117461   -0.000472
     19          1           0        2.998956   -1.593446    0.001116
 ---------------------------------------------------------------------

 SCF Done:  E(RB3LYP) =  -423.218361489     A.U. after    1 cycles

 The electronic state is 1-A.
 Alpha  occ. eigenvalues --  -19.19645 -19.13731 -10.24863 -10.22054 -10.22022
 Alpha  occ. eigenvalues --  -10.17599 -10.17586 -10.17384 -10.16831  -1.09911
 Alpha  occ. eigenvalues --   -1.02258  -0.79200  -0.78562  -0.72111  -0.69167
 Alpha  occ. eigenvalues --   -0.61696  -0.58939  -0.53690  -0.51418  -0.48091
 Alpha  occ. eigenvalues --   -0.45289  -0.44627  -0.42313  -0.41490  -0.40729
 Alpha  occ. eigenvalues --   -0.38884  -0.38758  -0.36834  -0.35736  -0.35591
 Alpha  occ. eigenvalues --   -0.32494  -0.27222  -0.26765  -0.21236
 Alpha virt. eigenvalues --    0.02396   0.06989   0.08371   0.11376   0.13057
 Alpha virt. eigenvalues --    0.13863   0.15050   0.16262   0.16348   0.17354
 Alpha virt. eigenvalues --    0.19194   0.19475   0.19879   0.20121   0.22254

 Mulliken charges:
               1
     1  C   -0.414977
     2  C    0.232941
     3  C   -0.415379
     4  O   -0.461015
     5  C    0.388553
     6  C   -0.278918
     7  C   -0.178411
     8  C   -0.025883
     9  O   -0.201531
    10  H    0.100196
    11  H    0.128535
    12  H    0.130435
    13  H    0.100233
    14  H    0.130552
    15  H    0.128541
    16  H    0.278056
    17  H    0.120535
    18  H    0.108799
    19  H    0.128737
 Sum of Mulliken charges =   0.00000

 Dipole moment (field-independent basis, Debye):
    X=             -0.9554    Y=             -0.6057    Z=              0.0105  Tot=              1.1312
 Quadrupole moment (field-independent basis, Debye-Ang):
   XX=            -43.9158   YY=            -53.4366   ZZ=            -55.0877
   XY=             -0.6794   XZ=             -0.0228   YZ=              0.0131

  Exact polarizability: 100.067   1.275  77.591  -0.014  -0.004  56.107
 Approx polarizability: 137.002   1.904 131.559  -0.020  -0.035  79.997

                      1                      2                      3
                      A                      A                      A
 Frequencies --     47.3279               140.8246               190.1320
 Red. masses --      4.1547                 3.2306                 3.2978
 Frc consts  --      0.0055                 0.0377                 0.0702
 IR Inten    --      4.2577                 0.6500                 2.9751

                      4                      5                      6
                      A                      A                      A
 Frequencies --    220.2061               235.6849               277.8748
 Red. masses --      1.0470                 1.0282                 1.0929
 Frc consts  --      0.0299                 0.0337                 0.0497
 IR Inten    --     94.5767                 4.5284                 0.4471

                      7                      8                      9
                      A                      A                      A
 Frequencies --    328.4914               342.2134               347.5775
 Red. masses --      2.6016                 3.8583                 3.3624
 Frc consts  --      0.1654                 0.2662                 0.2393
 IR Inten    --      0.6959                 0.0502                 2.1138

                     10                     11                     12
                      A                      A                      A
 Frequencies --    466.2143               484.9254               606.1277
 Red. masses --      3.7611                 4.2191                 2.9106
 Frc consts  --      0.4817                 0.5845                 0.6300
 IR Inten    --     14.4473                 0.6677                 3.8849

                     13                     14                     15
                      A                      A                      A
 Frequencies --    613.3403               707.4788               739.7643
 Red. masses --      3.7175                 3.0456                 1.5065
 Frc consts  --      0.8240                 0.8981                 0.4857
 IR Inten    --      2.9573                 2.6563                30.0538

                     16                     17                     18
                      A                      A                      A
 Frequencies --    814.5837               843.6529               854.6885
 Red. masses --      1.2290                 3.1995                 1.2882
 Frc consts  --      0.4805                 1.3417                 0.5544
 IR Inten    --     23.2950                 6.9904                 2.0157

                     19                     20                     21
                      A                      A                      A
 Frequencies --    901.6641               917.3351               949.3957
 Red. masses --      6.1373                 1.5503                 3.1543
 Frc consts  --      2.9398                 0.7687                 1.6751
 IR Inten    --      4.5767                 0.0013                26.2974

                     22                     23                     24
                      A                      A                      A
 Frequencies --    977.2086              1015.4170              1026.3219
 Red. masses --      2.0789                 1.3161                 1.3652
 Frc consts  --      1.1697                 0.7995                 0.8473
 IR Inten    --      6.7244                 0.5112                27.6276

                     25                     26                     27
                      A                      A                      A
 Frequencies --   1101.7494              1110.0984              1182.7267
 Red. masses --      2.9246                 1.6687                 1.7478
 Frc consts  --      2.0916                 1.2116                 1.4405
 IR Inten    --     19.0097                49.7337                42.5888

                     28                     29                     30
                      A                      A                      A
 Frequencies --   1186.6388              1207.4910              1226.0645
 Red. masses --      3.4768                 2.5107                 2.5044
 Frc consts  --      2.8845                 2.1568                 2.2181
 IR Inten    --     23.7436                55.9762                 0.3190

                     31                     32                     33
                      A                      A                      A
 Frequencies --   1252.2867              1378.4107              1388.1376
 Red. masses --      2.0109                 1.9418                 1.2449
 Frc consts  --      1.8580                 2.1738                 1.4133
 IR Inten    --      2.8563                59.2611                 8.1421

                     34                     35                     36
                      A                      A                      A
 Frequencies --   1403.8252              1417.7201              1477.2469
 Red. masses --      1.4974                 1.8875                 1.0471
 Frc consts  --      1.7387                 2.2353                 1.3463
 IR Inten    --      4.3094                 0.7278                 0.2216

                     37                     38                     39
                      A                      A                      A
 Frequencies --   1482.1625              1494.4248              1505.9651
 Red. masses --      1.0500                 1.0541                 1.1573
 Frc consts  --      1.3590                 1.3870                 1.5464
 IR Inten    --      0.9325                 1.6369                 8.3341

                     40                     41                     42
                      A                      A                      A
 Frequencies --   1547.5280              1640.5312              3027.9295
 Red. masses --      3.9571                 6.3957                 1.0388
 Frc consts  --      5.5834                10.1416                 5.6116
 IR Inten    --      4.8711                 2.6936                11.1375

                     43                     44                     45
                      A                      A                      A
 Frequencies --   3033.6719              3102.4299              3108.3737
 Red. masses --      1.0385                 1.0963                 1.0966
 Frc consts  --      5.6314                 6.2171                 6.2426
 IR Inten    --     38.7177                 6.3508                43.6317

                     46                     47                     48
                      A                      A                      A
 Frequencies --   3129.5967              3132.4690              3253.5914
 Red. masses --      1.1029                 1.1026                 1.0895
 Frc consts  --      6.3644                 6.3746                 6.7950
 IR Inten    --      9.4862                19.4582                 3.2845

                     49                     50                     51
                      A                      A                      A
 Frequencies --   3280.3591              3287.4383              3821.0340
 Red. masses --      1.0966                 1.1064                 1.0661
 Frc consts  --      6.9528                 7.0451                 9.1711
 IR Inten    --      0.9601                 0.8889                17.1219

 - Thermochemistry -
 -------------------
 Temperature   298.150 Kelvin.  Pressure   1.00000 Atm.
 Atom     1 has atomic number  6 and mass  12.00000

 Molecular mass:   126.06808 amu.
 Principal axes and moments of inertia in atomic units:
                           1         2         3
     Eigenvalues --   571.475871451.184891631.74133
           X            0.99968   0.02544  -0.00007
           Y           -0.02544   0.99968   0.00038
           Z            0.00008  -0.00038   1.00000
 This molecule is an asymmetric top.
 Rotational symmetry number  1.
 Warning -- assumption of classical behavior for rotation
           may cause significant error
 Rotational temperatures (Kelvin)      0.15156     0.05968     0.05308
 Rotational constants (GHZ):           3.15804     1.24363     1.10602
 Zero-point vibrational energy     414077.5 (Joules/Mol)
                                   98.96690 (Kcal/Mol)
 Warning -- explicit consideration of  13 degrees of freedom as
           vibrations may cause significant error
 Vibrational temperatures:     68.09   202.61   273.56   316.83   339.10
          (Kelvin)            399.80   472.63   492.37   500.09   670.78
                              697.70   872.08   882.46  1017.90  1064.35
                             1172.00  1213.83  1229.70  1297.29  1319.84
                             1365.97  1405.98  1460.96  1476.65  1585.17
                             1597.18  1701.68  1707.31  1737.31  1764.03
                             1801.76  1983.22  1997.22  2019.79  2039.78
                             2125.43  2132.50  2150.14  2166.75  2226.54
                             2360.36  4356.51  4364.77  4463.70  4472.25
                             4502.79  4506.92  4681.19  4719.70  4729.88
                             5497.61

 Zero-point correction=                           0.157714 (Hartree/Particle)
 Thermal correction to Energy=                    0.166879
 Thermal correction to Enthalpy=                  0.167823
 Thermal correction to Gibbs Free Energy=         0.123845
 Sum of electronic and zero-point Energies=           -423.060648
 Sum of electronic and thermal Energies=              -423.051482
 Sum of electronic and thermal Enthalpies=            -423.050538
 Sum of electronic and thermal Free Energies=         -423.094516

                     E (Thermal)             CV                S
                      KCal/Mol        Cal/Mol-Kelvin    Cal/Mol-Kelvin
 Total                  104.718             34.695             92.559
 Electronic               0.000              0.000              0.000
 Translational            0.889              2.981             40.409
 Rotational               0.889              2.981             28.694
 Vibrational            102.941             28.733             23.457
 Vibration     1          0.595              1.979              4.926
 Vibration     2          0.615              1.912              2.793
 Vibration     3          0.633              1.853              2.227
 Vibration     4          0.647              1.810              1.957
 Vibration     5          0.655              1.786              1.835
 Vibration     6          0.679              1.714              1.547
 Vibration     7          0.712              1.619              1.267
 Vibration     8          0.721              1.591              1.202
 Vibration     9          0.725              1.580              1.177
 Vibration    10          0.824              1.325              0.748
 Vibration    11          0.841              1.283              0.697
 Vibration    12          0.965              1.019              0.439
 Vibration    13          0.973              1.004              0.427

 Normal termination of Gaussian 09 at Mon Jan 27 11:00:51 2020.
