 Gaussian 09, Revision D.01,
 Gaussian 09:  ES64L-G09RevD.01 24-Apr-2013

 -----------------------------
 # b3lyp 6-31G(2df,p) opt Freq
 -----------------------------

 -----
 titel
 -----
 Symbolic Z-matrix:
 Charge =  0 Multiplicity = 1

 SCF Done:  E(RB3LYP) =  -423.108114618     A.U. after   13 cycles
 Optimization completed.
    -- Stationary point found.
 Normal termination of Gaussian 09 at Mon Jan 27 15:35:27 2020.

 ----------------------------------------------------------------------
 #N Geom=AllCheck Guess=TCheck SCRF=Check GenChk RB3LYP/6-31G(2df,p) Fr
 eq
 ----------------------------------------------------------------------

 Structure from the checkpoint file:  "/scratch/puck/g09_239cbbee-20be-4335-a84f-9b8fd0409b68/Gau-175590.chk"
 -----
 titel
 -----
 Charge =  0 Multiplicity = 1

                         Standard orientation:
 ---------------------------------------------------------------------
 Center     Atomic      Atomic             Coordinates (Angstroms)
 Number     Number       Type             X           Y           Z
 ---------------------------------------------------------------------
      1          6           0       -2.475843    1.058981   -0.260482
      2          6           0       -1.513818   -0.002473    0.273908
      3          8           0       -2.100599   -1.303962    0.223270
      4          6           0       -0.168702    0.004589   -0.448559
      5          6           0        0.780803    1.139502   -0.054577
      6          6           0        2.186130    0.518539   -0.180202
      7          8           0        2.042223   -0.807825   -0.683389
      8          6           0        0.893894   -0.921731    0.205742
      9          6           0        1.402712    0.300449    1.063678
     10          1           0       -2.073662    2.067627   -0.123168
     11          1           0       -2.654910    0.915144   -1.333519
     12          1           0       -3.436016    0.993811    0.258316
     13          1           0       -1.341778    0.176188    1.342404
     14          1           0       -2.308626   -1.493913   -0.698547
     15          1           0       -0.314594   -0.172807   -1.523856
     16          1           0        0.615963    2.209569   -0.077004
     17          1           0        3.091365    1.071706   -0.392443
     18          1           0        0.668044   -1.937505    0.518609
     19          1           0        1.590164    0.477341    2.113109
 ---------------------------------------------------------------------

 SCF Done:  E(RB3LYP) =  -423.108114618     A.U. after    1 cycles

 The electronic state is 1-A.
 Alpha  occ. eigenvalues --  -19.13438 -19.13406 -10.24079 -10.24035 -10.23315
 Alpha  occ. eigenvalues --  -10.19832 -10.19580 -10.19026 -10.17830  -1.06073
 Alpha  occ. eigenvalues --   -1.01575  -0.85982  -0.76673  -0.71532  -0.65144
 Alpha  occ. eigenvalues --   -0.61564  -0.56191  -0.54022  -0.53675  -0.48530
 Alpha  occ. eigenvalues --   -0.47500  -0.44005  -0.42865  -0.42622  -0.39086
 Alpha  occ. eigenvalues --   -0.38607  -0.37816  -0.36747  -0.32780  -0.31960
 Alpha  occ. eigenvalues --   -0.29866  -0.26737  -0.26573  -0.23055
 Alpha virt. eigenvalues --    0.07140   0.08306   0.10147   0.10420   0.11634
 Alpha virt. eigenvalues --    0.13093   0.14084   0.14577   0.16309   0.16800
 Alpha virt. eigenvalues --    0.17214   0.18678   0.19373   0.20131   0.21609

 Mulliken charges:
               1
     1  C   -0.407236
     2  C    0.123771
     3  O   -0.435912
     4  C   -0.021086
     5  C   -0.129267
     6  C    0.074302
     7  O   -0.296199
     8  C    0.060170
     9  C   -0.147399
    10  H    0.119041
    11  H    0.107763
    12  H    0.124501
    13  H    0.087543
    14  H    0.276737
    15  H    0.061344
    16  H    0.091446
    17  H    0.110963
    18  H    0.098978
    19  H    0.100541
 Sum of Mulliken charges =   0.00000

 Dipole moment (field-independent basis, Debye):
    X=             -0.6001    Y=              1.8257    Z=              0.0398  Tot=              1.9222
 Quadrupole moment (field-independent basis, Debye-Ang):
   XX=            -55.0377   YY=            -52.7928   ZZ=            -52.3488
   XY=              2.4224   XZ=              5.4606   YZ=              1.3161

  Exact polarizability:  84.347   1.744  71.464   2.155   0.335  65.490
 Approx polarizability: 110.011   2.657 109.658   0.009   0.841 106.284

                      1                      2                      3
                      A                      A                      A
 Frequencies --     81.3453               154.7670               169.4467
 Red. masses --      3.3456                 4.0277                 3.1823
 Frc consts  --      0.0130                 0.0568                 0.0538
 IR Inten    --      1.0853                 0.6078                 4.0465

                      4                      5                      6
                      A                      A                      A
 Frequencies --    241.2016               292.1681               319.9322
 Red. masses --      1.1096                 1.2471                 2.5201
 Frc consts  --      0.0380                 0.0627                 0.1520
 IR Inten    --      0.3360                60.8338                40.2555

                      7                      8                      9
                      A                      A                      A
 Frequencies --    439.7943               467.5914               513.5790
 Red. masses --      4.0446                 2.5737                 3.7507
 Frc consts  --      0.4609                 0.3315                 0.5829
 IR Inten    --      6.3010                 5.3355                20.7313

                     10                     11                     12
                      A                      A                      A
 Frequencies --    556.6336               766.4219               775.7985
 Red. masses --      4.2311                 1.6190                 2.5796
 Frc consts  --      0.7724                 0.5603                 0.9147
 IR Inten    --      5.2728                 5.5285                17.5027

                     13                     14                     15
                      A                      A                      A
 Frequencies --    790.1220               811.5878               837.9290
 Red. masses --      2.6064                 2.4269                 2.2968
 Frc consts  --      0.9587                 0.9418                 0.9501
 IR Inten    --      4.6762                 4.2710                 3.7096

                     16                     17                     18
                      A                      A                      A
 Frequencies --    875.0908               914.1275               930.6035
 Red. masses --      2.0431                 1.9928                 2.3902
 Frc consts  --      0.9218                 0.9811                 1.2196
 IR Inten    --     21.2074                10.6898                35.4296

                     19                     20                     21
                      A                      A                      A
 Frequencies --    960.2103               975.0253               996.4294
 Red. masses --      2.1480                 1.9946                 2.2040
 Frc consts  --      1.1668                 1.1172                 1.2893
 IR Inten    --     10.7269                 9.4725                27.0107

                     22                     23                     24
                      A                      A                      A
 Frequencies --   1025.1957              1041.5726              1062.8124
 Red. masses --      1.5058                 2.4231                 2.3215
 Frc consts  --      0.9325                 1.5488                 1.5450
 IR Inten    --      7.3524                18.9591                 3.6275

                     25                     26                     27
                      A                      A                      A
 Frequencies --   1068.6987              1086.9037              1115.1978
 Red. masses --      1.8093                 3.5201                 2.3185
 Frc consts  --      1.2175                 2.4501                 1.6989
 IR Inten    --     39.7331                26.5422                13.3782

                     28                     29                     30
                      A                      A                      A
 Frequencies --   1156.9128              1165.8182              1180.3936
 Red. masses --      1.6249                 2.0434                 1.8272
 Frc consts  --      1.2814                 1.6363                 1.5000
 IR Inten    --      7.7428                21.2414                16.0384

                     31                     32                     33
                      A                      A                      A
 Frequencies --   1205.5442              1240.5204              1263.8624
 Red. masses --      1.2976                 1.3437                 1.7012
 Frc consts  --      1.1111                 1.2183                 1.6010
 IR Inten    --      1.0541                10.7604                 7.8696

                     34                     35                     36
                      A                      A                      A
 Frequencies --   1299.9601              1332.2608              1367.8248
 Red. masses --      1.6237                 1.4543                 2.5374
 Frc consts  --      1.6166                 1.5209                 2.7971
 IR Inten    --      3.5580                 9.6085                 7.5501

                     37                     38                     39
                      A                      A                      A
 Frequencies --   1398.3934              1401.6965              1416.5997
 Red. masses --      1.5757                 1.2573                 1.2051
 Frc consts  --      1.8155                 1.4554                 1.4249
 IR Inten    --      4.9197                 6.9198                49.9972

                     40                     41                     42
                      A                      A                      A
 Frequencies --   1491.4151              1494.5073              3005.0498
 Red. masses --      1.0558                 1.0551                 1.0820
 Frc consts  --      1.3837                 1.3885                 5.7570
 IR Inten    --      7.2712                 2.4630                33.9356

                     43                     44                     45
                      A                      A                      A
 Frequencies --   3025.5862              3041.5378              3096.2014
 Red. masses --      1.0419                 1.0816                 1.0970
 Frc consts  --      5.6196                 5.8951                 6.1961
 IR Inten    --     13.5394                32.2912                33.0096

                     46                     47                     48
                      A                      A                      A
 Frequencies --   3119.3871              3164.6830              3191.5875
 Red. masses --      1.1018                 1.0925                 1.0912
 Frc consts  --      6.3170                 6.4465                 6.5491
 IR Inten    --     23.3348                17.4355                11.5833

                     49                     50                     51
                      A                      A                      A
 Frequencies --   3205.1980              3220.9893              3796.1290
 Red. masses --      1.0901                 1.1049                 1.0658
 Frc consts  --      6.5984                 6.7540                 9.0494
 IR Inten    --     13.6668                12.1981                14.5225

 - Thermochemistry -
 -------------------
 Temperature   298.150 Kelvin.  Pressure   1.00000 Atm.
 Atom     1 has atomic number  6 and mass  12.00000

 Molecular mass:   126.06808 amu.
 Principal axes and moments of inertia in atomic units:
                           1         2         3
     Eigenvalues --   492.179631493.701841712.55922
           X            0.99981  -0.01026   0.01640
           Y            0.01035   0.99993  -0.00495
           Z           -0.01634   0.00511   0.99985
 This molecule is an asymmetric top.
 Rotational symmetry number  1.
 Warning -- assumption of classical behavior for rotation
           may cause significant error
 Rotational temperatures (Kelvin)      0.17598     0.05799     0.05058
 Rotational constants (GHZ):           3.66683     1.20823     1.05383
 Zero-point vibrational energy     416014.8 (Joules/Mol)
                                   99.42992 (Kcal/Mol)
 Warning -- explicit consideration of  10 degrees of freedom as
           vibrations may cause significant error
 Vibrational temperatures:    117.04   222.67   243.80   347.03   420.36
          (Kelvin)            460.31   632.77   672.76   738.92   800.87
                             1102.71  1116.20  1136.81  1167.69  1205.59
                             1259.06  1315.22  1338.93  1381.53  1402.84
                             1433.64  1475.03  1498.59  1529.15  1537.62
                             1563.81  1604.52  1664.54  1677.35  1698.32
                             1734.51  1784.83  1818.41  1870.35  1916.82
                             1967.99  2011.97  2016.73  2038.17  2145.81
                             2150.26  4323.59  4353.14  4376.09  4454.74
                             4488.10  4553.27  4591.98  4611.56  4634.28
                             5461.78

 Zero-point correction=                           0.158452 (Hartree/Particle)
 Thermal correction to Energy=                    0.166559
 Thermal correction to Enthalpy=                  0.167503
 Thermal correction to Gibbs Free Energy=         0.125768
 Sum of electronic and zero-point Energies=           -422.949663
 Sum of electronic and thermal Energies=              -422.941556
 Sum of electronic and thermal Enthalpies=            -422.940611
 Sum of electronic and thermal Free Energies=         -422.982347

                     E (Thermal)             CV                S
                      KCal/Mol        Cal/Mol-Kelvin    Cal/Mol-Kelvin
 Total                  104.517             31.784             87.840
 Electronic               0.000              0.000              0.000
 Translational            0.889              2.981             40.409
 Rotational               0.889              2.981             28.622
 Vibrational            102.740             25.823             18.809
 Vibration     1          0.600              1.962              3.858
 Vibration     2          0.620              1.897              2.613
 Vibration     3          0.625              1.880              2.442
 Vibration     4          0.658              1.777              1.794
 Vibration     5          0.688              1.688              1.461
 Vibration     6          0.706              1.635              1.310
 Vibration     7          0.800              1.383              0.827
 Vibration     8          0.825              1.322              0.744
 Vibration     9          0.869              1.220              0.625
 Vibration    10          0.912              1.125              0.531

 Normal termination of Gaussian 09 at Mon Jan 27 16:18:04 2020.
