 Gaussian 09, Revision D.01,
 Gaussian 09:  ES64L-G09RevD.01 24-Apr-2013

 -----------------------------
 # b3lyp 6-31G(2df,p) opt Freq
 -----------------------------

 -----
 titel
 -----
 Symbolic Z-matrix:
 Charge =  0 Multiplicity = 1

 SCF Done:  E(RB3LYP) =  -423.160788595     A.U. after   13 cycles
 Optimization completed.
    -- Stationary point found.
 Normal termination of Gaussian 09 at Mon Jan 27 12:19:27 2020.

 ----------------------------------------------------------------------
 #N Geom=AllCheck Guess=TCheck SCRF=Check GenChk RB3LYP/6-31G(2df,p) Fr
 eq
 ----------------------------------------------------------------------

 Structure from the checkpoint file:  "/scratch/puck/g09_152cd43d-429a-4684-9fb3-82f88dc6a70f/Gau-165646.chk"
 -----
 titel
 -----
 Charge =  0 Multiplicity = 1

                         Standard orientation:
 ---------------------------------------------------------------------
 Center     Atomic      Atomic             Coordinates (Angstroms)
 Number     Number       Type             X           Y           Z
 ---------------------------------------------------------------------
      1          6           0       -1.927070    0.498692   -0.391028
      2          8           0       -1.818344   -0.923400   -0.164329
      3          6           0       -0.656158   -0.744942    0.663815
      4          6           0       -0.804973    0.806556    0.628617
      5          6           0        0.436202    1.593701    0.153711
      6          6           0        1.491435    0.618139   -0.369022
      7          6           0        1.826213   -0.484480    0.660518
      8          6           0        0.630876   -1.183655   -0.016378
      9          8           0        0.827968   -0.371931   -1.209005
     10          1           0       -1.681126    0.762030   -1.426027
     11          1           0       -2.926659    0.874137   -0.141233
     12          1           0       -0.768107   -1.237689    1.639054
     13          1           0       -1.201879    1.214538    1.559168
     14          1           0        0.153288    2.291922   -0.642476
     15          1           0        0.863636    2.193610    0.965730
     16          1           0        2.316135    1.113653   -0.888027
     17          1           0        2.775837   -0.978223    0.451109
     18          1           0        1.750620   -0.241384    1.723905
     19          1           0        0.662104   -2.254013   -0.235924
 ---------------------------------------------------------------------

 SCF Done:  E(RB3LYP) =  -423.160788595     A.U. after    1 cycles

 The electronic state is 1-A.
 Alpha  occ. eigenvalues --  -19.13141 -19.12597 -10.23811 -10.23283 -10.23037
 Alpha  occ. eigenvalues --  -10.22281 -10.19442 -10.19113 -10.18882  -1.04890
 Alpha  occ. eigenvalues --   -1.02403  -0.79419  -0.75104  -0.72398  -0.68023
 Alpha  occ. eigenvalues --   -0.61577  -0.57602  -0.52660  -0.51220  -0.49495
 Alpha  occ. eigenvalues --   -0.46039  -0.45437  -0.44162  -0.42292  -0.39872
 Alpha  occ. eigenvalues --   -0.38795  -0.38146  -0.35594  -0.33320  -0.31493
 Alpha  occ. eigenvalues --   -0.30568  -0.29030  -0.26260  -0.22861
 Alpha virt. eigenvalues --    0.07759   0.07996   0.10435   0.11203   0.12159
 Alpha virt. eigenvalues --    0.12557   0.13579   0.15110   0.16112   0.16294
 Alpha virt. eigenvalues --    0.17629   0.18394   0.19368   0.20288   0.22984

 Mulliken charges:
               1
     1  C   -0.075518
     2  O   -0.297175
     3  C    0.135414
     4  C   -0.062970
     5  C   -0.249493
     6  C    0.104765
     7  C   -0.260588
     8  C    0.061423
     9  O   -0.295082
    10  H    0.109399
    11  H    0.095052
    12  H    0.072104
    13  H    0.081472
    14  H    0.107763
    15  H    0.099118
    16  H    0.077238
    17  H    0.114197
    18  H    0.098785
    19  H    0.084095
 Sum of Mulliken charges =   0.00000

 Dipole moment (field-independent basis, Debye):
    X=              1.3781    Y=              1.6024    Z=              2.0207  Tot=              2.9241
 Quadrupole moment (field-independent basis, Debye-Ang):
   XX=            -53.2509   YY=            -51.6786   ZZ=            -54.4488
   XY=             -3.1036   XZ=              0.4396   YZ=             -1.8749

  Exact polarizability:  79.625  -1.998  73.604   1.317  -2.625  65.461
 Approx polarizability: 105.981   0.688 108.049   2.585  -2.500 104.471

                      1                      2                      3
                      A                      A                      A
 Frequencies --    140.2874               205.7968               317.0253
 Red. masses --      2.5730                 4.7205                 2.6001
 Frc consts  --      0.0298                 0.1178                 0.1540
 IR Inten    --      3.1069                 0.9334                 0.9798

                      4                      5                      6
                      A                      A                      A
 Frequencies --    366.4844               395.3445               462.0860
 Red. masses --      3.1174                 1.9339                 5.4873
 Frc consts  --      0.2467                 0.1781                 0.6903
 IR Inten    --      1.7916                 0.0706                 9.9440

                      7                      8                      9
                      A                      A                      A
 Frequencies --    551.5867               652.6444               744.2872
 Red. masses --      4.4918                 3.5433                 2.9715
 Frc consts  --      0.8052                 0.8892                 0.9698
 IR Inten    --      4.2858                 1.7745                 2.6321

                     10                     11                     12
                      A                      A                      A
 Frequencies --    815.1571               845.4325               858.7597
 Red. masses --      2.6770                 2.3175                 2.2703
 Frc consts  --      1.0481                 0.9759                 0.9865
 IR Inten    --      7.7967                 3.6541                 0.5085

                     13                     14                     15
                      A                      A                      A
 Frequencies --    876.1613               904.6819               924.3788
 Red. masses --      2.5411                 2.4777                 2.0139
 Frc consts  --      1.1493                 1.1948                 1.0139
 IR Inten    --     20.1269                23.2808                 1.2583

                     16                     17                     18
                      A                      A                      A
 Frequencies --    944.0319               973.2173               974.8372
 Red. masses --      3.3682                 2.5414                 2.7205
 Frc consts  --      1.7685                 1.4182                 1.5232
 IR Inten    --     24.6127                15.7893                22.2122

                     19                     20                     21
                      A                      A                      A
 Frequencies --   1001.8704              1039.8107              1065.3708
 Red. masses --      3.4292                 3.7106                 1.9765
 Frc consts  --      2.0280                 2.3638                 1.3217
 IR Inten    --     14.4097                84.5244                12.2104

                     22                     23                     24
                      A                      A                      A
 Frequencies --   1078.2220              1100.5297              1112.4530
 Red. masses --      1.6609                 2.3732                 2.2107
 Frc consts  --      1.1376                 1.6935                 1.6119
 IR Inten    --      1.6845                11.7506                 0.9201

                     25                     26                     27
                      A                      A                      A
 Frequencies --   1123.5142              1164.9312              1201.0573
 Red. masses --      1.3194                 1.1343                 1.2490
 Frc consts  --      0.9813                 0.9069                 1.0616
 IR Inten    --      0.2676                 0.3106                 4.0025

                     28                     29                     30
                      A                      A                      A
 Frequencies --   1225.2784              1236.7455              1254.7943
 Red. masses --      1.5904                 1.5352                 1.4273
 Frc consts  --      1.4068                 1.3835                 1.3240
 IR Inten    --      2.1301                 5.6565                 2.0060

                     31                     32                     33
                      A                      A                      A
 Frequencies --   1279.2075              1309.3622              1317.5347
 Red. masses --      1.3499                 1.6492                 1.4068
 Frc consts  --      1.3015                 1.6659                 1.4389
 IR Inten    --      2.0295                 5.0960                 2.9450

                     34                     35                     36
                      A                      A                      A
 Frequencies --   1338.9599              1344.2330              1361.3763
 Red. masses --      1.5354                 1.4141                 1.5658
 Frc consts  --      1.6218                 1.5055                 1.7098
 IR Inten    --      3.2222                 1.1710                 3.3276

                     37                     38                     39
                      A                      A                      A
 Frequencies --   1376.7970              1387.5090              1479.6593
 Red. masses --      1.4938                 1.5016                 1.0987
 Frc consts  --      1.6684                 1.7033                 1.4172
 IR Inten    --      4.1923                 0.5904                 3.8298

                     40                     41                     42
                      A                      A                      A
 Frequencies --   1489.7686              1515.6882              3012.1691
 Red. masses --      1.1218                 1.1042                 1.0789
 Frc consts  --      1.4669                 1.4946                 5.7673
 IR Inten    --      3.5411                 0.4812                81.0718

                     43                     44                     45
                      A                      A                      A
 Frequencies --   3020.0555              3030.8143              3063.0910
 Red. masses --      1.0620                 1.0604                 1.0654
 Frc consts  --      5.7070                 5.7393                 5.8894
 IR Inten    --     42.4461                25.9035                17.0465

                     46                     47                     48
                      A                      A                      A
 Frequencies --   3066.6495              3069.6587              3076.0586
 Red. masses --      1.1082                 1.0971                 1.0880
 Frc consts  --      6.1402                 6.0911                 6.0657
 IR Inten    --     18.3338                32.8517                73.4870

                     49                     50                     51
                      A                      A                      A
 Frequencies --   3083.1961              3097.7306              3133.3520
 Red. masses --      1.0901                 1.0902                 1.1060
 Frc consts  --      6.1055                 6.1640                 6.3976
 IR Inten    --     32.3325                41.9537                23.7308

 - Thermochemistry -
 -------------------
 Temperature   298.150 Kelvin.  Pressure   1.00000 Atm.
 Atom     1 has atomic number  6 and mass  12.00000

 Molecular mass:   126.06808 amu.
 Principal axes and moments of inertia in atomic units:
                           1         2         3
     Eigenvalues --   589.327091005.513621199.96031
           X            0.99930  -0.03404   0.01544
           Y            0.03458   0.99875  -0.03611
           Z           -0.01419   0.03662   0.99923
 This molecule is an asymmetric top.
 Rotational symmetry number  1.
 Warning -- assumption of classical behavior for rotation
           may cause significant error
 Rotational temperatures (Kelvin)      0.14697     0.08614     0.07218
 Rotational constants (GHZ):           3.06238     1.79485     1.50400
 Zero-point vibrational energy     427124.5 (Joules/Mol)
                                  102.08522 (Kcal/Mol)
 Warning -- explicit consideration of   7 degrees of freedom as
           vibrations may cause significant error
 Vibrational temperatures:    201.84   296.10   456.13   527.29   568.81
          (Kelvin)            664.84   793.61   939.01  1070.86  1172.83
                             1216.39  1235.56  1260.60  1301.63  1329.97
                             1358.25  1400.24  1402.57  1441.47  1496.05
                             1532.83  1551.32  1583.41  1600.57  1616.48
                             1676.07  1728.05  1762.90  1779.40  1805.37
                             1840.49  1883.88  1895.64  1926.46  1934.05
                             1958.71  1980.90  1996.31  2128.90  2143.44
                             2180.73  4333.83  4345.18  4360.66  4407.10
                             4412.22  4416.55  4425.76  4436.03  4456.94
                             4508.19

 Zero-point correction=                           0.162683 (Hartree/Particle)
 Thermal correction to Energy=                    0.169314
 Thermal correction to Enthalpy=                  0.170259
 Thermal correction to Gibbs Free Energy=         0.131842
 Sum of electronic and zero-point Energies=           -422.998105
 Sum of electronic and thermal Energies=              -422.991474
 Sum of electronic and thermal Enthalpies=            -422.990530
 Sum of electronic and thermal Free Energies=         -423.028946

                     E (Thermal)             CV                S
                      KCal/Mol        Cal/Mol-Kelvin    Cal/Mol-Kelvin
 Total                  106.246             27.404             80.854
 Electronic               0.000              0.000              0.000
 Translational            0.889              2.981             40.409
 Rotational               0.889              2.981             28.055
 Vibrational            104.469             21.443             12.390
 Vibration     1          0.615              1.913              2.800
 Vibration     2          0.640              1.832              2.081
 Vibration     3          0.704              1.641              1.325
 Vibration     4          0.739              1.541              1.094
 Vibration     5          0.762              1.480              0.980
 Vibration     6          0.820              1.334              0.760
 Vibration     7          0.907              1.136              0.541

 Optimization completed.
    -- Stationary point found.
 Normal termination of Gaussian 09 at Mon Jan 27 13:04:12 2020.
