 Gaussian 09, Revision D.01,
 Gaussian 09:  ES64L-G09RevD.01 24-Apr-2013

 -----------------------------
 # b3lyp 6-31G(2df,p) opt Freq
 -----------------------------

 -----
 titel
 -----
 Symbolic Z-matrix:
 Charge =  0 Multiplicity = 1

 SCF Done:  E(RB3LYP) =  -423.191970525     A.U. after   14 cycles
 Optimization completed.
    -- Stationary point found.
 Normal termination of Gaussian 09 at Tue Jan 28 02:21:10 2020.

 ----------------------------------------------------------------------
 #N Geom=AllCheck Guess=TCheck SCRF=Check GenChk RB3LYP/6-31G(2df,p) Fr
 eq
 ----------------------------------------------------------------------

 Structure from the checkpoint file:  "/scratch/puck/g09_97be38f6-a937-4a81-9674-8116b841dfa1/Gau-4990.chk"
 -----
 titel
 -----
 Charge =  0 Multiplicity = 1

                         Standard orientation:
 ---------------------------------------------------------------------
 Center     Atomic      Atomic             Coordinates (Angstroms)
 Number     Number       Type             X           Y           Z
 ---------------------------------------------------------------------
      1          6           0       -2.477875   -0.273667    1.451342
      2          6           0       -1.846235    0.345188    0.224735
      3          6           0       -2.158418   -0.184179   -1.153791
      4          6           0       -0.786833   -0.394026   -0.555601
      5          6           0        0.413717    0.354306   -1.124931
      6          6           0        1.415526    0.659667   -0.033958
      7          8           0        1.577206    1.744462    0.476230
      8          6           0        2.273529   -0.504479    0.484910
      9          8           0        2.210601   -1.625746    0.052911
     10          1           0       -1.873545   -0.092886    2.347197
     11          1           0       -3.476700    0.137661    1.634103
     12          1           0       -2.583002   -1.357636    1.334396
     13          1           0       -1.702778    1.421618    0.285589
     14          1           0       -2.809969   -1.048476   -1.233656
     15          1           0       -2.256612    0.522875   -1.970958
     16          1           0       -0.559709   -1.402475   -0.223131
     17          1           0        0.893405   -0.255472   -1.898645
     18          1           0        0.100652    1.306051   -1.562432
     19          1           0        2.965338   -0.197855    1.298179
 ---------------------------------------------------------------------

 SCF Done:  E(RB3LYP) =  -423.191970525     A.U. after    1 cycles

 The electronic state is 1-A.
 Alpha  occ. eigenvalues --  -19.17226 -19.15872 -10.28885 -10.28479 -10.20196
 Alpha  occ. eigenvalues --  -10.20164 -10.19608 -10.18910 -10.18125  -1.07833
 Alpha  occ. eigenvalues --   -1.06087  -0.87162  -0.76649  -0.71073  -0.67253
 Alpha  occ. eigenvalues --   -0.59260  -0.57554  -0.55061  -0.49235  -0.48330
 Alpha  occ. eigenvalues --   -0.47453  -0.46751  -0.43950  -0.42710  -0.41236
 Alpha  occ. eigenvalues --   -0.40021  -0.39356  -0.38475  -0.35933  -0.35368
 Alpha  occ. eigenvalues --   -0.31763  -0.29513  -0.28074  -0.24574
 Alpha virt. eigenvalues --   -0.09436   0.03111   0.09836   0.10004   0.11594
 Alpha virt. eigenvalues --    0.12750   0.13536   0.13867   0.15646   0.16583
 Alpha virt. eigenvalues --    0.16926   0.17442   0.18520   0.21740   0.23156

 Mulliken charges:
               1
     1  C   -0.408800
     2  C    0.026954
     3  C   -0.300874
     4  C   -0.018309
     5  C   -0.331374
     6  C    0.307994
     7  O   -0.278898
     8  C    0.079494
     9  O   -0.215406
    10  H    0.119658
    11  H    0.120091
    12  H    0.115542
    13  H    0.094654
    14  H    0.113900
    15  H    0.112088
    16  H    0.106085
    17  H    0.129133
    18  H    0.120166
    19  H    0.107902
 Sum of Mulliken charges =   0.00000

 Dipole moment (field-independent basis, Debye):
    X=             -1.0548    Y=             -0.1506    Z=             -0.4494  Tot=              1.1564
 Quadrupole moment (field-independent basis, Debye-Ang):
   XX=            -52.7097   YY=            -60.2769   ZZ=            -51.5271
   XY=              0.8836   XZ=             -0.1663   YZ=             -2.3858

  Exact polarizability:  84.333   0.804  74.297   4.825   3.073  72.293
 Approx polarizability: 106.173   1.391 129.373   7.237  13.614 104.374

                      1                      2                      3
                      A                      A                      A
 Frequencies --     35.3526                57.5259               102.9396
 Red. masses --      5.8167                 3.8334                 3.7981
 Frc consts  --      0.0043                 0.0075                 0.0237
 IR Inten    --      0.0536                 0.1222                 2.0113

                      4                      5                      6
                      A                      A                      A
 Frequencies --    124.9894               203.1896               211.0665
 Red. masses --      3.1188                 2.3102                 1.3858
 Frc consts  --      0.0287                 0.0562                 0.0364
 IR Inten    --     16.6512                 3.8053                 1.1093

                      7                      8                      9
                      A                      A                      A
 Frequencies --    283.8978               292.1082               392.2817
 Red. masses --      2.1873                 3.2394                 2.5495
 Frc consts  --      0.1039                 0.1629                 0.2312
 IR Inten    --      1.7086                 9.2843                 0.3086

                     10                     11                     12
                      A                      A                      A
 Frequencies --    411.6482               479.0491               553.2783
 Red. masses --      2.4001                 4.0118                 3.0465
 Frc consts  --      0.2396                 0.5424                 0.5495
 IR Inten    --      0.3747                30.4186                13.3294

                     13                     14                     15
                      A                      A                      A
 Frequencies --    590.1100               770.9729               802.2107
 Red. masses --      4.7169                 2.5807                 2.1637
 Frc consts  --      0.9678                 0.9038                 0.8204
 IR Inten    --      1.4738                 1.7405                 8.5774

                     16                     17                     18
                      A                      A                      A
 Frequencies --    814.0824               876.0384               892.8947
 Red. masses --      2.7554                 1.2978                 1.6401
 Frc consts  --      1.0759                 0.5868                 0.7704
 IR Inten    --     15.1313                 5.6776                 4.6781

                     19                     20                     21
                      A                      A                      A
 Frequencies --    946.1249               979.6208              1041.0772
 Red. masses --      1.8394                 1.5483                 2.4024
 Frc consts  --      0.9701                 0.8754                 1.5341
 IR Inten    --      4.0764                 2.8053                 1.2405

                     22                     23                     24
                      A                      A                      A
 Frequencies --   1049.4198              1075.8054              1106.6322
 Red. masses --      1.4117                 1.9003                 1.8910
 Frc consts  --      0.9160                 1.2958                 1.3644
 IR Inten    --      5.7622                 1.2815                 3.9453

                     25                     26                     27
                      A                      A                      A
 Frequencies --   1116.9152              1142.7006              1200.7073
 Red. masses --      1.2019                 1.4668                 1.7867
 Frc consts  --      0.8834                 1.1284                 1.5177
 IR Inten    --      2.3404                 0.0590                 1.0828

                     28                     29                     30
                      A                      A                      A
 Frequencies --   1202.0011              1240.6070              1263.7652
 Red. masses --      1.8037                 1.9066                 1.5449
 Frc consts  --      1.5354                 1.7289                 1.4538
 IR Inten    --      0.2215                 2.8019                23.0808

                     31                     32                     33
                      A                      A                      A
 Frequencies --   1304.6502              1350.6577              1362.8868
 Red. masses --      1.6840                 1.2873                 1.2034
 Frc consts  --      1.6889                 1.3837                 1.3170
 IR Inten    --     13.8300                 3.9380                 4.9514

                     34                     35                     36
                      A                      A                      A
 Frequencies --   1416.0121              1434.4725              1461.5601
 Red. masses --      1.2255                 1.6254                 1.1074
 Frc consts  --      1.4477                 1.9706                 1.3937
 IR Inten    --      2.0288                 0.1331                 8.0945

                     37                     38                     39
                      A                      A                      A
 Frequencies --   1492.3602              1493.9116              1505.3710
 Red. masses --      1.0775                 1.2068                 1.1988
 Frc consts  --      1.4139                 1.5868                 1.6006
 IR Inten    --      3.5616                 3.7291                 3.9657

                     40                     41                     42
                      A                      A                      A
 Frequencies --   1801.7124              1821.0295              2920.9118
 Red. masses --     11.3009                11.0071                 1.0879
 Frc consts  --     21.6139                21.5058                 5.4684
 IR Inten    --     87.6745                95.1974               100.2313

                     43                     44                     45
                      A                      A                      A
 Frequencies --   3026.5233              3045.4231              3090.2091
 Red. masses --      1.0351                 1.0585                 1.1013
 Frc consts  --      5.5865                 5.7844                 6.1963
 IR Inten    --     31.7821                 9.8962                25.2622

                     46                     47                     48
                      A                      A                      A
 Frequencies --   3093.6565              3106.6702              3127.0649
 Red. masses --      1.0997                 1.1029                 1.0546
 Frc consts  --      6.2012                 6.2717                 6.0758
 IR Inten    --     18.4354                 4.7160                16.1778

                     49                     50                     51
                      A                      A                      A
 Frequencies --   3136.6566              3158.6639              3211.8601
 Red. masses --      1.0891                 1.0881                 1.1159
 Frc consts  --      6.3130                 6.3965                 6.7822
 IR Inten    --     11.3299                 7.9700                10.8524

 - Thermochemistry -
 -------------------
 Temperature   298.150 Kelvin.  Pressure   1.00000 Atm.
 Atom     1 has atomic number  6 and mass  12.00000

 Molecular mass:   126.06808 amu.
 Principal axes and moments of inertia in atomic units:
                           1         2         3
     Eigenvalues --   732.192351863.548761950.58404
           X            0.99990   0.00714  -0.01235
           Y           -0.00845   0.99400  -0.10905
           Z            0.01150   0.10914   0.99396
 This molecule is an asymmetric top.
 Rotational symmetry number  1.
 Warning -- assumption of classical behavior for rotation
           may cause significant error
 Rotational temperatures (Kelvin)      0.11829     0.04648     0.04440
 Rotational constants (GHZ):           2.46485     0.96844     0.92523
 Zero-point vibrational energy     410446.4 (Joules/Mol)
                                   98.09904 (Kcal/Mol)
 Warning -- explicit consideration of  13 degrees of freedom as
           vibrations may cause significant error
 Vibrational temperatures:     50.86    82.77   148.11   179.83   292.34
          (Kelvin)            303.68   408.47   420.28   564.41   592.27
                              689.24   796.04   849.04  1109.26  1154.20
                             1171.28  1260.42  1284.67  1361.26  1409.45
                             1497.88  1509.88  1547.84  1592.19  1606.99
                             1644.09  1727.55  1729.41  1784.95  1818.27
                             1877.10  1943.29  1960.89  2037.32  2063.88
                             2102.86  2147.17  2149.40  2165.89  2592.26
                             2620.05  4202.54  4354.49  4381.68  4446.12
                             4451.08  4469.80  4499.14  4512.94  4544.61
                             4621.14

 Zero-point correction=                           0.156331 (Hartree/Particle)
 Thermal correction to Energy=                    0.166167
 Thermal correction to Enthalpy=                  0.167111
 Thermal correction to Gibbs Free Energy=         0.120154
 Sum of electronic and zero-point Energies=           -423.035640
 Sum of electronic and thermal Energies=              -423.025804
 Sum of electronic and thermal Enthalpies=            -423.024859
 Sum of electronic and thermal Free Energies=         -423.071817

                     E (Thermal)             CV                S
                      KCal/Mol        Cal/Mol-Kelvin    Cal/Mol-Kelvin
 Total                  104.271             34.566             98.830
 Electronic               0.000              0.000              0.000
 Translational            0.889              2.981             40.409
 Rotational               0.889              2.981             29.366
 Vibrational            102.494             28.605             29.055
 Vibration     1          0.594              1.982              5.504
 Vibration     2          0.596              1.974              4.540
 Vibration     3          0.605              1.947              3.398
 Vibration     4          0.610              1.928              3.022
 Vibration     5          0.639              1.835              2.104
 Vibration     6          0.643              1.824              2.034
 Vibration     7          0.682              1.704              1.510
 Vibration     8          0.687              1.688              1.462
 Vibration     9          0.760              1.487              0.991
 Vibration    10          0.776              1.445              0.921
 Vibration    11          0.835              1.297              0.713
 Vibration    12          0.909              1.133              0.537
 Vibration    13          0.947              1.053              0.467

 Optimization completed.
    -- Stationary point found.
 Normal termination of Gaussian 09 at Tue Jan 28 02:58:25 2020.
