 Gaussian 09, Revision D.01,
 Gaussian 09:  ES64L-G09RevD.01 24-Apr-2013

 -----------------------------
 # b3lyp 6-31G(2df,p) opt Freq
 -----------------------------

 -----
 titel
 -----
 Symbolic Z-matrix:
 Charge =  0 Multiplicity = 1

 SCF Done:  E(RB3LYP) =  -423.175969372     A.U. after   14 cycles
 Optimization completed.
    -- Stationary point found.
 Normal termination of Gaussian 09 at Tue Jan 28 12:40:33 2020.

 ----------------------------------------------------------------------
 #N Geom=AllCheck Guess=TCheck SCRF=Check GenChk RB3LYP/6-31G(2df,p) Fr
 eq
 ----------------------------------------------------------------------

 Structure from the checkpoint file:  "/scratch/puck/g09_5124493a-b3ad-4fb1-9d4d-31a7fcfa4f9c/Gau-30067.chk"
 -----
 titel
 -----
 Charge =  0 Multiplicity = 1

                         Standard orientation:
 ---------------------------------------------------------------------
 Center     Atomic      Atomic             Coordinates (Angstroms)
 Number     Number       Type             X           Y           Z
 ---------------------------------------------------------------------
      1          6           0        0.270731    2.020000   -0.337522
      2          6           0       -0.379230    0.713866    0.021077
      3          8           0       -1.472939    0.789664    0.975548
      4          6           0       -1.749363    0.299776   -0.339137
      5          6           0       -1.794224   -1.219787   -0.438749
      6          6           0       -0.389484   -1.619192   -0.040745
      7          6           0        0.403153   -0.566683    0.193098
      8          6           0        1.849101   -0.607562    0.582783
      9          8           0        2.698018   -0.047231   -0.420846
     10          1           0       -0.489620    2.790120   -0.488894
     11          1           0        0.939683    2.353436    0.462651
     12          1           0        0.874781    1.920052   -1.242923
     13          1           0       -2.417431    0.916728   -0.935521
     14          1           0       -2.552589   -1.648835    0.227528
     15          1           0       -2.042218   -1.547333   -1.456886
     16          1           0       -0.091210   -2.655617    0.083026
     17          1           0        2.029677   -0.002252    1.478189
     18          1           0        2.141090   -1.641293    0.819984
     19          1           0        2.543100   -0.546991   -1.229598
 ---------------------------------------------------------------------

 SCF Done:  E(RB3LYP) =  -423.175969372     A.U. after    1 cycles

 The electronic state is 1-A.
 Alpha  occ. eigenvalues --  -19.13954 -19.13943 -10.23654 -10.23324 -10.22992
 Alpha  occ. eigenvalues --  -10.19291 -10.19037 -10.18720 -10.17710  -1.06134
 Alpha  occ. eigenvalues --   -1.01801  -0.82426  -0.75210  -0.72354  -0.66116
 Alpha  occ. eigenvalues --   -0.63436  -0.57481  -0.53477  -0.50782  -0.48675
 Alpha  occ. eigenvalues --   -0.44870  -0.43902  -0.42468  -0.42074  -0.41029
 Alpha  occ. eigenvalues --   -0.39423  -0.38211  -0.36521  -0.35456  -0.32946
 Alpha  occ. eigenvalues --   -0.29892  -0.27469  -0.25525  -0.24203
 Alpha virt. eigenvalues --   -0.00154   0.07979   0.11275   0.11334   0.11954
 Alpha virt. eigenvalues --    0.12968   0.14077   0.14643   0.15845   0.16816
 Alpha virt. eigenvalues --    0.17478   0.18405   0.18941   0.22047   0.22235

 Mulliken charges:
               1
     1  C   -0.482752
     2  C    0.311758
     3  O   -0.299604
     4  C   -0.019134
     5  C   -0.292162
     6  C   -0.188112
     7  C    0.269074
     8  C   -0.189496
     9  O   -0.410849
    10  H    0.122541
    11  H    0.131510
    12  H    0.126698
    13  H    0.090452
    14  H    0.126244
    15  H    0.111143
    16  H    0.096585
    17  H    0.120400
    18  H    0.095537
    19  H    0.280165
 Sum of Mulliken charges =   0.00000

 Dipole moment (field-independent basis, Debye):
    X=             -0.3196    Y=             -1.5771    Z=             -1.8849  Tot=              2.4784
 Quadrupole moment (field-independent basis, Debye-Ang):
   XX=            -56.6267   YY=            -50.2408   ZZ=            -52.5290
   XY=             -0.6830   XZ=              2.7902   YZ=             -0.4146

  Exact polarizability:  88.394   7.115  82.564   5.205   1.059  60.064
 Approx polarizability: 125.553  15.754 120.503   5.270   7.010  98.017

                      1                      2                      3
                      A                      A                      A
 Frequencies --     71.6939               143.7479               173.3346
 Red. masses --      3.2304                 3.7009                 1.1717
 Frc consts  --      0.0098                 0.0451                 0.0207
 IR Inten    --      1.5200                 2.5993                 0.1845

                      4                      5                      6
                      A                      A                      A
 Frequencies --    228.8409               249.4248               299.7782
 Red. masses --      2.5487                 2.0775                 2.9790
 Frc consts  --      0.0786                 0.0762                 0.1577
 IR Inten    --      1.7779                 4.3118                 0.3361

                      7                      8                      9
                      A                      A                      A
 Frequencies --    326.1918               363.7606               413.3814
 Red. masses --      2.1289                 1.4717                 2.2706
 Frc consts  --      0.1335                 0.1147                 0.2286
 IR Inten    --     23.9947                85.4525                24.0896

                     10                     11                     12
                      A                      A                      A
 Frequencies --    462.1313               595.7745               635.5704
 Red. masses --      3.5484                 3.9650                 4.2405
 Frc consts  --      0.4465                 0.8292                 1.0092
 IR Inten    --      6.9275                 4.5569                 2.1093

                     13                     14                     15
                      A                      A                      A
 Frequencies --    676.4737               767.4840               808.1246
 Red. masses --      5.6374                 3.9379                 3.4228
 Frc consts  --      1.5200                 1.3667                 1.3170
 IR Inten    --     10.3726                12.4652                 5.0193

                     16                     17                     18
                      A                      A                      A
 Frequencies --    819.7776               870.9499               924.0591
 Red. masses --      1.6644                 2.1203                 2.1747
 Frc consts  --      0.6590                 0.9476                 1.0941
 IR Inten    --      0.6327                33.5499                 1.4239

                     19                     20                     21
                      A                      A                      A
 Frequencies --    940.3871               979.2242               998.6318
 Red. masses --      1.9480                 1.5939                 1.6716
 Frc consts  --      1.0150                 0.9005                 0.9822
 IR Inten    --     10.2787                29.8390                26.1597

                     22                     23                     24
                      A                      A                      A
 Frequencies --   1035.3427              1042.5772              1067.9541
 Red. masses --      2.6690                 2.2653                 2.2662
 Frc consts  --      1.6856                 1.4508                 1.5228
 IR Inten    --     17.1659                19.5244                15.4032

                     25                     26                     27
                      A                      A                      A
 Frequencies --   1110.3430              1149.8061              1185.2506
 Red. masses --      1.7023                 2.9413                 1.2534
 Frc consts  --      1.2365                 2.2911                 1.0375
 IR Inten    --     14.9322                19.9098                 4.7243

                     28                     29                     30
                      A                      A                      A
 Frequencies --   1195.0654              1240.5193              1297.9623
 Red. masses --      1.1121                 1.7062                 1.5207
 Frc consts  --      0.9358                 1.5470                 1.5094
 IR Inten    --      6.9092                 3.6247                 7.1373

                     31                     32                     33
                      A                      A                      A
 Frequencies --   1313.5753              1346.7030              1373.0973
 Red. masses --      1.7414                 2.2404                 1.4425
 Frc consts  --      1.7703                 2.3940                 1.6024
 IR Inten    --      0.9378                10.4817                 2.7894

                     34                     35                     36
                      A                      A                      A
 Frequencies --   1411.6978              1416.9526              1438.8906
 Red. masses --      1.3311                 1.2617                 2.8410
 Frc consts  --      1.5630                 1.4925                 3.4656
 IR Inten    --      9.8597                56.8846                12.2329

                     37                     38                     39
                      A                      A                      A
 Frequencies --   1458.6860              1477.2489              1491.0245
 Red. masses --      1.1015                 1.1262                 1.0729
 Frc consts  --      1.3808                 1.4480                 1.4053
 IR Inten    --      6.0221                 6.8225                 3.4076

                     40                     41                     42
                      A                      A                      A
 Frequencies --   1502.7029              1696.3895              2994.6468
 Red. masses --      1.0877                 7.6592                 1.0672
 Frc consts  --      1.4471                12.9864                 5.6387
 IR Inten    --      2.4223                 6.3660                57.5793

                     43                     44                     45
                      A                      A                      A
 Frequencies --   3024.6407              3045.0232              3060.5950
 Red. masses --      1.0615                 1.0362                 1.0996
 Frc consts  --      5.7213                 5.6608                 6.0684
 IR Inten    --     29.8076                15.1697                12.9687

                     46                     47                     48
                      A                      A                      A
 Frequencies --   3064.5033              3109.0824              3131.5071
 Red. masses --      1.0952                 1.0989                 1.1026
 Frc consts  --      6.0598                 6.2586                 6.3704
 IR Inten    --     22.3584                14.2179                13.4870

                     49                     50                     51
                      A                      A                      A
 Frequencies --   3140.2227              3181.4361              3807.4868
 Red. masses --      1.0910                 1.0934                 1.0662
 Frc consts  --      6.3387                 6.5204                 9.1067
 IR Inten    --     31.2643                15.2867                15.4483

 - Thermochemistry -
 -------------------
 Temperature   298.150 Kelvin.  Pressure   1.00000 Atm.
 Atom     1 has atomic number  6 and mass  12.00000

 Molecular mass:   126.06808 amu.
 Principal axes and moments of inertia in atomic units:
                           1         2         3
     Eigenvalues --   692.668261231.575381660.38620
           X            0.99957   0.02053   0.02114
           Y           -0.02010   0.99959  -0.02039
           Z           -0.02155   0.01995   0.99957
 This molecule is an asymmetric top.
 Rotational symmetry number  1.
 Warning -- assumption of classical behavior for rotation
           may cause significant error
 Rotational temperatures (Kelvin)      0.12504     0.07033     0.05216
 Rotational constants (GHZ):           2.60549     1.46539     1.08694
 Zero-point vibrational energy     416059.3 (Joules/Mol)
                                   99.44055 (Kcal/Mol)
 Warning -- explicit consideration of  11 degrees of freedom as
           vibrations may cause significant error
 Vibrational temperatures:    103.15   206.82   249.39   329.25   358.87
          (Kelvin)            431.31   469.32   523.37   594.76   664.90
                              857.19   914.44   973.29  1104.24  1162.71
                             1179.48  1253.10  1329.51  1353.01  1408.88
                             1436.81  1489.63  1500.03  1536.55  1597.53
                             1654.31  1705.31  1719.43  1784.83  1867.48
                             1889.94  1937.60  1975.58  2031.12  2038.68
                             2070.24  2098.72  2125.43  2145.25  2162.05
                             2440.72  4308.62  4351.78  4381.10  4403.51
                             4409.13  4473.27  4505.53  4518.07  4577.37
                             5478.12

 Zero-point correction=                           0.158469 (Hartree/Particle)
 Thermal correction to Energy=                    0.167224
 Thermal correction to Enthalpy=                  0.168168
 Thermal correction to Gibbs Free Energy=         0.125130
 Sum of electronic and zero-point Energies=           -423.017501
 Sum of electronic and thermal Energies=              -423.008746
 Sum of electronic and thermal Enthalpies=            -423.007802
 Sum of electronic and thermal Free Energies=         -423.050840

                     E (Thermal)             CV                S
                      KCal/Mol        Cal/Mol-Kelvin    Cal/Mol-Kelvin
 Total                  104.934             33.245             90.582
 Electronic               0.000              0.000              0.000
 Translational            0.889              2.981             40.409
 Rotational               0.889              2.981             28.740
 Vibrational            103.157             27.283             21.433
 Vibration     1          0.598              1.968              4.106
 Vibration     2          0.616              1.909              2.753
 Vibration     3          0.627              1.875              2.399
 Vibration     4          0.652              1.797              1.888
 Vibration     5          0.662              1.764              1.735
 Vibration     6          0.692              1.674              1.418
 Vibration     7          0.710              1.623              1.279
 Vibration     8          0.737              1.547              1.106
 Vibration     9          0.777              1.441              0.915
 Vibration    10          0.820              1.334              0.760
 Vibration    11          0.954              1.041              0.457

 Optimization completed.
    -- Stationary point found.
 Normal termination of Gaussian 09 at Tue Jan 28 13:23:21 2020.
