 Gaussian 09, Revision D.01,
 Gaussian 09:  ES64L-G09RevD.01 24-Apr-2013

 -----------------------------
 # b3lyp 6-31G(2df,p) opt Freq
 -----------------------------

 -----
 titel
 -----
 Symbolic Z-matrix:
 Charge =  0 Multiplicity = 1

 SCF Done:  E(RB3LYP) =  -423.137417732     A.U. after   14 cycles
 SCF Done:  E(RB3LYP) =  -423.137417571     A.U. after    8 cycles
 SCF Done:  E(RB3LYP) =  -423.137418201     A.U. after    8 cycles
 SCF Done:  E(RB3LYP) =  -423.137418191     A.U. after    7 cycles
 SCF Done:  E(RB3LYP) =  -423.137418257     A.U. after    7 cycles
 Optimization completed.
    -- Stationary point found.
 Normal termination of Gaussian 09 at Tue Jan 28 09:08:20 2020.

 ----------------------------------------------------------------------
 #N Geom=AllCheck Guess=TCheck SCRF=Check GenChk RB3LYP/6-31G(2df,p) Fr
 eq
 ----------------------------------------------------------------------

 Structure from the checkpoint file:  "/scratch/puck/g09_1109fb9b-25ef-424f-b195-5864d2c43c1b/Gau-103817.chk"
 -----
 titel
 -----
 Charge =  0 Multiplicity = 1

                         Standard orientation:
 ---------------------------------------------------------------------
 Center     Atomic      Atomic             Coordinates (Angstroms)
 Number     Number       Type             X           Y           Z
 ---------------------------------------------------------------------
      1          6           0        4.077196   -0.464700   -0.068976
      2          6           0        2.708292    0.021730   -0.155430
      3          6           0        1.570907    0.412190   -0.221299
      4          6           0        0.223616    0.889844   -0.328209
      5          6           0       -0.607241    1.188092    0.926243
      6          6           0       -0.947521    0.010846    0.043288
      7          8           0       -0.641951   -1.266973    0.506232
      8          6           0       -2.202152    0.038793   -0.797988
      9          8           0       -3.294961   -0.515894   -0.066979
     10          1           0        4.638252    0.048387    0.720411
     11          1           0        4.102848   -1.538045    0.150169
     12          1           0        4.614861   -0.307647   -1.010894
     13          1           0        0.043498    1.558533   -1.167260
     14          1           0       -0.136614    0.956108    1.873798
     15          1           0       -1.229775    2.077500    0.914725
     16          1           0       -1.487404   -1.647797    0.779382
     17          1           0       -2.419734    1.057516   -1.148288
     18          1           0       -2.078486   -0.608068   -1.672184
     19          1           0       -3.490732    0.085681    0.660335
 ---------------------------------------------------------------------

 SCF Done:  E(RB3LYP) =  -423.137418257     A.U. after    1 cycles

 The electronic state is 1-A.
 Alpha  occ. eigenvalues --  -19.15262 -19.13809 -10.24448 -10.23698 -10.21044
 Alpha  occ. eigenvalues --  -10.19601 -10.18928 -10.16434 -10.16091  -1.04291
 Alpha  occ. eigenvalues --   -1.01691  -0.85920  -0.76475  -0.71365  -0.69017
 Alpha  occ. eigenvalues --   -0.61867  -0.58470  -0.54110  -0.49880  -0.49154
 Alpha  occ. eigenvalues --   -0.46779  -0.44360  -0.44204  -0.41820  -0.41788
 Alpha  occ. eigenvalues --   -0.39432  -0.37460  -0.35716  -0.33900  -0.32626
 Alpha  occ. eigenvalues --   -0.29086  -0.26220  -0.23354  -0.22693
 Alpha virt. eigenvalues --    0.04888   0.05726   0.07111   0.10493   0.11722
 Alpha virt. eigenvalues --    0.12145   0.13262   0.14444   0.15683   0.16646
 Alpha virt. eigenvalues --    0.17403   0.18858   0.19413   0.21893   0.22908

 Mulliken charges:
               1
     1  C   -0.499503
     2  C    0.097202
     3  C    0.090150
     4  C   -0.291560
     5  C   -0.362576
     6  C    0.410682
     7  O   -0.463198
     8  C   -0.137204
     9  O   -0.421522
    10  H    0.143816
    11  H    0.149579
    12  H    0.145085
    13  H    0.107712
    14  H    0.130646
    15  H    0.106269
    16  H    0.286314
    17  H    0.093023
    18  H    0.126546
    19  H    0.288537
 Sum of Mulliken charges =   0.00000

 Dipole moment (field-independent basis, Debye):
    X=             -0.7011    Y=              1.4150    Z=              0.4764  Tot=              1.6494
 Quadrupole moment (field-independent basis, Debye-Ang):
   XX=            -47.0398   YY=            -53.0238   ZZ=            -50.9805
   XY=             -4.9893   XZ=             -2.7900   YZ=             -0.5824

  Exact polarizability: 118.324  -8.770  67.656  -1.566   0.533  63.344
 Approx polarizability: 157.996 -16.337 102.494  -2.841  -0.028  93.586

 ******    1 imaginary frequencies (negative Signs) ******

                      1                      2                      3
                      A                      A                      A
 Frequencies --     -4.3257                66.3191                79.5224
 Red. masses --      1.0267                 4.7542                 4.4066
 Frc consts  --      0.0000                 0.0123                 0.0164
 IR Inten    --      0.0463                 3.3516                 2.0318

                      4                      5                      6
                      A                      A                      A
 Frequencies --    126.0423               192.8915               242.9082
 Red. masses --      3.0544                 3.9982                 4.2382
 Frc consts  --      0.0286                 0.0876                 0.1473
 IR Inten    --      5.4172                 5.9255                 3.8266

                      7                      8                      9
                      A                      A                      A
 Frequencies --    289.4059               311.6660               349.7010
 Red. masses --      3.3268                 2.1998                 2.4087
 Frc consts  --      0.1642                 0.1259                 0.1736
 IR Inten    --      1.6467                13.0885                23.5865

                     10                     11                     12
                      A                      A                      A
 Frequencies --    382.0358               416.5310               428.6113
 Red. masses --      1.6898                 5.0142                 2.1212
 Frc consts  --      0.1453                 0.5126                 0.2296
 IR Inten    --     37.5409                 1.5244                 6.3676

                     13                     14                     15
                      A                      A                      A
 Frequencies --    486.6509               515.3244               654.3752
 Red. masses --      1.3585                 3.6847                 3.8111
 Frc consts  --      0.1896                 0.5765                 0.9615
 IR Inten    --    139.3740                21.4796                18.5881

                     16                     17                     18
                      A                      A                      A
 Frequencies --    697.2521               776.0657               881.4112
 Red. masses --      2.6559                 3.6254                 2.6626
 Frc consts  --      0.7608                 1.2865                 1.2188
 IR Inten    --      3.3505                 9.0003                28.9173

                     19                     20                     21
                      A                      A                      A
 Frequencies --    907.5176               935.3067               981.0069
 Red. masses --      1.9445                 1.7316                 2.1311
 Frc consts  --      0.9436                 0.8925                 1.2084
 IR Inten    --      7.3618                 2.7156                19.1460

                     22                     23                     24
                      A                      A                      A
 Frequencies --   1013.2399              1042.7899              1051.8588
 Red. masses --      2.1435                 2.1569                 1.4051
 Frc consts  --      1.2966                 1.3819                 0.9159
 IR Inten    --     29.3579                26.9342                 1.9528

                     25                     26                     27
                      A                      A                      A
 Frequencies --   1053.2190              1054.8308              1109.7758
 Red. masses --      1.6324                 1.7076                 1.3960
 Frc consts  --      1.0669                 1.1194                 1.0130
 IR Inten    --     13.5568                30.1836                 9.4283

                     28                     29                     30
                      A                      A                      A
 Frequencies --   1177.4477              1214.7225              1234.3741
 Red. masses --      1.4769                 1.8184                 1.7722
 Frc consts  --      1.2064                 1.5809                 1.5909
 IR Inten    --     37.3948                12.8990                24.2278

                     31                     32                     33
                      A                      A                      A
 Frequencies --   1300.9376              1345.6029              1378.4110
 Red. masses --      2.2212                 1.5311                 1.4122
 Frc consts  --      2.2149                 1.6334                 1.5809
 IR Inten    --     98.4259                22.6531                 4.5787

                     34                     35                     36
                      A                      A                      A
 Frequencies --   1410.2369              1415.2426              1433.1896
 Red. masses --      1.2254                 1.2647                 1.2947
 Frc consts  --      1.4358                 1.4924                 1.5668
 IR Inten    --     68.1340                 6.4813                12.9302

                     37                     38                     39
                      A                      A                      A
 Frequencies --   1477.4733              1479.3320              1492.7702
 Red. masses --      1.0399                 1.0402                 1.1196
 Frc consts  --      1.3375                 1.3412                 1.4700
 IR Inten    --      5.1803                 4.8087                 1.3508

                     40                     41                     42
                      A                      A                      A
 Frequencies --   1496.5976              2373.8963              3008.1938
 Red. masses --      1.9953                11.8337                 1.0661
 Frc consts  --      2.6330                39.2909                 5.6839
 IR Inten    --     11.0046                 0.8183                40.6740

                     43                     44                     45
                      A                      A                      A
 Frequencies --   3023.6900              3082.0388              3085.0088
 Red. masses --      1.0347                 1.1001                 1.1000
 Frc consts  --      5.5739                 6.1568                 6.1683
 IR Inten    --     41.1131                12.3231                10.9774

                     46                     47                     48
                      A                      A                      A
 Frequencies --   3087.5793              3122.3765              3128.2454
 Red. masses --      1.0980                 1.0819                 1.0597
 Frc consts  --      6.1669                 6.2146                 6.1102
 IR Inten    --     22.9634                 9.1870                15.3030

                     49                     50                     51
                      A                      A                      A
 Frequencies --   3233.1204              3760.8341              3799.1635
 Red. masses --      1.1154                 1.0650                 1.0660
 Frc consts  --      6.8697                 8.8753                 9.0651
 IR Inten    --      5.1899                51.0674                17.9195

 - Thermochemistry -
 -------------------
 Temperature   298.150 Kelvin.  Pressure   1.00000 Atm.
 Atom     1 has atomic number  6 and mass  12.00000

 Molecular mass:   126.06808 amu.
 Principal axes and moments of inertia in atomic units:
                           1         2         3
     Eigenvalues --   400.648322480.970992618.23246
           X            0.99988  -0.01572   0.00083
           Y            0.01571   0.99978   0.01422
           Z           -0.00106  -0.01421   0.99990
 This molecule is an asymmetric top.
 Rotational symmetry number  1.
 Rotational temperatures (Kelvin)      0.21618     0.03491     0.03308
 Rotational constants (GHZ):           4.50455     0.72743     0.68930
    1 imaginary frequencies ignored.
 Zero-point vibrational energy     410359.5 (Joules/Mol)
                                   98.07826 (Kcal/Mol)
 Warning -- explicit consideration of  13 degrees of freedom as
           vibrations may cause significant error
 Vibrational temperatures:     95.42   114.41   181.35   277.53   349.49
          (Kelvin)            416.39   448.42   503.14   549.66   599.29
                              616.68   700.18   741.44   941.50  1003.19
                             1116.58  1268.15  1305.71  1345.70  1411.45
                             1457.82  1500.34  1513.39  1515.35  1517.66
                             1596.72  1694.08  1747.71  1775.99  1871.76
                             1936.02  1983.22  2029.01  2036.22  2062.04
                             2125.75  2128.43  2147.76  2153.27  3415.50
                             4328.11  4350.41  4434.36  4438.63  4442.33
                             4492.40  4500.84  4651.73  5410.99  5466.14

 Zero-point correction=                           0.156298 (Hartree/Particle)
 Thermal correction to Energy=                    0.165840
 Thermal correction to Enthalpy=                  0.166784
 Thermal correction to Gibbs Free Energy=         0.121568
 Sum of electronic and zero-point Energies=           -422.981121
 Sum of electronic and thermal Energies=              -422.971578
 Sum of electronic and thermal Enthalpies=            -422.970634
 Sum of electronic and thermal Free Energies=         -423.015850

                     E (Thermal)             CV                S
                      KCal/Mol        Cal/Mol-Kelvin    Cal/Mol-Kelvin
 Total                  104.066             35.063             95.165
 Electronic               0.000              0.000              0.000
 Translational            0.889              2.981             40.409
 Rotational               0.889              2.981             29.344
 Vibrational            102.289             29.102             25.412
 Vibration     1          0.598              1.970              4.260
 Vibration     2          0.600              1.963              3.903
 Vibration     3          0.611              1.927              3.006
 Vibration     4          0.635              1.850              2.200
 Vibration     5          0.659              1.774              1.781
 Vibration     6          0.686              1.693              1.477
 Vibration     7          0.700              1.651              1.353
 Vibration     8          0.727              1.576              1.168
 Vibration     9          0.752              1.508              1.031
 Vibration    10          0.780              1.434              0.904
 Vibration    11          0.790              1.408              0.863
 Vibration    12          0.843              1.280              0.692
 Vibration    13          0.870              1.216              0.621

 Normal termination of Gaussian 09 at Tue Jan 28 09:43:19 2020.
