 Gaussian 09, Revision D.01,
 Gaussian 09:  ES64L-G09RevD.01 24-Apr-2013

 -----------------------------
 # b3lyp 6-31G(2df,p) opt Freq
 -----------------------------

 -----
 titel
 -----
 Symbolic Z-matrix:
 Charge =  0 Multiplicity = 1

 SCF Done:  E(RB3LYP) =  -423.156796989     A.U. after   14 cycles
 Optimization completed.
    -- Stationary point found.
 Normal termination of Gaussian 09 at Mon Jan 27 15:57:41 2020.

 ----------------------------------------------------------------------
 #N Geom=AllCheck Guess=TCheck SCRF=Check GenChk RB3LYP/6-31G(2df,p) Fr
 eq
 ----------------------------------------------------------------------

 Structure from the checkpoint file:  "/scratch/puck/g09_bd761067-f35e-40db-b1a3-cb541b41127e/Gau-10411.chk"
 -----
 titel
 -----
 Charge =  0 Multiplicity = 1

                         Standard orientation:
 ---------------------------------------------------------------------
 Center     Atomic      Atomic             Coordinates (Angstroms)
 Number     Number       Type             X           Y           Z
 ---------------------------------------------------------------------
      1          6           0       -2.281202   -1.624621   -0.128923
      2          6           0       -1.517247   -0.354255   -0.502664
      3          8           0       -0.159361   -0.561670   -0.129773
      4          6           0        0.728388    0.445106   -0.565221
      5          6           0        2.145041    0.180288   -0.056321
      6          6           0        2.307968   -0.828970    1.056888
      7          8           0        3.067918    0.795142   -0.536569
      8          6           0       -2.086384    0.836827    0.143221
      9          6           0       -2.549517    1.808544    0.678321
     10          1           0       -3.329462   -1.537515   -0.423964
     11          1           0       -1.834234   -2.482005   -0.638020
     12          1           0       -2.231486   -1.787006    0.950321
     13          1           0       -1.570015   -0.210124   -1.595018
     14          1           0        0.762423    0.512143   -1.663075
     15          1           0        0.421918    1.433731   -0.187516
     16          1           0        1.947884   -1.808537    0.727152
     17          1           0        3.357228   -0.884863    1.347949
     18          1           0        1.686420   -0.549559    1.914210
     19          1           0       -2.961416    2.668452    1.146892
 ---------------------------------------------------------------------

 SCF Done:  E(RB3LYP) =  -423.156796989     A.U. after    1 cycles

 The electronic state is 1-A.
 Alpha  occ. eigenvalues --  -19.15882 -19.12676 -10.27079 -10.26938 -10.23750
 Alpha  occ. eigenvalues --  -10.19135 -10.19026 -10.18741 -10.18346  -1.05495
 Alpha  occ. eigenvalues --   -1.03668  -0.80717  -0.75237  -0.73573  -0.69518
 Alpha  occ. eigenvalues --   -0.64280  -0.54596  -0.53798  -0.51496  -0.50415
 Alpha  occ. eigenvalues --   -0.47308  -0.46088  -0.42198  -0.41908  -0.41205
 Alpha  occ. eigenvalues --   -0.39759  -0.38435  -0.37824  -0.35358  -0.34337
 Alpha  occ. eigenvalues --   -0.28715  -0.27835  -0.27593  -0.24468
 Alpha virt. eigenvalues --   -0.01166   0.02868   0.04174   0.09578   0.11642
 Alpha virt. eigenvalues --    0.12206   0.12607   0.13961   0.15635   0.16079
 Alpha virt. eigenvalues --    0.16268   0.17121   0.18276   0.19398   0.21006

 Mulliken charges:
               1
     1  C   -0.396934
     2  C   -0.021107
     3  O   -0.247734
     4  C   -0.163194
     5  C    0.353819
     6  C   -0.467731
     7  O   -0.297031
     8  C    0.342835
     9  C   -0.488706
    10  H    0.130985
    11  H    0.127282
    12  H    0.137815
    13  H    0.100086
    14  H    0.119386
    15  H    0.132896
    16  H    0.150537
    17  H    0.135379
    18  H    0.145475
    19  H    0.205940
 Sum of Mulliken charges =   0.00000

 Dipole moment (field-independent basis, Debye):
    X=             -2.6916    Y=             -0.8375    Z=              0.5277  Tot=              2.8678
 Quadrupole moment (field-independent basis, Debye-Ang):
   XX=            -60.0479   YY=            -50.5277   ZZ=            -51.4921
   XY=             -5.1205   XZ=              3.1703   YZ=              2.6540

  Exact polarizability:  89.263  -4.332  81.192  -4.004   3.138  65.623
 Approx polarizability: 115.297  -7.425 124.095 -11.813   9.070 100.248

                      1                      2                      3
                      A                      A                      A
 Frequencies --     22.4400                53.1808               117.4753
 Red. masses --      3.6324                 4.2502                 2.5740
 Frc consts  --      0.0011                 0.0071                 0.0209
 IR Inten    --      2.8623                 1.4519                 4.8641

                      4                      5                      6
                      A                      A                      A
 Frequencies --    121.1327               143.2984               182.1715
 Red. masses --      3.4901                 1.0863                 3.3827
 Frc consts  --      0.0302                 0.0131                 0.0661
 IR Inten    --      2.0941                 0.0608                 2.4194

                      7                      8                      9
                      A                      A                      A
 Frequencies --    214.7049               259.1816               288.7678
 Red. masses --      1.4131                 2.0473                 3.2533
 Frc consts  --      0.0384                 0.0810                 0.1598
 IR Inten    --      0.3023                 2.2422                 5.5085

                     10                     11                     12
                      A                      A                      A
 Frequencies --    351.4929               451.3016               504.2651
 Red. masses --      4.7194                 2.8450                 2.7370
 Frc consts  --      0.3435                 0.3414                 0.4101
 IR Inten    --      1.8877                 1.0771                 3.1700

                     13                     14                     15
                      A                      A                      A
 Frequencies --    515.6358               568.3717               605.9786
 Red. masses --      3.7563                 3.6789                 5.3221
 Frc consts  --      0.5884                 0.7002                 1.1515
 IR Inten    --     14.0429                 9.0245                 3.5380

                     16                     17                     18
                      A                      A                      A
 Frequencies --    634.4512               682.4962               790.1904
 Red. masses --      1.2341                 1.2525                 3.4352
 Frc consts  --      0.2927                 0.3437                 1.2638
 IR Inten    --     42.3463                34.5314                 3.1029

                     19                     20                     21
                      A                      A                      A
 Frequencies --    817.8807               870.1277               919.3179
 Red. masses --      2.5618                 1.3414                 2.2232
 Frc consts  --      1.0097                 0.5984                 1.1070
 IR Inten    --      4.0271                 2.8787                25.2610

                     22                     23                     24
                      A                      A                      A
 Frequencies --    998.2890              1050.6214              1095.0313
 Red. masses --      1.7267                 2.7337                 2.0658
 Frc consts  --      1.0139                 1.7778                 1.4594
 IR Inten    --      2.6586                12.1627                 2.7256

                     25                     26                     27
                      A                      A                      A
 Frequencies --   1103.0578              1141.0541              1159.7425
 Red. masses --      2.0598                 4.7374                 2.6389
 Frc consts  --      1.4767                 3.6342                 2.0912
 IR Inten    --      9.5522               247.9228                30.4048

                     28                     29                     30
                      A                      A                      A
 Frequencies --   1241.0218              1249.7082              1332.8277
 Red. masses --      2.5242                 1.1884                 1.2320
 Frc consts  --      2.2906                 1.0936                 1.2895
 IR Inten    --     44.4753                20.9397                17.9382

                     31                     32                     33
                      A                      A                      A
 Frequencies --   1354.6865              1380.8807              1394.3958
 Red. masses --      1.3573                 1.3489                 1.3323
 Frc consts  --      1.4675                 1.5155                 1.5263
 IR Inten    --     30.7567                36.5706                 4.0653

                     34                     35                     36
                      A                      A                      A
 Frequencies --   1405.7746              1454.1798              1465.0212
 Red. masses --      1.3013                 1.0561                 1.0512
 Frc consts  --      1.5151                 1.3158                 1.3293
 IR Inten    --      7.5448                14.7000                 7.9901

                     37                     38                     39
                      A                      A                      A
 Frequencies --   1481.4800              1483.2301              1495.2947
 Red. masses --      1.0636                 1.0574                 1.0509
 Frc consts  --      1.3754                 1.3706                 1.3844
 IR Inten    --     10.4140                 5.1886                 1.8831

                     40                     41                     42
                      A                      A                      A
 Frequencies --   1819.2406              2230.6249              2961.3104
 Red. masses --     11.0952                 5.8830                 1.0807
 Frc consts  --     21.6354                17.2464                 5.5835
 IR Inten    --    170.7725                 3.1670                31.5362

                     43                     44                     45
                      A                      A                      A
 Frequencies --   2982.8239              3020.7913              3046.0714
 Red. masses --      1.0559                 1.1029                 1.0354
 Frc consts  --      5.5353                 5.9295                 5.6601
 IR Inten    --     28.5826                19.7866                 1.0550

                     46                     47                     48
                      A                      A                      A
 Frequencies --   3054.4986              3108.5343              3136.0087
 Red. masses --      1.0336                 1.0970                 1.1032
 Frc consts  --      5.6820                 6.2453                 6.3923
 IR Inten    --     12.0140                 4.1881                16.1232

                     49                     50                     51
                      A                      A                      A
 Frequencies --   3138.8793              3158.5951              3500.9190
 Red. masses --      1.1028                 1.1044                 1.1629
 Frc consts  --      6.4016                 6.4916                 8.3979
 IR Inten    --     14.3926                12.4624                61.4743

 - Thermochemistry -
 -------------------
 Temperature   298.150 Kelvin.  Pressure   1.00000 Atm.
 Atom     1 has atomic number  6 and mass  12.00000

 Molecular mass:   126.06808 amu.
 Principal axes and moments of inertia in atomic units:
                           1         2         3
     Eigenvalues --   635.247812113.231082425.02657
           X            0.99989  -0.00029   0.01453
           Y            0.00042   0.99996  -0.00920
           Z           -0.01453   0.00921   0.99985
 This molecule is an asymmetric top.
 Rotational symmetry number  1.
 Warning -- assumption of classical behavior for rotation
           may cause significant error
 Rotational temperatures (Kelvin)      0.13635     0.04099     0.03572
 Rotational constants (GHZ):           2.84100     0.85402     0.74422
 Zero-point vibrational energy     404089.3 (Joules/Mol)
                                   96.57966 (Kcal/Mol)
 Warning -- explicit consideration of  15 degrees of freedom as
           vibrations may cause significant error
 Vibrational temperatures:     32.29    76.52   169.02   174.28   206.17
          (Kelvin)            262.10   308.91   372.90   415.47   505.72
                              649.32   725.52   741.88   817.76   871.87
                              912.83   981.96  1136.91  1176.75  1251.92
                             1322.69  1436.31  1511.61  1575.50  1587.05
                             1641.72  1668.61  1785.55  1798.05  1917.64
                             1949.09  1986.78  2006.22  2022.59  2092.24
                             2107.84  2131.52  2134.03  2151.39  2617.48
                             3209.37  4260.66  4291.61  4346.24  4382.61
                             4394.74  4472.48  4512.01  4516.14  4544.51
                             5037.04

 Zero-point correction=                           0.153909 (Hartree/Particle)
 Thermal correction to Energy=                    0.164726
 Thermal correction to Enthalpy=                  0.165670
 Thermal correction to Gibbs Free Energy=         0.116382
 Sum of electronic and zero-point Energies=           -423.002887
 Sum of electronic and thermal Energies=              -422.992071
 Sum of electronic and thermal Enthalpies=            -422.991127
 Sum of electronic and thermal Free Energies=         -423.040415

                     E (Thermal)             CV                S
                      KCal/Mol        Cal/Mol-Kelvin    Cal/Mol-Kelvin
 Total                  103.367             37.575            103.735
 Electronic               0.000              0.000              0.000
 Translational            0.889              2.981             40.409
 Rotational               0.889              2.981             29.566
 Vibrational            101.590             31.613             33.760
 Vibration     1          0.593              1.985              6.406
 Vibration     2          0.596              1.976              4.695
 Vibration     3          0.608              1.935              3.141
 Vibration     4          0.609              1.932              3.082
 Vibration     5          0.616              1.910              2.759
 Vibration     6          0.630              1.864              2.306
 Vibration     7          0.645              1.819              2.003
 Vibration     8          0.668              1.747              1.667
 Vibration     9          0.685              1.695              1.481
 Vibration    10          0.728              1.572              1.159
 Vibration    11          0.810              1.358              0.792
 Vibration    12          0.860              1.241              0.648
 Vibration    13          0.871              1.215              0.620
 Vibration    14          0.924              1.100              0.507
 Vibration    15          0.965              1.019              0.439

 Optimization completed.
    -- Stationary point found.
 Normal termination of Gaussian 09 at Mon Jan 27 17:33:42 2020.
