 Gaussian 09, Revision D.01,
 Gaussian 09:  ES64L-G09RevD.01 24-Apr-2013

 -----------------------------
 # b3lyp 6-31G(2df,p) opt Freq
 -----------------------------

 -----
 titel
 -----
 Symbolic Z-matrix:
 Charge =  0 Multiplicity = 1

 SCF Done:  E(RB3LYP) =  -423.142437608     A.U. after   13 cycles
 Optimization completed.
    -- Stationary point found.
 Normal termination of Gaussian 09 at Mon Jan 27 22:05:42 2020.

 ----------------------------------------------------------------------
 #N Geom=AllCheck Guess=TCheck SCRF=Check GenChk RB3LYP/6-31G(2df,p) Fr
 eq
 ----------------------------------------------------------------------

 Structure from the checkpoint file:  "/scratch/puck/g09_58b12456-ff51-4a9c-b2e6-a32b8fd62521/Gau-111368.chk"
 -----
 titel
 -----
 Charge =  0 Multiplicity = 1

                         Standard orientation:
 ---------------------------------------------------------------------
 Center     Atomic      Atomic             Coordinates (Angstroms)
 Number     Number       Type             X           Y           Z
 ---------------------------------------------------------------------
      1          8           0        2.947771   -0.017721   -0.284703
      2          6           0        1.727129   -0.599273    0.081250
      3          6           0        0.456020   -0.417775   -0.787633
      4          6           0        0.273576    1.029180   -0.211257
      5          6           0       -1.216726    1.328999   -0.065801
      6          6           0       -1.720232   -0.060889    0.422635
      7          8           0       -2.692013   -0.674340   -0.408807
      8          6           0       -0.391231   -0.813377    0.472587
      9          6           0        0.724233    0.141402    1.003302
     10          1           0        2.796128    0.898001   -0.539416
     11          1           0        1.962779   -1.627801    0.366628
     12          1           0        0.298434   -0.740019   -1.820218
     13          1           0        0.916795    1.839221   -0.563259
     14          1           0       -1.413122    2.131151    0.652620
     15          1           0       -1.697760    1.604264   -1.010190
     16          1           0       -2.194104   -0.005401    1.407102
     17          1           0       -2.288728   -0.825454   -1.270829
     18          1           0       -0.408446   -1.854499    0.799272
     19          1           0        0.865338    0.467416    2.035877
 ---------------------------------------------------------------------

 SCF Done:  E(RB3LYP) =  -423.142437608     A.U. after    1 cycles

 The electronic state is 1-A.
 Alpha  occ. eigenvalues --  -19.13931 -19.13365 -10.23817 -10.23019 -10.20340
 Alpha  occ. eigenvalues --  -10.20140 -10.20013 -10.19635 -10.18115  -1.02664
 Alpha  occ. eigenvalues --   -1.01672  -0.92085  -0.76188  -0.69450  -0.64051
 Alpha  occ. eigenvalues --   -0.63699  -0.58578  -0.54537  -0.51946  -0.50488
 Alpha  occ. eigenvalues --   -0.46476  -0.45214  -0.43932  -0.39901  -0.38387
 Alpha  occ. eigenvalues --   -0.38090  -0.37026  -0.33494  -0.32079  -0.31586
 Alpha  occ. eigenvalues --   -0.30861  -0.30685  -0.26102  -0.25561
 Alpha virt. eigenvalues --    0.07151   0.07468   0.11267   0.12271   0.12594
 Alpha virt. eigenvalues --    0.13058   0.13913   0.14553   0.15324   0.16413
 Alpha virt. eigenvalues --    0.17590   0.19160   0.19681   0.20910   0.21849

 Mulliken charges:
               1
     1  O   -0.451627
     2  C    0.181180
     3  C   -0.132805
     4  C   -0.028711
     5  C   -0.288948
     6  C    0.131500
     7  O   -0.440864
     8  C   -0.039174
     9  C   -0.123370
    10  H    0.282782
    11  H    0.084137
    12  H    0.065902
    13  H    0.051827
    14  H    0.102367
    15  H    0.099408
    16  H    0.087980
    17  H    0.276404
    18  H    0.070515
    19  H    0.071495
 Sum of Mulliken charges =   0.00000

 Dipole moment (field-independent basis, Debye):
    X=              0.1447    Y=              1.1456    Z=             -0.4198  Tot=              1.2286
 Quadrupole moment (field-independent basis, Debye-Ang):
   XX=            -66.4108   YY=            -50.8442   ZZ=            -49.8154
   XY=              1.1811   XZ=              0.5511   YZ=             -0.0422

  Exact polarizability:  83.432  -0.814  71.889  -0.287  -0.198  67.983
 Approx polarizability: 114.721   1.541 109.332  -0.548   0.401 108.923

                      1                      2                      3
                      A                      A                      A
 Frequencies --    120.2345               217.8911               248.6021
 Red. masses --      4.1424                 4.6394                 1.3752
 Frc consts  --      0.0353                 0.1298                 0.0501
 IR Inten    --      1.8976                 2.0751                40.6060

                      4                      5                      6
                      A                      A                      A
 Frequencies --    271.1542               302.2623               363.1462
 Red. masses --      1.4867                 1.3382                 4.0543
 Frc consts  --      0.0644                 0.0720                 0.3150
 IR Inten    --     39.0854                60.4651                23.1021

                      7                      8                      9
                      A                      A                      A
 Frequencies --    435.8382               485.3919               560.5892
 Red. masses --      2.6435                 3.8018                 4.0725
 Frc consts  --      0.2959                 0.5277                 0.7541
 IR Inten    --      2.1350                 4.7907                 4.1977

                     10                     11                     12
                      A                      A                      A
 Frequencies --    687.5234               717.3269               758.7449
 Red. masses --      3.5106                 3.6608                 2.9386
 Frc consts  --      0.9777                 1.1098                 0.9967
 IR Inten    --      6.7366                 8.0841                 4.9925

                     13                     14                     15
                      A                      A                      A
 Frequencies --    794.8516               849.2963               861.6790
 Red. masses --      2.5443                 2.5858                 2.5929
 Frc consts  --      0.9471                 1.0989                 1.1343
 IR Inten    --      0.1646                11.3159                 9.1224

                     16                     17                     18
                      A                      A                      A
 Frequencies --    911.0617               925.3269               946.9708
 Red. masses --      2.2096                 2.0310                 3.7221
 Frc consts  --      1.0806                 1.0246                 1.9666
 IR Inten    --      6.1241                 5.9035                 4.2315

                     19                     20                     21
                      A                      A                      A
 Frequencies --    973.1114               999.9274              1017.4151
 Red. masses --      1.4241                 1.6167                 1.4755
 Frc consts  --      0.7946                 0.9524                 0.8999
 IR Inten    --      1.8052                 6.6340                 0.1541

                     22                     23                     24
                      A                      A                      A
 Frequencies --   1042.6394              1074.5710              1091.8214
 Red. masses --      1.8304                 2.2531                 4.0925
 Frc consts  --      1.1724                 1.5329                 2.8744
 IR Inten    --     25.3390               108.9674                13.6655

                     25                     26                     27
                      A                      A                      A
 Frequencies --   1114.4704              1123.7699              1140.9659
 Red. masses --      1.6104                 2.1878                 1.5328
 Frc consts  --      1.1784                 1.6278                 1.1757
 IR Inten    --     45.0659                65.2161                16.0886

                     28                     29                     30
                      A                      A                      A
 Frequencies --   1151.5681              1202.2591              1210.2893
 Red. masses --      1.4137                 1.3947                 1.4677
 Frc consts  --      1.1045                 1.1878                 1.2667
 IR Inten    --      4.2597                 7.8078                15.5533

                     31                     32                     33
                      A                      A                      A
 Frequencies --   1230.6450              1249.5743              1274.3458
 Red. masses --      1.6805                 1.7174                 1.4698
 Frc consts  --      1.4996                 1.5800                 1.4063
 IR Inten    --      5.0532                 8.7710                58.3104

                     34                     35                     36
                      A                      A                      A
 Frequencies --   1281.4168              1294.9218              1303.3253
 Red. masses --      1.8915                 1.6025                 1.5705
 Frc consts  --      1.8300                 1.5832                 1.5718
 IR Inten    --     14.2874                 1.0629                 0.9083

                     37                     38                     39
                      A                      A                      A
 Frequencies --   1314.6505              1373.9284              1435.3063
 Red. masses --      1.5417                 1.5739                 1.2406
 Frc consts  --      1.5699                 1.7505                 1.5059
 IR Inten    --      0.9425                10.9175                66.5765

                     40                     41                     42
                      A                      A                      A
 Frequencies --   1456.0225              1492.1055              3045.7313
 Red. masses --      1.2472                 1.0951                 1.0601
 Frc consts  --      1.5579                 1.4365                 5.7940
 IR Inten    --     93.9901                 1.8872                28.7287

                     43                     44                     45
                      A                      A                      A
 Frequencies --   3067.3673              3072.1289              3081.3250
 Red. masses --      1.0871                 1.0853                 1.0880
 Frc consts  --      6.0265                 6.0349                 6.0863
 IR Inten    --     27.0203                35.6424                76.6798

                     46                     47                     48
                      A                      A                      A
 Frequencies --   3082.9895              3091.3961              3094.5948
 Red. masses --      1.0873                 1.1037                 1.0903
 Frc consts  --      6.0892                 6.2147                 6.1519
 IR Inten    --     50.8087                28.0720                36.3982

                     49                     50                     51
                      A                      A                      A
 Frequencies --   3111.0119              3799.3016              3820.2934
 Red. masses --      1.0917                 1.0658                 1.0650
 Frc consts  --      6.2251                 9.0640                 9.1581
 IR Inten    --     36.1689                 8.5564                10.5914

 - Thermochemistry -
 -------------------
 Temperature   298.150 Kelvin.  Pressure   1.00000 Atm.
 Atom     1 has atomic number  8 and mass  15.99491

 Molecular mass:   126.06808 amu.
 Principal axes and moments of inertia in atomic units:
                           1         2         3
     Eigenvalues --   420.433641525.316091638.88447
           X            0.99998  -0.00608   0.00067
           Y            0.00609   0.99987  -0.01523
           Z           -0.00058   0.01523   0.99988
 This molecule is an asymmetric top.
 Rotational symmetry number  1.
 Rotational temperatures (Kelvin)      0.20601     0.05678     0.05285
 Rotational constants (GHZ):           4.29257     1.18319     1.10120
 Zero-point vibrational energy     422120.8 (Joules/Mol)
                                  100.88928 (Kcal/Mol)
 Warning -- explicit consideration of   9 degrees of freedom as
           vibrations may cause significant error
 Vibrational temperatures:    172.99   313.50   357.68   390.13   434.89
          (Kelvin)            522.49   627.07   698.37   806.56   989.19
                             1032.07  1091.66  1143.61  1221.95  1239.76
                             1310.81  1331.34  1362.48  1400.09  1438.67
                             1463.83  1500.12  1546.07  1570.89  1603.47
                             1616.85  1641.59  1656.85  1729.78  1741.33
                             1770.62  1797.86  1833.50  1843.67  1863.10
                             1875.19  1891.49  1976.77  2065.08  2094.89
                             2146.80  4382.12  4413.25  4420.10  4433.33
                             4435.73  4447.82  4452.43  4476.05  5466.34
                             5496.54

 Zero-point correction=                           0.160777 (Hartree/Particle)
 Thermal correction to Energy=                    0.168342
 Thermal correction to Enthalpy=                  0.169286
 Thermal correction to Gibbs Free Energy=         0.129058
 Sum of electronic and zero-point Energies=           -422.981660
 Sum of electronic and thermal Energies=              -422.974096
 Sum of electronic and thermal Enthalpies=            -422.973152
 Sum of electronic and thermal Free Energies=         -423.013379

                     E (Thermal)             CV                S
                      KCal/Mol        Cal/Mol-Kelvin    Cal/Mol-Kelvin
 Total                  105.636             30.729             84.666
 Electronic               0.000              0.000              0.000
 Translational            0.889              2.981             40.409
 Rotational               0.889              2.981             28.443
 Vibrational            103.858             24.767             15.814
 Vibration     1          0.609              1.932              3.097
 Vibration     2          0.646              1.814              1.977
 Vibration     3          0.662              1.765              1.740
 Vibration     4          0.675              1.726              1.589
 Vibration     5          0.694              1.669              1.404
 Vibration     6          0.737              1.548              1.109
 Vibration     7          0.796              1.392              0.840
 Vibration     8          0.841              1.282              0.696
 Vibration     9          0.916              1.117              0.523

 Optimization completed.
    -- Stationary point found.
 Normal termination of Gaussian 09 at Mon Jan 27 23:03:02 2020.
