 Gaussian 09, Revision D.01,
 Gaussian 09:  ES64L-G09RevD.01 24-Apr-2013

 -----------------------------
 # b3lyp 6-31G(2df,p) opt Freq
 -----------------------------

 -----
 titel
 -----
 Symbolic Z-matrix:
 Charge =  0 Multiplicity = 1

 SCF Done:  E(RB3LYP) =  -423.126735631     A.U. after   14 cycles
 SCF Done:  E(RB3LYP) =  -423.126735167     A.U. after    8 cycles
 SCF Done:  E(RB3LYP) =  -423.126735751     A.U. after    7 cycles
 SCF Done:  E(RB3LYP) =  -423.126735668     A.U. after    7 cycles
 SCF Done:  E(RB3LYP) =  -423.126735795     A.U. after    7 cycles
 SCF Done:  E(RB3LYP) =  -423.126735852     A.U. after    8 cycles
 SCF Done:  E(RB3LYP) =  -423.126736122     A.U. after   10 cycles
 SCF Done:  E(RB3LYP) =  -423.126736287     A.U. after    9 cycles
 SCF Done:  E(RB3LYP) =  -423.126737293     A.U. after   11 cycles
 SCF Done:  E(RB3LYP) =  -423.126536843     A.U. after   11 cycles
 SCF Done:  E(RB3LYP) =  -423.126737718     A.U. after    8 cycles
 SCF Done:  E(RB3LYP) =  -423.126736694     A.U. after   10 cycles
 SCF Done:  E(RB3LYP) =  -423.126739513     A.U. after   10 cycles
 SCF Done:  E(RB3LYP) =  -423.126739018     A.U. after   11 cycles
 SCF Done:  E(RB3LYP) =  -423.126738326     A.U. after   11 cycles
 SCF Done:  E(RB3LYP) =  -423.126740228     A.U. after    8 cycles
 SCF Done:  E(RB3LYP) =  -423.126709572     A.U. after   11 cycles
 SCF Done:  E(RB3LYP) =  -423.126740597     A.U. after   10 cycles
 SCF Done:  E(RB3LYP) =  -423.126740585     A.U. after    8 cycles
 Optimization completed.
    -- Stationary point found.
 Normal termination of Gaussian 09 at Mon Jan 27 16:31:11 2020.

 ----------------------------------------------------------------------
 #N Geom=AllCheck Guess=TCheck SCRF=Check GenChk RB3LYP/6-31G(2df,p) Fr
 eq
 ----------------------------------------------------------------------

 Structure from the checkpoint file:  "/scratch/puck/g09_85a14f54-dbde-46b6-b8fb-faeaa02d61dd/Gau-162460.chk"
 -----
 titel
 -----
 Charge =  0 Multiplicity = 1

                         Standard orientation:
 ---------------------------------------------------------------------
 Center     Atomic      Atomic             Coordinates (Angstroms)
 Number     Number       Type             X           Y           Z
 ---------------------------------------------------------------------
      1          6           0       -3.067569    1.284832    0.417233
      2          6           0       -2.490707    0.139372   -0.426923
      3          8           0       -3.322118   -1.019324   -0.375917
      4          6           0       -1.106675   -0.165690   -0.048016
      5          6           0        0.014565   -0.426378    0.307318
      6          6           0        1.388330   -0.741053    0.687303
      7          6           0        2.400289   -0.318875   -0.365258
      8          6           0        3.773032    0.047231   -0.000851
      9          8           0        2.809545    1.045190   -0.346815
     10          1           0       -4.097995    1.480696    0.109249
     11          1           0       -3.061373    1.017966    1.479143
     12          1           0       -2.475466    2.196069    0.293048
     13          1           0       -2.509309    0.438662   -1.482000
     14          1           0       -3.225012   -1.402021    0.503185
     15          1           0        1.646220   -0.250379    1.633659
     16          1           0        1.485431   -1.822875    0.853280
     17          1           0        2.216169   -0.717998   -1.362990
     18          1           0        4.072818    0.031551    1.046615
     19          1           0        4.581508   -0.095242   -0.716170
 ---------------------------------------------------------------------

 SCF Done:  E(RB3LYP) =  -423.126740585     A.U. after    1 cycles

 The electronic state is 1-A.
 Alpha  occ. eigenvalues --  -19.15419 -19.13617 -10.25292 -10.24736 -10.23844
 Alpha  occ. eigenvalues --  -10.21702 -10.17942 -10.17844 -10.17201  -1.07598
 Alpha  occ. eigenvalues --   -1.01916  -0.79886  -0.76779  -0.70984  -0.66743
 Alpha  occ. eigenvalues --   -0.63413  -0.60786  -0.53623  -0.51450  -0.48042
 Alpha  occ. eigenvalues --   -0.46655  -0.46019  -0.43665  -0.43260  -0.39479
 Alpha  occ. eigenvalues --   -0.39017  -0.38074  -0.37446  -0.34231  -0.31344
 Alpha  occ. eigenvalues --   -0.28428  -0.27426  -0.25660  -0.25219
 Alpha virt. eigenvalues --    0.03497   0.05057   0.09504   0.10338   0.11027
 Alpha virt. eigenvalues --    0.12102   0.12722   0.13177   0.14230   0.15153
 Alpha virt. eigenvalues --    0.16948   0.17543   0.17986   0.18575   0.21217

 Mulliken charges:
               1
     1  C   -0.384265
     2  C   -0.018838
     3  O   -0.414484
     4  C    0.114247
     5  C    0.006815
     6  C   -0.381364
     7  C    0.111608
     8  C   -0.181459
     9  O   -0.224187
    10  H    0.123962
    11  H    0.114809
    12  H    0.127997
    13  H    0.118343
    14  H    0.280709
    15  H    0.135272
    16  H    0.134427
    17  H    0.104588
    18  H    0.113845
    19  H    0.117975
 Sum of Mulliken charges =   0.00000

 Dipole moment (field-independent basis, Debye):
    X=              1.3328    Y=             -1.1603    Z=              1.4892  Tot=              2.3109
 Quadrupole moment (field-independent basis, Debye-Ang):
   XX=            -49.9855   YY=            -54.7811   ZZ=            -51.0410
   XY=             -7.4827   XZ=             -2.0779   YZ=             -1.9656

  Exact polarizability: 117.080  -4.256  64.339   5.945  -1.697  64.225
 Approx polarizability: 151.158  -6.326  97.249  16.252  -4.740  96.496

                      1                      2                      3
                      A                      A                      A
 Frequencies --     12.0681                52.7333                83.8491
 Red. masses --      3.8697                 4.9130                 3.3961
 Frc consts  --      0.0003                 0.0080                 0.0141
 IR Inten    --      2.1669                 1.9854                 3.0396

                      4                      5                      6
                      A                      A                      A
 Frequencies --    122.2337               172.7191               251.5119
 Red. masses --      3.9836                 2.7971                 1.1049
 Frc consts  --      0.0351                 0.0492                 0.0412
 IR Inten    --      0.7853                 2.6225                 1.5033

                      7                      8                      9
                      A                      A                      A
 Frequencies --    277.5495               305.7945               324.7061
 Red. masses --      1.2586                 3.1253                 3.0187
 Frc consts  --      0.0571                 0.1722                 0.1875
 IR Inten    --     78.8513                 1.7965                31.9497

                     10                     11                     12
                      A                      A                      A
 Frequencies --    376.2789               402.0642               508.6310
 Red. masses --      2.8582                 3.3135                 4.0922
 Frc consts  --      0.2384                 0.3156                 0.6238
 IR Inten    --      1.7084                15.5430                 7.1758

                     13                     14                     15
                      A                      A                      A
 Frequencies --    546.3472               564.7256               738.2454
 Red. masses --      3.7778                 5.3360                 3.0320
 Frc consts  --      0.6644                 1.0026                 0.9736
 IR Inten    --      8.6281                12.0595                 2.7740

                     16                     17                     18
                      A                      A                      A
 Frequencies --    790.5257               859.2274               897.5626
 Red. masses --      3.2283                 1.8357                 2.5275
 Frc consts  --      1.1887                 0.7985                 1.1997
 IR Inten    --      9.9546                13.9806                14.4604

                     19                     20                     21
                      A                      A                      A
 Frequencies --    939.0327               957.6936              1015.4304
 Red. masses --      2.9399                 2.2918                 1.8745
 Frc consts  --      1.5273                 1.2384                 1.1388
 IR Inten    --     12.9422                21.3896                38.9713

                     22                     23                     24
                      A                      A                      A
 Frequencies --   1066.5731              1094.6673              1095.6535
 Red. masses --      1.7496                 1.5959                 2.4543
 Frc consts  --      1.1727                 1.1267                 1.7359
 IR Inten    --     40.1828                 4.6431                43.9821

                     25                     26                     27
                      A                      A                      A
 Frequencies --   1108.6602              1158.7134              1168.4016
 Red. masses --      1.7390                 1.3892                 1.3503
 Frc consts  --      1.2593                 1.0989                 1.0861
 IR Inten    --     12.6890                 2.5592                 3.5881

                     28                     29                     30
                      A                      A                      A
 Frequencies --   1177.4888              1245.2151              1281.3332
 Red. masses --      2.2472                 1.2153                 1.3594
 Frc consts  --      1.8357                 1.1102                 1.3150
 IR Inten    --     24.9636                 2.4073                 8.7975

                     31                     32                     33
                      A                      A                      A
 Frequencies --   1293.5689              1318.7344              1338.9884
 Red. masses --      1.6451                 1.3898                 1.3936
 Frc consts  --      1.6219                 1.4240                 1.4721
 IR Inten    --      4.8199                19.6792                29.9448

                     34                     35                     36
                      A                      A                      A
 Frequencies --   1398.6996              1416.8693              1438.3262
 Red. masses --      1.2378                 1.1916                 1.6885
 Frc consts  --      1.4267                 1.4094                 2.0581
 IR Inten    --      4.6682                84.3701                13.3437

                     37                     38                     39
                      A                      A                      A
 Frequencies --   1454.4686              1487.6939              1491.3761
 Red. masses --      1.1058                 1.0500                 1.0590
 Frc consts  --      1.3783                 1.3691                 1.3877
 IR Inten    --      3.0711                 7.0683                 1.2053

                     40                     41                     42
                      A                      A                      A
 Frequencies --   1531.0603              2362.1166              3015.5343
 Red. masses --      1.3524                11.8957                 1.0611
 Frc consts  --      1.8679                39.1059                 5.6849
 IR Inten    --      3.6557                 6.0381                19.9647

                     43                     44                     45
                      A                      A                      A
 Frequencies --   3036.1805              3040.2060              3057.3543
 Red. masses --      1.0644                 1.0521                 1.0979
 Frc consts  --      5.7813                 5.7297                 6.0463
 IR Inten    --     10.7587                18.5910                 5.7724

                     46                     47                     48
                      A                      A                      A
 Frequencies --   3082.2939              3112.9068              3113.9001
 Red. masses --      1.0504                 1.0893                 1.1012
 Frc consts  --      5.8795                 6.2189                 6.2912
 IR Inten    --     28.7921                18.8823                26.0242

                     49                     50                     51
                      A                      A                      A
 Frequencies --   3127.1081              3168.9082              3803.3658
 Red. masses --      1.1032                 1.1191                 1.0661
 Frc consts  --      6.3560                 6.6212                 9.0860
 IR Inten    --     22.6926                28.0510                17.0192

 - Thermochemistry -
 -------------------
 Temperature   298.150 Kelvin.  Pressure   1.00000 Atm.
 Atom     1 has atomic number  6 and mass  12.00000

 Molecular mass:   126.06808 amu.
 Principal axes and moments of inertia in atomic units:
                           1         2         3
     Eigenvalues --   381.792843192.327473370.33480
           X            0.99979  -0.02042  -0.00208
           Y            0.02042   0.99979   0.00239
           Z            0.00203  -0.00243   0.99999
 This molecule is an asymmetric top.
 Rotational symmetry number  1.
 Rotational temperatures (Kelvin)      0.22686     0.02713     0.02570
 Rotational constants (GHZ):           4.72702     0.56534     0.53548
 Zero-point vibrational energy     410829.3 (Joules/Mol)
                                   98.19056 (Kcal/Mol)
 Warning -- explicit consideration of  14 degrees of freedom as
           vibrations may cause significant error
 Vibrational temperatures:     17.36    75.87   120.64   175.87   248.50
          (Kelvin)            361.87   399.33   439.97   467.18   541.38
                              578.48   731.81   786.07   812.51  1062.17
                             1137.39  1236.23  1291.39  1351.06  1377.91
                             1460.98  1534.56  1574.98  1576.40  1595.11
                             1667.13  1681.07  1694.14  1791.58  1843.55
                             1861.15  1897.36  1926.50  2012.41  2038.56
                             2069.43  2092.65  2140.46  2145.75  2202.85
                             3398.55  4338.68  4368.38  4374.17  4398.85
                             4434.73  4478.77  4480.20  4499.21  4559.35
                             5472.19

 Zero-point correction=                           0.156477 (Hartree/Particle)
 Thermal correction to Energy=                    0.166767
 Thermal correction to Enthalpy=                  0.167711
 Thermal correction to Gibbs Free Energy=         0.118668
 Sum of electronic and zero-point Energies=           -422.970264
 Sum of electronic and thermal Energies=              -422.959974
 Sum of electronic and thermal Enthalpies=            -422.959029
 Sum of electronic and thermal Free Energies=         -423.008073

                     E (Thermal)             CV                S
                      KCal/Mol        Cal/Mol-Kelvin    Cal/Mol-Kelvin
 Total                  104.648             35.849            103.220
 Electronic               0.000              0.000              0.000
 Translational            0.889              2.981             40.409
 Rotational               0.889              2.981             29.797
 Vibrational            102.870             29.887             33.014
 Vibration     1          0.593              1.987              7.638
 Vibration     2          0.596              1.977              4.712
 Vibration     3          0.601              1.960              3.799
 Vibration     4          0.610              1.931              3.065
 Vibration     5          0.626              1.876              2.406
 Vibration     6          0.663              1.760              1.720
 Vibration     7          0.679              1.715              1.549
 Vibration     8          0.696              1.663              1.385
 Vibration     9          0.709              1.626              1.286
 Vibration    10          0.747              1.521              1.054
 Vibration    11          0.768              1.466              0.955
 Vibration    12          0.864              1.231              0.637
 Vibration    13          0.902              1.148              0.552
 Vibration    14          0.921              1.108              0.514

 Optimization completed.
    -- Stationary point found.
 Normal termination of Gaussian 09 at Mon Jan 27 17:02:35 2020.
