 Gaussian 09, Revision D.01,
 Gaussian 09:  ES64L-G09RevD.01 24-Apr-2013

 -----------------------------
 # b3lyp 6-31G(2df,p) opt Freq
 -----------------------------

 -----
 titel
 -----
 Symbolic Z-matrix:
 Charge =  0 Multiplicity = 1

 SCF Done:  E(RB3LYP) =  -423.188107928     A.U. after   12 cycles
 Optimization completed.
    -- Stationary point found.
 Normal termination of Gaussian 09 at Mon Jan 27 18:37:13 2020.

 ----------------------------------------------------------------------
 #N Geom=AllCheck Guess=TCheck SCRF=Check GenChk RB3LYP/6-31G(2df,p) Fr
 eq
 ----------------------------------------------------------------------

 Structure from the checkpoint file:  "/scratch/puck/g09_5acfc0e7-ce21-482c-ab0e-e487477dbfcf/Gau-18715.chk"
 -----
 titel
 -----
 Charge =  0 Multiplicity = 1

                         Standard orientation:
 ---------------------------------------------------------------------
 Center     Atomic      Atomic             Coordinates (Angstroms)
 Number     Number       Type             X           Y           Z
 ---------------------------------------------------------------------
      1          6           0        1.866094   -1.347870    0.117960
      2          6           0        0.721112   -0.385916   -0.044877
      3          8           0        1.163143    0.818254   -0.700034
      4          6           0        0.252967    1.835430   -0.253422
      5          6           0       -0.708043    1.027237    0.651756
      6          8           0        0.220586    0.081948    1.202168
      7          6           0       -1.567410    0.166310   -0.275232
      8          6           0       -1.702028   -1.291755    0.077631
      9          6           0       -0.548228   -0.838786   -0.779515
     10          1           0        2.269012   -1.610841   -0.863177
     11          1           0        2.658330   -0.887146    0.712036
     12          1           0        1.524067   -2.259728    0.613248
     13          1           0        0.803120    2.601049    0.305596
     14          1           0       -0.253467    2.300412   -1.106627
     15          1           0       -1.204614    1.580042    1.448686
     16          1           0       -2.279109    0.647484   -0.935023
     17          1           0       -1.510020   -1.609577    1.095824
     18          1           0       -2.492820   -1.832012   -0.431311
     19          1           0       -0.471113   -1.119195   -1.822133
 ---------------------------------------------------------------------

 SCF Done:  E(RB3LYP) =  -423.188107928     A.U. after    1 cycles

 The electronic state is 1-A.
 Alpha  occ. eigenvalues --  -19.14557 -19.13329 -10.27887 -10.23959 -10.22614
 Alpha  occ. eigenvalues --  -10.19324 -10.18836 -10.18729 -10.17671  -1.09195
 Alpha  occ. eigenvalues --   -0.98445  -0.85879  -0.78465  -0.70369  -0.64369
 Alpha  occ. eigenvalues --   -0.62587  -0.57271  -0.55111  -0.52504  -0.49930
 Alpha  occ. eigenvalues --   -0.47655  -0.45009  -0.43066  -0.40738  -0.38826
 Alpha  occ. eigenvalues --   -0.38389  -0.37581  -0.36726  -0.34160  -0.33718
 Alpha  occ. eigenvalues --   -0.30075  -0.28232  -0.27043  -0.24650
 Alpha virt. eigenvalues --    0.08909   0.10684   0.11601   0.12790   0.13814
 Alpha virt. eigenvalues --    0.14104   0.15066   0.15086   0.16601   0.16909
 Alpha virt. eigenvalues --    0.17247   0.18758   0.20039   0.21083   0.22313

 Mulliken charges:
               1
     1  C   -0.475960
     2  C    0.481909
     3  O   -0.307169
     4  C   -0.082313
     5  C    0.005070
     6  O   -0.280355
     7  C   -0.042074
     8  C   -0.320590
     9  C   -0.086798
    10  H    0.131142
    11  H    0.134983
    12  H    0.129848
    13  H    0.103417
    14  H    0.099587
    15  H    0.087030
    16  H    0.092157
    17  H    0.124745
    18  H    0.110888
    19  H    0.094484
 Sum of Mulliken charges =   0.00000

 Dipole moment (field-independent basis, Debye):
    X=             -1.3786    Y=              0.0386    Z=             -0.5021  Tot=              1.4677
 Quadrupole moment (field-independent basis, Debye-Ang):
   XX=            -52.7518   YY=            -49.5094   ZZ=            -54.5043
   XY=             -2.5332   XZ=              1.4104   YZ=              1.5066

  Exact polarizability:  76.571  -0.219  80.041   0.348   0.799  63.344
 Approx polarizability: 107.350  -1.786 112.440  -2.396   0.230 101.336

                      1                      2                      3
                      A                      A                      A
 Frequencies --    192.4428               218.5308               287.9189
 Red. masses --      1.0220                 2.6992                 2.7720
 Frc consts  --      0.0223                 0.0759                 0.1354
 IR Inten    --      0.0434                 2.2303                 3.5321

                      4                      5                      6
                      A                      A                      A
 Frequencies --    289.2715               363.5097               406.3844
 Red. masses --      2.2752                 3.3214                 2.8400
 Frc consts  --      0.1122                 0.2586                 0.2763
 IR Inten    --      0.8359                 0.8035                 2.6457

                      7                      8                      9
                      A                      A                      A
 Frequencies --    498.9124               609.2583               645.8302
 Red. masses --      3.9316                 3.9877                 4.8885
 Frc consts  --      0.5766                 0.8721                 1.2013
 IR Inten    --      4.8047                 1.2518                 8.5029

                     10                     11                     12
                      A                      A                      A
 Frequencies --    665.9483               771.3473               786.3028
 Red. masses --      3.8284                 2.2857                 3.3750
 Frc consts  --      1.0003                 0.8013                 1.2294
 IR Inten    --      0.2513                 5.7189                 0.9800

                     13                     14                     15
                      A                      A                      A
 Frequencies --    825.5090               839.2646               870.0280
 Red. masses --      2.1236                 1.8094                 3.4418
 Frc consts  --      0.8526                 0.7509                 1.5350
 IR Inten    --     32.9923                 5.3682                31.5829

                     16                     17                     18
                      A                      A                      A
 Frequencies --    885.5562               917.9828               935.6116
 Red. masses --      2.2361                 2.3206                 2.9949
 Frc consts  --      1.0332                 1.1522                 1.5446
 IR Inten    --     15.6731                 9.3588                15.4404

                     19                     20                     21
                      A                      A                      A
 Frequencies --    983.4434               997.8827              1023.2501
 Red. masses --      1.6234                 4.1831                 4.1939
 Frc consts  --      0.9251                 2.4542                 2.5872
 IR Inten    --     17.0042                45.9466                48.6394

                     22                     23                     24
                      A                      A                      A
 Frequencies --   1039.0944              1053.8600              1083.4505
 Red. masses --      1.4563                 2.1521                 1.4051
 Frc consts  --      0.9264                 1.4083                 0.9718
 IR Inten    --      5.5982                 9.6649                 4.2772

                     25                     26                     27
                      A                      A                      A
 Frequencies --   1093.5924              1112.7490              1138.0447
 Red. masses --      1.2977                 1.5796                 1.9664
 Frc consts  --      0.9144                 1.1524                 1.5005
 IR Inten    --      9.3697                 0.4395                37.5779

                     28                     29                     30
                      A                      A                      A
 Frequencies --   1182.1287              1189.3664              1198.8665
 Red. masses --      1.5889                 1.4472                 1.5125
 Frc consts  --      1.3082                 1.2062                 1.2808
 IR Inten    --     16.7348                 2.6782                 7.5810

                     31                     32                     33
                      A                      A                      A
 Frequencies --   1261.9566              1272.5311              1321.4609
 Red. masses --      2.4804                 1.6065                 1.6223
 Frc consts  --      2.3273                 1.5328                 1.6691
 IR Inten    --     35.3956                 7.6020                12.0043

                     34                     35                     36
                      A                      A                      A
 Frequencies --   1334.1419              1351.5690              1385.9317
 Red. masses --      1.9228                 1.4763                 1.6877
 Frc consts  --      2.0164                 1.5889                 1.9099
 IR Inten    --      9.8764                 3.7650                 7.6193

                     37                     38                     39
                      A                      A                      A
 Frequencies --   1424.4378              1470.1188              1481.3647
 Red. masses --      1.8163                 1.2712                 1.0540
 Frc consts  --      2.1713                 1.6187                 1.3628
 IR Inten    --     40.8918                 2.7731                 1.2000

                     40                     41                     42
                      A                      A                      A
 Frequencies --   1486.4053              1517.2469              3027.0115
 Red. masses --      1.0647                 1.0954                 1.0558
 Frc consts  --      1.3859                 1.4857                 5.6999
 IR Inten    --      3.9231                 0.5056                63.4723

                     43                     44                     45
                      A                      A                      A
 Frequencies --   3057.4406              3071.9616              3126.6721
 Red. masses --      1.0347                 1.1104                 1.0898
 Frc consts  --      5.6985                 6.1739                 6.2769
 IR Inten    --      9.5940                34.6962                34.3654

                     46                     47                     48
                      A                      A                      A
 Frequencies --   3134.9670              3138.0381              3140.2596
 Red. masses --      1.1016                 1.0538                 1.1027
 Frc consts  --      6.3788                 6.1138                 6.4066
 IR Inten    --      9.6712                15.5303                10.9188

                     49                     50                     51
                      A                      A                      A
 Frequencies --   3185.9604              3198.8649              3226.9132
 Red. masses --      1.0899                 1.0950                 1.1151
 Frc consts  --      6.5182                 6.6016                 6.8410
 IR Inten    --     12.0416                 5.5121                 6.3457

 - Thermochemistry -
 -------------------
 Temperature   298.150 Kelvin.  Pressure   1.00000 Atm.
 Atom     1 has atomic number  6 and mass  12.00000

 Molecular mass:   126.06808 amu.
 Principal axes and moments of inertia in atomic units:
                           1         2         3
     Eigenvalues --   723.58793 829.885621153.85508
           X            0.99170  -0.12743   0.01696
           Y            0.12738   0.99185   0.00350
           Z           -0.01727  -0.00131   0.99985
 This molecule is an asymmetric top.
 Rotational symmetry number  1.
 Warning -- assumption of classical behavior for rotation
           may cause significant error
 Rotational temperatures (Kelvin)      0.11970     0.10437     0.07506
 Rotational constants (GHZ):           2.49416     2.17469     1.56410
 Zero-point vibrational energy     423003.1 (Joules/Mol)
                                  101.10016 (Kcal/Mol)
 Warning -- explicit consideration of   8 degrees of freedom as
           vibrations may cause significant error
 Vibrational temperatures:    276.88   314.42   414.25   416.20   523.01
          (Kelvin)            584.70   717.82   876.59   929.20   958.15
                             1109.80  1131.31  1187.72  1207.51  1251.77
                             1274.12  1320.77  1346.13  1414.95  1435.73
                             1472.23  1495.02  1516.27  1558.84  1573.43
                             1601.00  1637.39  1700.82  1711.23  1724.90
                             1815.67  1830.89  1901.29  1919.53  1944.60
                             1994.04  2049.45  2115.17  2131.35  2138.60
                             2182.98  4355.19  4398.97  4419.86  4498.58
                             4510.51  4514.93  4518.13  4583.88  4602.45
                             4642.80

 Zero-point correction=                           0.161113 (Hartree/Particle)
 Thermal correction to Energy=                    0.168148
 Thermal correction to Enthalpy=                  0.169092
 Thermal correction to Gibbs Free Energy=         0.130206
 Sum of electronic and zero-point Energies=           -423.026995
 Sum of electronic and thermal Energies=              -423.019960
 Sum of electronic and thermal Enthalpies=            -423.019016
 Sum of electronic and thermal Free Energies=         -423.057902

                     E (Thermal)             CV                S
                      KCal/Mol        Cal/Mol-Kelvin    Cal/Mol-Kelvin
 Total                  105.515             29.442             81.842
 Electronic               0.000              0.000              0.000
 Translational            0.889              2.981             40.409
 Rotational               0.889              2.981             28.029
 Vibrational            103.737             23.480             13.405
 Vibration     1          0.634              1.850              2.204
 Vibration     2          0.646              1.813              1.971
 Vibration     3          0.685              1.696              1.486
 Vibration     4          0.686              1.694              1.478
 Vibration     5          0.737              1.547              1.107
 Vibration     6          0.771              1.456              0.939
 Vibration     7          0.854              1.252              0.661
 Vibration     8          0.968              1.012              0.434

 Optimization completed.
    -- Stationary point found.
 Normal termination of Gaussian 09 at Mon Jan 27 20:30:09 2020.
