 Gaussian 09, Revision D.01,
 Gaussian 09:  ES64L-G09RevD.01 24-Apr-2013

 -----------------------------
 # b3lyp 6-31G(2df,p) opt Freq
 -----------------------------

 -----
 titel
 -----
 Symbolic Z-matrix:
 Charge =  0 Multiplicity = 1

 SCF Done:  E(RB3LYP) =  -423.196225942     A.U. after   14 cycles
 Optimization completed.
    -- Stationary point found.
 Normal termination of Gaussian 09 at Mon Jan 27 12:54:15 2020.

 ----------------------------------------------------------------------
 #N Geom=AllCheck Guess=TCheck SCRF=Check GenChk RB3LYP/6-31G(2df,p) Fr
 eq
 ----------------------------------------------------------------------

 Structure from the checkpoint file:  "/scratch/puck/g09_343d65ad-1aec-491c-8a4f-d223f54cdcf7/Gau-99501.chk"
 -----
 titel
 -----
 Charge =  0 Multiplicity = 1

                         Standard orientation:
 ---------------------------------------------------------------------
 Center     Atomic      Atomic             Coordinates (Angstroms)
 Number     Number       Type             X           Y           Z
 ---------------------------------------------------------------------
      1          8           0        2.001323    0.018420   -1.321144
      2          6           0        1.252188   -0.045086   -0.392396
      3          6           0        0.561093   -1.208036    0.349766
      4          6           0        0.516775   -0.259394    1.589857
      5          6           0        0.733872    0.969793    0.650556
      6          6           0       -0.559097    1.628680    0.139653
      7          8           0       -1.306292    0.824472   -0.759002
      8          6           0       -1.823345   -0.381288   -0.218626
      9          6           0       -0.819109   -1.543405   -0.247328
     10          1           0        1.165323   -2.115255    0.433772
     11          1           0       -0.397216   -0.264826    2.186791
     12          1           0        1.370353   -0.415467    2.252855
     13          1           0        1.435538    1.738086    0.985834
     14          1           0       -1.186393    1.932276    0.994041
     15          1           0       -0.302949    2.525376   -0.431377
     16          1           0       -2.191852   -0.208833    0.804150
     17          1           0       -2.691234   -0.642596   -0.832884
     18          1           0       -1.259086   -2.385348    0.301495
     19          1           0       -0.677001   -1.874133   -1.282397
 ---------------------------------------------------------------------

 SCF Done:  E(RB3LYP) =  -423.196225942     A.U. after    1 cycles

 The electronic state is 1-A.
 Alpha  occ. eigenvalues --  -19.14631 -19.13419 -10.26436 -10.23998 -10.23542
 Alpha  occ. eigenvalues --  -10.19845 -10.19668 -10.19585 -10.19547  -1.04544
 Alpha  occ. eigenvalues --   -1.03633  -0.85594  -0.78584  -0.69364  -0.67648
 Alpha  occ. eigenvalues --   -0.62904  -0.57294  -0.52507  -0.50800  -0.48261
 Alpha  occ. eigenvalues --   -0.46525  -0.45967  -0.43049  -0.42329  -0.41519
 Alpha  occ. eigenvalues --   -0.40076  -0.38147  -0.37155  -0.34135  -0.33097
 Alpha  occ. eigenvalues --   -0.32858  -0.30764  -0.26250  -0.23534
 Alpha virt. eigenvalues --   -0.01440   0.07655   0.09963   0.10905   0.12332
 Alpha virt. eigenvalues --    0.13346   0.14291   0.14819   0.15798   0.16627
 Alpha virt. eigenvalues --    0.17312   0.18238   0.19713   0.20311   0.21246

 Mulliken charges:
               1
     1  O   -0.313338
     2  C    0.433890
     3  C   -0.123657
     4  C   -0.263296
     5  C   -0.148985
     6  C   -0.094483
     7  O   -0.242699
     8  C   -0.075737
     9  C   -0.225096
    10  H    0.092301
    11  H    0.103000
    12  H    0.111902
    13  H    0.091898
    14  H    0.095730
    15  H    0.125533
    16  H    0.092340
    17  H    0.112012
    18  H    0.104356
    19  H    0.124330
 Sum of Mulliken charges =   0.00000

 Dipole moment (field-independent basis, Debye):
    X=             -1.6037    Y=             -0.6020    Z=              2.9703  Tot=              3.4288
 Quadrupole moment (field-independent basis, Debye-Ang):
   XX=            -56.4604   YY=            -49.8094   ZZ=            -56.2368
   XY=              1.6917   XZ=              3.5792   YZ=              1.4753

  Exact polarizability:  76.070   2.977  77.944  -1.807   1.698  70.241
 Approx polarizability: 109.199   4.263 109.562  -8.933   0.693 112.457

                      1                      2                      3
                      A                      A                      A
 Frequencies --    128.3409               204.4465               223.2764
 Red. masses --      7.8160                 3.2069                 2.2710
 Frc consts  --      0.0759                 0.0790                 0.0667
 IR Inten    --      1.6204                 3.4023                 0.6538

                      4                      5                      6
                      A                      A                      A
 Frequencies --    308.9996               346.2009               379.7966
 Red. masses --      4.7632                 2.0827                 3.0671
 Frc consts  --      0.2680                 0.1471                 0.2607
 IR Inten    --      2.8640                 2.1728                 2.2303

                      7                      8                      9
                      A                      A                      A
 Frequencies --    444.2722               478.9622               588.1103
 Red. masses --      2.7284                 3.4671                 2.3728
 Frc consts  --      0.3173                 0.4686                 0.4835
 IR Inten    --      1.1873                 2.5986                 7.5063

                     10                     11                     12
                      A                      A                      A
 Frequencies --    645.4734               736.6831               773.9408
 Red. masses --      2.8565                 5.1804                 2.7156
 Frc consts  --      0.7012                 1.6564                 0.9584
 IR Inten    --      0.1977                 0.2794                 1.6884

                     13                     14                     15
                      A                      A                      A
 Frequencies --    803.7971               834.9027               890.1914
 Red. masses --      2.5797                 2.1907                 2.2628
 Frc consts  --      0.9820                 0.8997                 1.0565
 IR Inten    --      1.7821                 4.3509                11.2326

                     16                     17                     18
                      A                      A                      A
 Frequencies --    905.6938               930.1786               984.3659
 Red. masses --      2.8158                 2.2555                 1.7308
 Frc consts  --      1.3609                 1.1498                 0.9881
 IR Inten    --      9.6768                 4.5078                11.0222

                     19                     20                     21
                      A                      A                      A
 Frequencies --   1010.2747              1049.0692              1061.9388
 Red. masses --      2.3148                 2.0503                 2.1615
 Frc consts  --      1.3920                 1.3294                 1.4362
 IR Inten    --      3.6921                19.1136                39.1570

                     22                     23                     24
                      A                      A                      A
 Frequencies --   1073.5856              1093.9678              1138.8420
 Red. masses --      1.9614                 2.1204                 1.3372
 Frc consts  --      1.3319                 1.4951                 1.0218
 IR Inten    --      5.7746                16.9682                 2.3007

                     25                     26                     27
                      A                      A                      A
 Frequencies --   1158.4922              1175.7170              1199.9948
 Red. masses --      3.8733                 1.7296                 1.3606
 Frc consts  --      3.0628                 1.4086                 1.1543
 IR Inten    --     87.3135                 3.5041                 0.7369

                     28                     29                     30
                      A                      A                      A
 Frequencies --   1223.1081              1271.6090              1280.3363
 Red. masses --      1.6479                 1.4284                 1.3760
 Frc consts  --      1.4525                 1.3608                 1.3290
 IR Inten    --      7.8705                 8.4028                 2.6973

                     31                     32                     33
                      A                      A                      A
 Frequencies --   1299.0530              1310.4884              1333.7272
 Red. masses --      1.5597                 1.3400                 1.2274
 Frc consts  --      1.5507                 1.3559                 1.2864
 IR Inten    --      6.9902                16.4557                 1.9969

                     34                     35                     36
                      A                      A                      A
 Frequencies --   1377.3575              1396.5543              1418.0028
 Red. masses --      1.3506                 1.2451                 1.2859
 Frc consts  --      1.5096                 1.4307                 1.5233
 IR Inten    --      0.7709                 6.5401                 8.5865

                     37                     38                     39
                      A                      A                      A
 Frequencies --   1475.0097              1487.6718              1488.6707
 Red. masses --      1.0842                 1.0825                 1.1022
 Frc consts  --      1.3898                 1.4116                 1.4391
 IR Inten    --      2.5913                 0.8764                 2.8004

                     40                     41                     42
                      A                      A                      A
 Frequencies --   1511.0123              1895.5585              2971.6087
 Red. masses --      1.0898                12.2814                 1.0700
 Frc consts  --      1.4660                26.0000                 5.5670
 IR Inten    --      3.9682               257.8054                51.1403

                     43                     44                     45
                      A                      A                      A
 Frequencies --   2991.4337              3029.2077              3067.8973
 Red. masses --      1.0679                 1.0609                 1.0888
 Frc consts  --      5.6304                 5.7358                 6.0379
 IR Inten    --     43.4200                22.3551                33.8974

                     46                     47                     48
                      A                      A                      A
 Frequencies --   3069.9526              3078.1440              3079.5792
 Red. masses --      1.0718                 1.0869                 1.1002
 Frc consts  --      5.9513                 6.0678                 6.1476
 IR Inten    --     12.3750                17.3537                32.8391

                     49                     50                     51
                      A                      A                      A
 Frequencies --   3082.7921              3093.7918              3124.9535
 Red. masses --      1.0820                 1.0916                 1.1078
 Frc consts  --      6.0584                 6.1561                 6.3738
 IR Inten    --     29.6724                26.2255                21.6412

 - Thermochemistry -
 -------------------
 Temperature   298.150 Kelvin.  Pressure   1.00000 Atm.
 Atom     1 has atomic number  8 and mass  15.99491

 Molecular mass:   126.06808 amu.
 Principal axes and moments of inertia in atomic units:
                           1         2         3
     Eigenvalues --   795.130471031.730261167.68675
           X            0.99839   0.04197   0.03826
           Y           -0.04413   0.99738   0.05729
           Z           -0.03576  -0.05889   0.99762
 This molecule is an asymmetric top.
 Rotational symmetry number  1.
 Warning -- assumption of classical behavior for rotation
           may cause significant error
 Rotational temperatures (Kelvin)      0.10893     0.08395     0.07418
 Rotational constants (GHZ):           2.26974     1.74924     1.54557
 Zero-point vibrational energy     424237.9 (Joules/Mol)
                                  101.39529 (Kcal/Mol)
 Warning -- explicit consideration of   9 degrees of freedom as
           vibrations may cause significant error
 Vibrational temperatures:    184.65   294.15   321.24   444.58   498.11
          (Kelvin)            546.44   639.21   689.12   846.16   928.69
                             1059.92  1113.53  1156.48  1201.24  1280.79
                             1303.09  1338.32  1416.28  1453.56  1509.37
                             1527.89  1544.65  1573.97  1638.54  1666.81
                             1691.59  1726.52  1759.78  1829.56  1842.12
                             1869.05  1885.50  1918.93  1981.71  2009.33
                             2040.19  2122.21  2140.43  2141.86  2174.01
                             2727.28  4275.48  4304.00  4358.35  4414.01
                             4416.97  4428.76  4430.82  4435.44  4451.27
                             4496.11

 Zero-point correction=                           0.161584 (Hartree/Particle)
 Thermal correction to Energy=                    0.168961
 Thermal correction to Enthalpy=                  0.169905
 Thermal correction to Gibbs Free Energy=         0.130018
 Sum of electronic and zero-point Energies=           -423.034642
 Sum of electronic and thermal Energies=              -423.027265
 Sum of electronic and thermal Enthalpies=            -423.026321
 Sum of electronic and thermal Free Energies=         -423.066208

                     E (Thermal)             CV                S
                      KCal/Mol        Cal/Mol-Kelvin    Cal/Mol-Kelvin
 Total                  106.024             29.587             83.949
 Electronic               0.000              0.000              0.000
 Translational            0.889              2.981             40.409
 Rotational               0.889              2.981             28.351
 Vibrational            104.247             23.625             15.190
 Vibration     1          0.611              1.925              2.971
 Vibration     2          0.640              1.834              2.093
 Vibration     3          0.649              1.806              1.932
 Vibration     4          0.698              1.657              1.368
 Vibration     5          0.724              1.583              1.183
 Vibration     6          0.750              1.513              1.040
 Vibration     7          0.804              1.374              0.813
 Vibration     8          0.835              1.297              0.713
 Vibration     9          0.945              1.057              0.471

 Optimization completed.
    -- Stationary point found.
 Normal termination of Gaussian 09 at Mon Jan 27 13:39:19 2020.
