 Gaussian 09, Revision D.01,
 Gaussian 09:  ES64L-G09RevD.01 24-Apr-2013

 -----------------------------
 # b3lyp 6-31G(2df,p) opt Freq
 -----------------------------

 -----
 titel
 -----
 Symbolic Z-matrix:
 Charge =  0 Multiplicity = 1

 SCF Done:  E(RB3LYP) =  -423.204422141     A.U. after   14 cycles
 Optimization completed.
    -- Stationary point found.
 Normal termination of Gaussian 09 at Mon Jan 27 22:13:42 2020.

 ----------------------------------------------------------------------
 #N Geom=AllCheck Guess=TCheck SCRF=Check GenChk RB3LYP/6-31G(2df,p) Fr
 eq
 ----------------------------------------------------------------------

 Structure from the checkpoint file:  "/scratch/puck/g09_9fd7d4bb-0edb-44b0-82b4-c0c593e6ca49/Gau-28755.chk"
 -----
 titel
 -----
 Charge =  0 Multiplicity = 1

                         Standard orientation:
 ---------------------------------------------------------------------
 Center     Atomic      Atomic             Coordinates (Angstroms)
 Number     Number       Type             X           Y           Z
 ---------------------------------------------------------------------
      1          6           0        1.982651   -1.616317   -0.515787
      2          6           0        0.918900   -1.048038    0.431300
      3          6           0        1.262767    0.392425    0.880671
      4          6           0        0.481366    1.327976   -0.057648
      5          8           0        0.774969    2.469443   -0.318856
      6          6           0       -0.667979    0.558860   -0.612721
      7          6           0       -1.524113   -0.204673    0.412732
      8          8           0       -2.814456   -0.553459    0.024177
      9          6           0       -0.430697   -0.915920   -0.286359
     10          1           0        2.951702   -1.694244   -0.013135
     11          1           0        1.703812   -2.614402   -0.869049
     12          1           0        2.110977   -0.973777   -1.394258
     13          1           0        0.823011   -1.715972    1.295176
     14          1           0        0.935376    0.590947    1.909018
     15          1           0        2.329921    0.621571    0.839891
     16          1           0       -1.163750    0.902181   -1.511472
     17          1           0       -1.410837    0.046933    1.467749
     18          1           0       -3.378268    0.221737    0.120047
     19          1           0       -0.723418   -1.678724   -0.999674
 ---------------------------------------------------------------------

 SCF Done:  E(RB3LYP) =  -423.204422142     A.U. after    1 cycles

 The electronic state is 1-A.
 Alpha  occ. eigenvalues --  -19.15825 -19.12002 -10.26286 -10.25423 -10.20383
 Alpha  occ. eigenvalues --  -10.20325 -10.19607 -10.18902 -10.18241  -1.04532
 Alpha  occ. eigenvalues --   -1.03098  -0.88776  -0.78468  -0.71885  -0.65550
 Alpha  occ. eigenvalues --   -0.62362  -0.57141  -0.54365  -0.53334  -0.48085
 Alpha  occ. eigenvalues --   -0.46825  -0.44725  -0.43169  -0.40917  -0.40155
 Alpha  occ. eigenvalues --   -0.39432  -0.38326  -0.35923  -0.35038  -0.34250
 Alpha  occ. eigenvalues --   -0.32879  -0.29805  -0.26562  -0.23417
 Alpha virt. eigenvalues --   -0.01056   0.06820   0.08572   0.09998   0.11931
 Alpha virt. eigenvalues --    0.13061   0.14477   0.14563   0.15906   0.17208
 Alpha virt. eigenvalues --    0.17884   0.19426   0.20118   0.20605   0.22550

 Mulliken charges:
               1
     1  C   -0.395651
     2  C   -0.005576
     3  C   -0.358035
     4  C    0.416342
     5  O   -0.337562
     6  C   -0.205913
     7  C    0.073335
     8  O   -0.424550
     9  C   -0.054974
    10  H    0.117635
    11  H    0.117115
    12  H    0.124895
    13  H    0.080196
    14  H    0.125255
    15  H    0.127252
    16  H    0.107598
    17  H    0.095152
    18  H    0.293396
    19  H    0.104090
 Sum of Mulliken charges =   0.00000

 Dipole moment (field-independent basis, Debye):
    X=             -0.7573    Y=             -1.8496    Z=              0.9875  Tot=              2.2293
 Quadrupole moment (field-independent basis, Debye-Ang):
   XX=            -50.1163   YY=            -62.3634   ZZ=            -51.2552
   XY=             -7.7568   XZ=              0.2481   YZ=              1.9100

  Exact polarizability:  84.426   0.776  79.560   1.771  -1.168  64.059
 Approx polarizability: 114.442   8.508 124.618   0.799  -5.968  99.059

                      1                      2                      3
                      A                      A                      A
 Frequencies --     90.1191               161.2694               189.7513
 Red. masses --      3.4942                 3.8134                 2.8853
 Frc consts  --      0.0167                 0.0584                 0.0612
 IR Inten    --      2.4149                 6.4293                 0.1300

                      4                      5                      6
                      A                      A                      A
 Frequencies --    248.1823               264.0101               332.3376
 Red. masses --      1.0644                 3.3084                 1.2367
 Frc consts  --      0.0386                 0.1359                 0.0805
 IR Inten    --      1.0067                 8.2223               103.8521

                      7                      8                      9
                      A                      A                      A
 Frequencies --    344.1682               401.4015               440.2738
 Red. masses --      2.4565                 2.6724                 3.7652
 Frc consts  --      0.1714                 0.2537                 0.4300
 IR Inten    --      1.2547                16.7423                 5.3221

                     10                     11                     12
                      A                      A                      A
 Frequencies --    475.6845               530.0718               635.1769
 Red. masses --      3.9461                 3.4568                 4.1244
 Frc consts  --      0.5261                 0.5723                 0.9804
 IR Inten    --      5.7487                 4.4717                 2.8241

                     13                     14                     15
                      A                      A                      A
 Frequencies --    681.1328               809.7039               822.8164
 Red. masses --      3.2987                 3.6874                 2.6070
 Frc consts  --      0.9017                 1.4244                 1.0399
 IR Inten    --      2.7353                 2.1752                 3.8046

                     16                     17                     18
                      A                      A                      A
 Frequencies --    839.8937               913.6856               916.7631
 Red. masses --      2.5291                 2.0079                 2.0416
 Frc consts  --      1.0512                 0.9876                 1.0110
 IR Inten    --      4.4207                 7.2422                22.7437

                     19                     20                     21
                      A                      A                      A
 Frequencies --    941.0413               988.4827              1020.4014
 Red. masses --      2.0734                 1.8419                 1.6152
 Frc consts  --      1.0818                 1.0604                 0.9909
 IR Inten    --      2.4517                22.5602                11.1325

                     22                     23                     24
                      A                      A                      A
 Frequencies --   1043.7505              1069.8489              1081.4583
 Red. masses --      1.6096                 1.1355                 1.7689
 Frc consts  --      1.0331                 0.7658                 1.2189
 IR Inten    --     16.7610                10.9663                 4.5095

                     25                     26                     27
                      A                      A                      A
 Frequencies --   1137.7253              1146.1439              1171.1076
 Red. masses --      1.9676                 1.4253                 2.0151
 Frc consts  --      1.5006                 1.1032                 1.6283
 IR Inten    --     42.0841                38.2135                 2.2366

                     28                     29                     30
                      A                      A                      A
 Frequencies --   1190.3434              1202.1666              1252.9623
 Red. masses --      2.8632                 1.7183                 1.7304
 Frc consts  --      2.3903                 1.4631                 1.6006
 IR Inten    --     44.4528                 1.6375                 0.6706

                     31                     32                     33
                      A                      A                      A
 Frequencies --   1263.5163              1308.3719              1320.2491
 Red. masses --      1.6088                 1.2974                 1.4342
 Frc consts  --      1.5132                 1.3086                 1.4729
 IR Inten    --    132.5187                 6.1320                16.1447

                     34                     35                     36
                      A                      A                      A
 Frequencies --   1326.8050              1371.2626              1411.5004
 Red. masses --      1.5966                 1.5447                 1.2309
 Frc consts  --      1.6560                 1.7113                 1.4449
 IR Inten    --     13.8294                 3.7375                 3.5054

                     37                     38                     39
                      A                      A                      A
 Frequencies --   1457.3816              1469.3396              1497.6972
 Red. masses --      1.1186                 2.0542                 1.0510
 Frc consts  --      1.3998                 2.6129                 1.3890
 IR Inten    --      7.7568                19.1646                 2.3466

                     40                     41                     42
                      A                      A                      A
 Frequencies --   1498.7216              1827.0451              3028.5828
 Red. masses --      1.0472                12.2690                 1.0658
 Frc consts  --      1.3859                24.1300                 5.7599
 IR Inten    --      4.6162               279.1374                23.2204

                     43                     44                     45
                      A                      A                      A
 Frequencies --   3030.8557              3042.6228              3092.0251
 Red. masses --      1.0467                 1.0746                 1.0875
 Frc consts  --      5.6651                 5.8610                 6.1258
 IR Inten    --     16.2789                15.6668                26.1568

                     46                     47                     48
                      A                      A                      A
 Frequencies --   3099.5062              3104.9252              3110.3244
 Red. masses --      1.1011                 1.1016                 1.0952
 Frc consts  --      6.2324                 6.2573                 6.2427
 IR Inten    --     28.6567                20.3805                15.1909

                     49                     50                     51
                      A                      A                      A
 Frequencies --   3176.3188              3207.0202              3804.3659
 Red. masses --      1.0900                 1.0922                 1.0662
 Frc consts  --      6.4792                 6.6182                 9.0917
 IR Inten    --      5.8035                 2.8409                31.3770

 - Thermochemistry -
 -------------------
 Temperature   298.150 Kelvin.  Pressure   1.00000 Atm.
 Atom     1 has atomic number  6 and mass  12.00000

 Molecular mass:   126.06808 amu.
 Principal axes and moments of inertia in atomic units:
                           1         2         3
     Eigenvalues --   852.902101175.470471755.87372
           X            0.99147  -0.13036   0.00053
           Y            0.13032   0.99125   0.02079
           Z           -0.00323  -0.02055   0.99978
 This molecule is an asymmetric top.
 Rotational symmetry number  1.
 Warning -- assumption of classical behavior for rotation
           may cause significant error
 Rotational temperatures (Kelvin)      0.10155     0.07368     0.04933
 Rotational constants (GHZ):           2.11600     1.53534     1.02783
 Zero-point vibrational energy     417438.8 (Joules/Mol)
                                   99.77026 (Kcal/Mol)
 Warning -- explicit consideration of  11 degrees of freedom as
           vibrations may cause significant error
 Vibrational temperatures:    129.66   232.03   273.01   357.08   379.85
          (Kelvin)            478.16   495.18   577.53   633.45   684.40
                              762.65   913.88   980.00  1164.98  1183.85
                             1208.42  1314.59  1319.02  1353.95  1422.20
                             1468.13  1501.72  1539.27  1555.98  1636.93
                             1649.04  1684.96  1712.64  1729.65  1802.73
                             1817.92  1882.45  1899.54  1908.97  1972.94
                             2030.83  2096.84  2114.05  2154.85  2156.32
                             2628.71  4357.45  4360.72  4377.65  4448.73
                             4459.49  4467.29  4475.06  4570.01  4614.18
                             5473.63

 Zero-point correction=                           0.158994 (Hartree/Particle)
 Thermal correction to Energy=                    0.167487
 Thermal correction to Enthalpy=                  0.168431
 Thermal correction to Gibbs Free Energy=         0.126032
 Sum of electronic and zero-point Energies=           -423.045428
 Sum of electronic and thermal Energies=              -423.036935
 Sum of electronic and thermal Enthalpies=            -423.035991
 Sum of electronic and thermal Free Energies=         -423.078390

                     E (Thermal)             CV                S
                      KCal/Mol        Cal/Mol-Kelvin    Cal/Mol-Kelvin
 Total                  105.100             32.899             89.237
 Electronic               0.000              0.000              0.000
 Translational            0.889              2.981             40.409
 Rotational               0.889              2.981             28.956
 Vibrational            103.322             26.938             19.873
 Vibration     1          0.602              1.956              3.657
 Vibration     2          0.622              1.890              2.535
 Vibration     3          0.633              1.854              2.230
 Vibration     4          0.662              1.766              1.743
 Vibration     5          0.671              1.739              1.635
 Vibration     6          0.714              1.611              1.249
 Vibration     7          0.723              1.587              1.193
 Vibration     8          0.767              1.467              0.958
 Vibration     9          0.800              1.382              0.826
 Vibration    10          0.832              1.304              0.722
 Vibration    11          0.885              1.183              0.587

 Normal termination of Gaussian 09 at Tue Jan 28 00:24:28 2020.
