 Gaussian 09, Revision D.01,
 Gaussian 09:  ES64L-G09RevD.01 24-Apr-2013

 -----------------------------
 # b3lyp 6-31G(2df,p) opt Freq
 -----------------------------

 -----
 titel
 -----
 Symbolic Z-matrix:
 Charge =  0 Multiplicity = 1

 SCF Done:  E(RB3LYP) =  -423.154355365     A.U. after   14 cycles
 Optimization completed.
    -- Stationary point found.
 Normal termination of Gaussian 09 at Mon Jan 27 16:57:04 2020.

 ----------------------------------------------------------------------
 #N Geom=AllCheck Guess=TCheck SCRF=Check GenChk RB3LYP/6-31G(2df,p) Fr
 eq
 ----------------------------------------------------------------------

 Structure from the checkpoint file:  "/scratch/puck/g09_62419f69-1f88-474a-a32e-257abdd08f49/Gau-64899.chk"
 -----
 titel
 -----
 Charge =  0 Multiplicity = 1

                         Standard orientation:
 ---------------------------------------------------------------------
 Center     Atomic      Atomic             Coordinates (Angstroms)
 Number     Number       Type             X           Y           Z
 ---------------------------------------------------------------------
      1          8           0       -1.536266   -1.597234    0.168727
      2          6           0       -0.673356   -0.462415    0.082851
      3          6           0        0.208502   -0.339907    1.347493
      4          6           0        1.368504    0.639021    1.121202
      5          6           0        2.125849    0.264112   -0.152697
      6          8           0        1.259143    0.210652   -1.275720
      7          6           0        0.243460   -0.752989   -1.128687
      8          6           0       -1.452926    0.762250   -0.130586
      9          6           0       -2.127754    1.747791   -0.269708
     10          1           0       -2.276407   -1.362187    0.738320
     11          1           0       -0.405860   -0.039338    2.202716
     12          1           0        0.593737   -1.345529    1.555228
     13          1           0        0.980962    1.658654    1.020463
     14          1           0        2.051144    0.628076    1.978235
     15          1           0        2.890348    1.007041   -0.396028
     16          1           0        2.627375   -0.710547   -0.019708
     17          1           0       -0.344116   -0.748981   -2.048810
     18          1           0        0.663196   -1.761893   -0.982444
     19          1           0       -2.717068    2.620179   -0.411236
 ---------------------------------------------------------------------

 SCF Done:  E(RB3LYP) =  -423.154355365     A.U. after    1 cycles

 The electronic state is 1-A.
 Alpha  occ. eigenvalues --  -19.14482 -19.14031 -10.25963 -10.22735 -10.22715
 Alpha  occ. eigenvalues --  -10.18811 -10.18485 -10.18373 -10.18000  -1.03983
 Alpha  occ. eigenvalues --   -1.02537  -0.80538  -0.77153  -0.73404  -0.65315
 Alpha  occ. eigenvalues --   -0.64166  -0.58954  -0.53744  -0.51077  -0.49883
 Alpha  occ. eigenvalues --   -0.47481  -0.45426  -0.44731  -0.41092  -0.40144
 Alpha  occ. eigenvalues --   -0.38533  -0.36110  -0.35386  -0.34498  -0.30486
 Alpha  occ. eigenvalues --   -0.28959  -0.27752  -0.27172  -0.24537
 Alpha virt. eigenvalues --    0.03077   0.05155   0.08599   0.10217   0.12020
 Alpha virt. eigenvalues --    0.12666   0.13569   0.14810   0.15318   0.16682
 Alpha virt. eigenvalues --    0.17508   0.18685   0.19717   0.21028   0.21656

 Mulliken charges:
               1
     1  O   -0.459815
     2  C    0.175909
     3  C   -0.243069
     4  C   -0.215511
     5  C   -0.062075
     6  O   -0.242040
     7  C   -0.092822
     8  C    0.336926
     9  C   -0.511943
    10  H    0.284045
    11  H    0.096296
    12  H    0.105736
    13  H    0.119218
    14  H    0.097668
    15  H    0.107604
    16  H    0.085555
    17  H    0.120623
    18  H    0.095986
    19  H    0.201708
 Sum of Mulliken charges =   0.00000

 Dipole moment (field-independent basis, Debye):
    X=             -0.1710    Y=              0.5109    Z=              1.8419  Tot=              1.9191
 Quadrupole moment (field-independent basis, Debye-Ang):
   XX=            -48.2352   YY=            -52.9712   ZZ=            -54.0650
   XY=             -2.9664   XZ=              0.5524   YZ=             -0.1677

  Exact polarizability:  84.568  -8.453  79.776   2.912  -1.134  65.695
 Approx polarizability: 114.324 -17.734 128.938   3.681  -4.487  94.603

                      1                      2                      3
                      A                      A                      A
 Frequencies --    106.1791               139.5704               197.4057
 Red. masses --      3.6197                 3.7703                 2.0046
 Frc consts  --      0.0240                 0.0433                 0.0460
 IR Inten    --      1.6016                 1.4364                15.5375

                      4                      5                      6
                      A                      A                      A
 Frequencies --    226.5403               255.1763               320.1929
 Red. masses --      1.3408                 2.2308                 4.0536
 Frc consts  --      0.0405                 0.0856                 0.2449
 IR Inten    --     81.3663                 1.9842                 2.3078

                      7                      8                      9
                      A                      A                      A
 Frequencies --    337.1750               399.3695               433.4149
 Red. masses --      3.1858                 3.3049                 2.7206
 Frc consts  --      0.2134                 0.3106                 0.3011
 IR Inten    --      5.1826                 5.8684                 6.4896

                     10                     11                     12
                      A                      A                      A
 Frequencies --    454.4321               544.9293               571.6548
 Red. masses --      3.8313                 2.4815                 5.1006
 Frc consts  --      0.4662                 0.4342                 0.9821
 IR Inten    --      0.0624                 4.0545                 6.6481

                     13                     14                     15
                      A                      A                      A
 Frequencies --    627.8611               640.3652               666.7916
 Red. masses --      1.2462                 3.9837                 1.2510
 Frc consts  --      0.2894                 0.9625                 0.3277
 IR Inten    --     39.7804                 8.6135                35.0987

                     16                     17                     18
                      A                      A                      A
 Frequencies --    695.2275               848.7572               881.9719
 Red. masses --      3.3251                 2.4507                 1.5905
 Frc consts  --      0.9469                 1.0402                 0.7289
 IR Inten    --      4.2179                 1.8265                 9.8412

                     19                     20                     21
                      A                      A                      A
 Frequencies --    905.1358               938.9990               983.0051
 Red. masses --      2.0477                 2.6229                 2.6113
 Frc consts  --      0.9884                 1.3626                 1.4867
 IR Inten    --      2.5127                30.2889                48.0547

                     22                     23                     24
                      A                      A                      A
 Frequencies --   1029.3069              1043.7237              1086.5811
 Red. masses --      1.6967                 1.8950                 3.7631
 Frc consts  --      1.0591                 1.2163                 2.6177
 IR Inten    --      2.0016                 3.6410                86.6505

                     25                     26                     27
                      A                      A                      A
 Frequencies --   1126.1859              1139.6163              1197.2868
 Red. masses --      3.5310                 2.9796                 2.4619
 Frc consts  --      2.6385                 2.2800                 2.0793
 IR Inten    --     85.4958                31.1836                 0.0871

                     28                     29                     30
                      A                      A                      A
 Frequencies --   1210.1050              1238.0797              1289.7943
 Red. masses --      1.3419                 1.4409                 1.3181
 Frc consts  --      1.1577                 1.3013                 1.2919
 IR Inten    --     17.1222                 8.4067                29.5196

                     31                     32                     33
                      A                      A                      A
 Frequencies --   1322.0446              1339.1627              1373.6235
 Red. masses --      1.2305                 1.3499                 1.4816
 Frc consts  --      1.2672                 1.4264                 1.6471
 IR Inten    --      3.4153                 6.7460                36.1101

                     34                     35                     36
                      A                      A                      A
 Frequencies --   1375.2507              1394.2086              1415.0749
 Red. masses --      1.3513                 1.5205                 1.3203
 Frc consts  --      1.5058                 1.7414                 1.5577
 IR Inten    --      8.3674                16.0469                 9.3563

                     37                     38                     39
                      A                      A                      A
 Frequencies --   1475.7582              1484.4527              1489.7972
 Red. masses --      1.0861                 1.0982                 1.0811
 Frc consts  --      1.3937                 1.4258                 1.4138
 IR Inten    --      3.6666                 5.3433                 0.1564

                     40                     41                     42
                      A                      A                      A
 Frequencies --   1504.0748              2227.6826              2955.5436
 Red. masses --      1.1005                 5.9161                 1.0712
 Frc consts  --      1.4669                17.2978                 5.5129
 IR Inten    --      4.1144                 0.9348                51.6628

                     43                     44                     45
                      A                      A                      A
 Frequencies --   2977.5980              3032.3426              3040.9294
 Red. masses --      1.0692                 1.0595                 1.0605
 Frc consts  --      5.5854                 5.7400                 5.7781
 IR Inten    --     51.7174                23.6356                19.1189

                     46                     47                     48
                      A                      A                      A
 Frequencies --   3077.0470              3086.6190              3092.7284
 Red. masses --      1.1027                 1.0965                 1.0992
 Frc consts  --      6.1512                 6.1551                 6.1946
 IR Inten    --     21.1608                44.1915                33.6426

                     49                     50                     51
                      A                      A                      A
 Frequencies --   3112.8246              3500.1675              3815.7119
 Red. masses --      1.0941                 1.1619                 1.0664
 Frc consts  --      6.2464                 8.3865                 9.1479
 IR Inten    --     20.0248                64.4517                26.3184

 - Thermochemistry -
 -------------------
 Temperature   298.150 Kelvin.  Pressure   1.00000 Atm.
 Atom     1 has atomic number  8 and mass  15.99491

 Molecular mass:   126.06808 amu.
 Principal axes and moments of inertia in atomic units:
                           1         2         3
     Eigenvalues --   781.847721280.799461361.19867
           X            0.99969  -0.01399   0.02058
           Y            0.01259   0.99769   0.06674
           Z           -0.02147  -0.06646   0.99756
 This molecule is an asymmetric top.
 Rotational symmetry number  1.
 Warning -- assumption of classical behavior for rotation
           may cause significant error
 Rotational temperatures (Kelvin)      0.11078     0.06762     0.06363
 Rotational constants (GHZ):           2.30830     1.40907     1.32585
 Zero-point vibrational energy     416464.8 (Joules/Mol)
                                   99.53747 (Kcal/Mol)
 Warning -- explicit consideration of  12 degrees of freedom as
           vibrations may cause significant error
 Vibrational temperatures:    152.77   200.81   284.02   325.94   367.14
          (Kelvin)            460.69   485.12   574.60   623.59   653.83
                              784.03   822.48   903.35   921.34   959.36
                             1000.28  1221.17  1268.96  1302.29  1351.01
                             1414.32  1480.94  1501.68  1563.35  1620.33
                             1639.65  1722.63  1741.07  1781.32  1855.72
                             1902.12  1926.75  1976.34  1978.68  2005.95
                             2035.97  2123.28  2135.79  2143.48  2164.03
                             3205.13  4252.36  4284.09  4362.86  4375.21
                             4427.18  4440.95  4449.74  4478.65  5035.95
                             5489.95

 Zero-point correction=                           0.158623 (Hartree/Particle)
 Thermal correction to Energy=                    0.167446
 Thermal correction to Enthalpy=                  0.168390
 Thermal correction to Gibbs Free Energy=         0.125636
 Sum of electronic and zero-point Energies=           -422.995732
 Sum of electronic and thermal Energies=              -422.986910
 Sum of electronic and thermal Enthalpies=            -422.985965
 Sum of electronic and thermal Free Energies=         -423.028719

                     E (Thermal)             CV                S
                      KCal/Mol        Cal/Mol-Kelvin    Cal/Mol-Kelvin
 Total                  105.074             34.248             89.982
 Electronic               0.000              0.000              0.000
 Translational            0.889              2.981             40.409
 Rotational               0.889              2.981             28.701
 Vibrational            103.296             28.287             20.873
 Vibration     1          0.605              1.944              3.338
 Vibration     2          0.615              1.914              2.810
 Vibration     3          0.637              1.844              2.157
 Vibration     4          0.650              1.801              1.906
 Vibration     5          0.666              1.754              1.695
 Vibration     6          0.706              1.635              1.309
 Vibration     7          0.718              1.601              1.225
 Vibration     8          0.765              1.471              0.965
 Vibration     9          0.794              1.397              0.848
 Vibration    10          0.813              1.351              0.782
 Vibration    11          0.900              1.151              0.555
 Vibration    12          0.928              1.093              0.501

 Optimization completed.
    -- Stationary point found.
 Normal termination of Gaussian 09 at Mon Jan 27 17:43:15 2020.
