 Gaussian 09, Revision D.01,
 Gaussian 09:  ES64L-G09RevD.01 24-Apr-2013

 -----------------------------
 # b3lyp 6-31G(2df,p) opt Freq
 -----------------------------

 -----
 titel
 -----
 Symbolic Z-matrix:
 Charge =  0 Multiplicity = 1

 SCF Done:  E(RB3LYP) =  -423.197353712     A.U. after   14 cycles
 Optimization completed.
    -- Stationary point found.
 Normal termination of Gaussian 09 at Tue Jan 28 11:36:02 2020.

 ----------------------------------------------------------------------
 #N Geom=AllCheck Guess=TCheck SCRF=Check GenChk RB3LYP/6-31G(2df,p) Fr
 eq
 ----------------------------------------------------------------------

 Structure from the checkpoint file:  "/scratch/puck/g09_6a6a8c42-201d-458a-8faa-dfc7d56198c0/Gau-26203.chk"
 -----
 titel
 -----
 Charge =  0 Multiplicity = 1

                         Standard orientation:
 ---------------------------------------------------------------------
 Center     Atomic      Atomic             Coordinates (Angstroms)
 Number     Number       Type             X           Y           Z
 ---------------------------------------------------------------------
      1          6           0       -2.999898   -0.598884    0.115565
      2          6           0       -1.885208    0.375514   -0.268182
      3          6           0       -0.542663    0.026007    0.367507
      4          8           0       -0.070329   -1.236608   -0.109254
      5          6           0        1.286235   -1.142490   -0.464370
      6          6           0        2.251815   -0.764415    0.602710
      7          6           0        1.756890    0.292672   -0.399908
      8          6           0        0.553134    1.057106    0.027988
      9          8           0        0.403424    2.253211    0.053733
     10          1           0       -3.940888   -0.326853   -0.371661
     11          1           0       -2.743808   -1.619189   -0.183283
     12          1           0       -3.170791   -0.598297    1.197906
     13          1           0       -1.756284    0.394239   -1.356808
     14          1           0       -2.128845    1.397962    0.040704
     15          1           0       -0.657646   -0.012524    1.463163
     16          1           0        1.557463   -1.821890   -1.263560
     17          1           0        1.908396   -0.712460    1.630156
     18          1           0        3.287956   -1.059949    0.482744
     19          1           0        2.457849    0.753078   -1.083051
 ---------------------------------------------------------------------

 SCF Done:  E(RB3LYP) =  -423.197353712     A.U. after    1 cycles

 The electronic state is 1-A.
 Alpha  occ. eigenvalues --  -19.15494 -19.13310 -10.27153 -10.25513 -10.24032
 Alpha  occ. eigenvalues --  -10.20850 -10.20693 -10.18621 -10.17431  -1.06220
 Alpha  occ. eigenvalues --   -1.03881  -0.86690  -0.78900  -0.71737  -0.65363
 Alpha  occ. eigenvalues --   -0.62131  -0.58547  -0.55662  -0.51916  -0.49355
 Alpha  occ. eigenvalues --   -0.45523  -0.44600  -0.43105  -0.42427  -0.40289
 Alpha  occ. eigenvalues --   -0.39450  -0.38196  -0.36373  -0.35666  -0.34563
 Alpha  occ. eigenvalues --   -0.33593  -0.30097  -0.26132  -0.23668
 Alpha virt. eigenvalues --   -0.02101   0.08578   0.09561   0.11114   0.12067
 Alpha virt. eigenvalues --    0.13738   0.14700   0.14988   0.15773   0.16698
 Alpha virt. eigenvalues --    0.17242   0.18698   0.19615   0.20738   0.23056

 Mulliken charges:
               1
     1  C   -0.392590
     2  C   -0.172180
     3  C   -0.003931
     4  O   -0.273367
     5  C    0.111806
     6  C   -0.324648
     7  C   -0.190314
     8  C    0.391062
     9  O   -0.331688
    10  H    0.114728
    11  H    0.134098
    12  H    0.113861
    13  H    0.103480
    14  H    0.121057
    15  H    0.101356
    16  H    0.115101
    17  H    0.133274
    18  H    0.131134
    19  H    0.117760
 Sum of Mulliken charges =   0.00000

 Dipole moment (field-independent basis, Debye):
    X=              1.0296    Y=             -1.8422    Z=             -0.1109  Tot=              2.1133
 Quadrupole moment (field-independent basis, Debye-Ang):
   XX=            -47.3821   YY=            -62.3526   ZZ=            -50.6103
   XY=             -3.3017   XZ=             -1.2172   YZ=              0.2004

  Exact polarizability:  90.456  -4.415  75.249  -1.077  -0.518  62.509
 Approx polarizability: 112.429  -6.592 123.323  -1.290  -0.229  96.633

                      1                      2                      3
                      A                      A                      A
 Frequencies --     69.7821               101.7741               167.0544
 Red. masses --      4.1524                 2.2668                 2.8661
 Frc consts  --      0.0119                 0.0138                 0.0471
 IR Inten    --      3.2575                 1.2003                 2.4357

                      4                      5                      6
                      A                      A                      A
 Frequencies --    190.4163               242.6154               305.8325
 Red. masses --      2.6101                 1.3174                 3.7706
 Frc consts  --      0.0558                 0.0457                 0.2078
 IR Inten    --      0.6326                 1.3602                 4.7801

                      7                      8                      9
                      A                      A                      A
 Frequencies --    387.4451               439.5826               489.5260
 Red. masses --      2.7273                 3.0203                 3.6826
 Frc consts  --      0.2412                 0.3439                 0.5199
 IR Inten    --      0.5379                 5.3016                 8.0723

                     10                     11                     12
                      A                      A                      A
 Frequencies --    596.3156               658.6123               692.6048
 Red. masses --      5.4686                 4.6577                 3.0321
 Frc consts  --      1.1457                 1.1904                 0.8570
 IR Inten    --      1.6913                 2.5177                 1.1235

                     13                     14                     15
                      A                      A                      A
 Frequencies --    766.0116               796.4872               815.6371
 Red. masses --      1.4761                 2.3063                 1.9282
 Frc consts  --      0.5103                 0.8620                 0.7558
 IR Inten    --      5.6679                11.9645                20.2669

                     16                     17                     18
                      A                      A                      A
 Frequencies --    859.6697               909.7234               944.3889
 Red. masses --      2.2616                 2.2932                 1.9193
 Frc consts  --      0.9847                 1.1182                 1.0085
 IR Inten    --      8.0866                 5.1718                 5.5097

                     19                     20                     21
                      A                      A                      A
 Frequencies --    963.9589               996.9087              1002.8983
 Red. masses --      1.8538                 2.2775                 2.3288
 Frc consts  --      1.0149                 1.3336                 1.3800
 IR Inten    --     10.9615                37.3995                29.8518

                     22                     23                     24
                      A                      A                      A
 Frequencies --   1040.0344              1068.9574              1092.0434
 Red. masses --      1.2541                 2.1563                 1.2995
 Frc consts  --      0.7992                 1.4517                 0.9131
 IR Inten    --      3.1861                15.9652                 0.8540

                     25                     26                     27
                      A                      A                      A
 Frequencies --   1120.2361              1142.4941              1149.7413
 Red. masses --      1.8355                 2.0633                 3.0138
 Frc consts  --      1.3571                 1.5868                 2.3473
 IR Inten    --      6.2352                 2.0806                57.7974

                     28                     29                     30
                      A                      A                      A
 Frequencies --   1182.1129              1219.0923              1279.1026
 Red. masses --      1.6218                 2.4792                 1.4420
 Frc consts  --      1.3352                 2.1709                 1.3900
 IR Inten    --      8.2230                98.7990                 1.1819

                     31                     32                     33
                      A                      A                      A
 Frequencies --   1284.2838              1312.5440              1332.8691
 Red. masses --      1.2654                 1.8350                 1.4562
 Frc consts  --      1.2297                 1.8626                 1.5242
 IR Inten    --      1.0708                28.8164                 7.4391

                     34                     35                     36
                      A                      A                      A
 Frequencies --   1383.0203              1388.1082              1410.8216
 Red. masses --      1.5873                 1.4735                 1.2434
 Frc consts  --      1.7889                 1.6728                 1.4582
 IR Inten    --      1.5795                24.2668                 0.8108

                     37                     38                     39
                      A                      A                      A
 Frequencies --   1476.6475              1477.5599              1497.0016
 Red. masses --      1.0796                 1.2327                 1.0423
 Frc consts  --      1.3870                 1.5856                 1.3762
 IR Inten    --      1.1698                11.2911                 5.0666

                     40                     41                     42
                      A                      A                      A
 Frequencies --   1508.0582              1836.3101              2973.3267
 Red. masses --      1.0558                12.5179                 1.0806
 Frc consts  --      1.4147                24.8698                 5.6284
 IR Inten    --      4.1299               224.1547                21.9364

                     43                     44                     45
                      A                      A                      A
 Frequencies --   3035.9671              3039.4180              3080.8987
 Red. masses --      1.0417                 1.0556                 1.0999
 Frc consts  --      5.6571                 5.7455                 6.1512
 IR Inten    --     16.0058                25.5398                 5.0293

                     46                     47                     48
                      A                      A                      A
 Frequencies --   3104.5402              3119.6352              3137.1525
 Red. masses --      1.1013                 1.1017                 1.0538
 Frc consts  --      6.2538                 6.3170                 6.1104
 IR Inten    --     36.8575                24.6938                 7.0781

                     49                     50                     51
                      A                      A                      A
 Frequencies --   3187.4647              3208.3938              3228.6788
 Red. masses --      1.0923                 1.0947                 1.1159
 Frc consts  --      6.5386                 6.6392                 6.8536
 IR Inten    --     13.8422                 1.6743                 4.4071

 - Thermochemistry -
 -------------------
 Temperature   298.150 Kelvin.  Pressure   1.00000 Atm.
 Atom     1 has atomic number  6 and mass  12.00000

 Molecular mass:   126.06808 amu.
 Principal axes and moments of inertia in atomic units:
                           1         2         3
     Eigenvalues --   651.913911306.091641793.13301
           X            0.99996  -0.00929  -0.00136
           Y            0.00928   0.99993  -0.00723
           Z            0.00143   0.00721   0.99997
 This molecule is an asymmetric top.
 Rotational symmetry number  1.
 Warning -- assumption of classical behavior for rotation
           may cause significant error
 Rotational temperatures (Kelvin)      0.13286     0.06632     0.04830
 Rotational constants (GHZ):           2.76837     1.38179     1.00647
 Zero-point vibrational energy     416980.9 (Joules/Mol)
                                   99.66082 (Kcal/Mol)
 Warning -- explicit consideration of  10 degrees of freedom as
           vibrations may cause significant error
 Vibrational temperatures:    100.40   146.43   240.35   273.97   349.07
          (Kelvin)            440.02   557.45   632.46   704.32   857.96
                              947.59   996.50  1102.12  1145.97  1173.52
                             1236.87  1308.89  1358.76  1386.92  1434.33
                             1442.95  1496.38  1537.99  1571.20  1611.77
                             1643.79  1654.22  1700.79  1754.00  1840.34
                             1847.80  1888.46  1917.70  1989.86  1997.18
                             2029.86  2124.56  2125.88  2153.85  2169.76
                             2642.04  4277.95  4368.07  4373.04  4432.72
                             4466.74  4488.45  4513.66  4586.05  4616.16
                             4645.34

 Zero-point correction=                           0.158820 (Hartree/Particle)
 Thermal correction to Energy=                    0.167304
 Thermal correction to Enthalpy=                  0.168248
 Thermal correction to Gibbs Free Energy=         0.125323
 Sum of electronic and zero-point Energies=           -423.038534
 Sum of electronic and thermal Energies=              -423.030050
 Sum of electronic and thermal Enthalpies=            -423.029106
 Sum of electronic and thermal Free Energies=         -423.072030

                     E (Thermal)             CV                S
                      KCal/Mol        Cal/Mol-Kelvin    Cal/Mol-Kelvin
 Total                  104.985             31.985             90.342
 Electronic               0.000              0.000              0.000
 Translational            0.889              2.981             40.409
 Rotational               0.889              2.981             28.814
 Vibrational            103.207             26.024             21.120
 Vibration     1          0.598              1.969              4.159
 Vibration     2          0.604              1.948              3.420
 Vibration     3          0.624              1.883              2.468
 Vibration     4          0.634              1.853              2.224
 Vibration     5          0.659              1.775              1.784
 Vibration     6          0.696              1.663              1.385
 Vibration     7          0.756              1.497              1.010
 Vibration     8          0.800              1.384              0.828
 Vibration     9          0.845              1.273              0.685
 Vibration    10          0.954              1.040              0.456

 Normal termination of Gaussian 09 at Tue Jan 28 12:16:29 2020.
