 Gaussian 09, Revision D.01,
 Gaussian 09:  ES64L-G09RevD.01 24-Apr-2013

 -----------------------------
 # b3lyp 6-31G(2df,p) opt Freq
 -----------------------------

 -----
 titel
 -----
 Symbolic Z-matrix:
 Charge =  0 Multiplicity = 1

 SCF Done:  E(RB3LYP) =  -423.160582230     A.U. after   14 cycles
 Optimization completed.
    -- Stationary point found.
 Normal termination of Gaussian 09 at Mon Jan 27 17:26:07 2020.

 ----------------------------------------------------------------------
 #N Geom=AllCheck Guess=TCheck SCRF=Check GenChk RB3LYP/6-31G(2df,p) Fr
 eq
 ----------------------------------------------------------------------

 Structure from the checkpoint file:  "/scratch/puck/g09_f1af038d-b4fe-4d29-a381-14e3662858f8/Gau-32733.chk"
 -----
 titel
 -----
 Charge =  0 Multiplicity = 1

                         Standard orientation:
 ---------------------------------------------------------------------
 Center     Atomic      Atomic             Coordinates (Angstroms)
 Number     Number       Type             X           Y           Z
 ---------------------------------------------------------------------
      1          6           0        2.425570   -1.152643   -0.197800
      2          6           0        1.380643   -0.092720   -0.080335
      3          6           0        1.520141    1.255398    0.547776
      4          6           0        0.396732    0.334939    0.993244
      5          6           0       -0.665818    0.255261   -0.114896
      6          6           0       -1.531883    1.449592   -0.451955
      7          8           0        0.371663   -0.035752   -1.105435
      8          6           0       -1.481362   -1.021083    0.078030
      9          8           0       -2.633604   -1.051210    0.421000
     10          1           0        1.975570   -2.146193   -0.286144
     11          1           0        3.043973   -0.979687   -1.085759
     12          1           0        3.081390   -1.141279    0.677243
     13          1           0        2.317999    1.349421    1.278375
     14          1           0        1.318523    2.152314   -0.029929
     15          1           0        0.264208    0.012273    2.017402
     16          1           0       -2.352977    1.517938    0.265997
     17          1           0       -0.955457    2.376523   -0.434806
     18          1           0       -1.965703    1.327687   -1.449120
     19          1           0       -0.896137   -1.945764   -0.122154
 ---------------------------------------------------------------------

 SCF Done:  E(RB3LYP) =  -423.160582230     A.U. after    1 cycles

 The electronic state is 1-A.
 Alpha  occ. eigenvalues --  -19.14802 -19.14672 -10.27089 -10.25428 -10.25296
 Alpha  occ. eigenvalues --  -10.20682 -10.19770 -10.19284 -10.17977  -1.06498
 Alpha  occ. eigenvalues --   -1.04979  -0.84345  -0.77919  -0.72993  -0.67803
 Alpha  occ. eigenvalues --   -0.60979  -0.56721  -0.53378  -0.51093  -0.50517
 Alpha  occ. eigenvalues --   -0.46135  -0.44320  -0.43063  -0.42120  -0.40896
 Alpha  occ. eigenvalues --   -0.40524  -0.38986  -0.38579  -0.37084  -0.33997
 Alpha  occ. eigenvalues --   -0.32226  -0.29285  -0.26279  -0.23782
 Alpha virt. eigenvalues --   -0.03032   0.07921   0.09282   0.10458   0.11410
 Alpha virt. eigenvalues --    0.12302   0.13542   0.14581   0.15626   0.16536
 Alpha virt. eigenvalues --    0.16989   0.18660   0.19608   0.20535   0.21988

 Mulliken charges:
               1
     1  C   -0.491514
     2  C    0.473671
     3  C   -0.351163
     4  C   -0.220602
     5  C    0.299039
     6  C   -0.457103
     7  O   -0.366094
     8  C    0.143466
     9  O   -0.253846
    10  H    0.129566
    11  H    0.137258
    12  H    0.127335
    13  H    0.118673
    14  H    0.118822
    15  H    0.108988
    16  H    0.143283
    17  H    0.119695
    18  H    0.134289
    19  H    0.086237
 Sum of Mulliken charges =   0.00000

 Dipole moment (field-independent basis, Debye):
    X=              2.6655    Y=              0.5669    Z=              0.9208  Tot=              2.8765
 Quadrupole moment (field-independent basis, Debye-Ang):
   XX=            -57.4594   YY=            -52.0584   ZZ=            -54.0148
   XY=             -3.6160   XZ=              3.2782   YZ=              0.2928

  Exact polarizability:  92.019  -0.867  75.140  -0.255   1.188  62.096
 Approx polarizability: 129.099   2.284 105.235  -5.853   3.013 101.088

                      1                      2                      3
                      A                      A                      A
 Frequencies --     57.9589               122.8099               186.7285
 Red. masses --      3.9256                 3.9015                 1.0484
 Frc consts  --      0.0078                 0.0347                 0.0215
 IR Inten    --      6.9935                 0.2728                 0.1661

                      4                      5                      6
                      A                      A                      A
 Frequencies --    200.0550               208.7301               272.9497
 Red. masses --      1.0453                 2.3226                 3.3511
 Frc consts  --      0.0246                 0.0596                 0.1471
 IR Inten    --      0.3962                 0.1319                 8.7901

                      7                      8                      9
                      A                      A                      A
 Frequencies --    308.2484               339.3907               369.1524
 Red. masses --      2.3476                 2.6512                 2.7305
 Frc consts  --      0.1314                 0.1799                 0.2192
 IR Inten    --      2.6384                 2.2627                 0.7507

                     10                     11                     12
                      A                      A                      A
 Frequencies --    447.6066               481.1664               527.4892
 Red. masses --      3.9836                 2.9258                 3.4053
 Frc consts  --      0.4702                 0.3991                 0.5583
 IR Inten    --      0.3882                 2.0817                14.2939

                     13                     14                     15
                      A                      A                      A
 Frequencies --    660.3820               715.8940               813.8299
 Red. masses --      2.9657                 3.4475                 2.7083
 Frc consts  --      0.7620                 1.0410                 1.0569
 IR Inten    --      4.7594                 4.7462                 3.8983

                     16                     17                     18
                      A                      A                      A
 Frequencies --    820.0264               856.2790               923.3648
 Red. masses --      2.6493                 2.8822                 1.7114
 Frc consts  --      1.0496                 1.2451                 0.8597
 IR Inten    --     12.1876                31.7223                 9.8089

                     19                     20                     21
                      A                      A                      A
 Frequencies --    953.7139               966.1268               981.6673
 Red. masses --      2.1000                 1.5981                 1.6882
 Frc consts  --      1.1254                 0.8789                 0.9585
 IR Inten    --     17.1182                 2.4989                22.8706

                     22                     23                     24
                      A                      A                      A
 Frequencies --    992.7122              1004.5937              1064.4413
 Red. masses --      1.6687                 1.5555                 1.3365
 Frc consts  --      0.9689                 0.9249                 0.8922
 IR Inten    --      7.6025                10.3824                 4.5522

                     25                     26                     27
                      A                      A                      A
 Frequencies --   1083.1062              1111.3014              1121.5176
 Red. masses --      2.6940                 1.9686                 2.2094
 Frc consts  --      1.8620                 1.4325                 1.6373
 IR Inten    --      7.7150                 5.1120                63.1786

                     28                     29                     30
                      A                      A                      A
 Frequencies --   1169.6932              1234.5319              1246.7296
 Red. masses --      1.7835                 2.7108                 3.1168
 Frc consts  --      1.4377                 2.4342                 2.8543
 IR Inten    --      9.1040                32.6038                 1.4886

                     31                     32                     33
                      A                      A                      A
 Frequencies --   1297.2753              1383.2432              1393.3288
 Red. masses --      2.7767                 1.4682                 1.2392
 Frc consts  --      2.7532                 1.6551                 1.4174
 IR Inten    --      0.5219                 7.2340                 1.6954

                     34                     35                     36
                      A                      A                      A
 Frequencies --   1412.8573              1429.9169              1474.2332
 Red. masses --      1.2969                 1.5032                 1.0578
 Frc consts  --      1.5252                 1.8108                 1.3546
 IR Inten    --     22.6466                 2.9578                 2.8603

                     37                     38                     39
                      A                      A                      A
 Frequencies --   1478.6600              1486.9032              1490.5659
 Red. masses --      1.0754                 1.2414                 1.1482
 Frc consts  --      1.3853                 1.6170                 1.5030
 IR Inten    --      2.4287                 7.5284                 7.6519

                     40                     41                     42
                      A                      A                      A
 Frequencies --   1500.9997              1832.4952              2893.7971
 Red. masses --      1.2578                10.9360                 1.0845
 Frc consts  --      1.6697                21.6369                 5.3506
 IR Inten    --      5.3857               172.3216                85.4219

                     43                     44                     45
                      A                      A                      A
 Frequencies --   3034.9500              3051.5467              3099.0403
 Red. masses --      1.0359                 1.0353                 1.1005
 Frc consts  --      5.6218                 5.6801                 6.2271
 IR Inten    --     22.7969                10.1085                15.5940

                     46                     47                     48
                      A                      A                      A
 Frequencies --   3118.1472              3120.2761              3123.0180
 Red. masses --      1.0817                 1.0740                 1.0982
 Frc consts  --      6.1965                 6.1608                 6.3105
 IR Inten    --      5.0089                13.8677                16.0015

                     49                     50                     51
                      A                      A                      A
 Frequencies --   3139.2390              3198.7381              3210.1473
 Red. masses --      1.1024                 1.0972                 1.1127
 Frc consts  --      6.4009                 6.6146                 6.7556
 IR Inten    --     10.8977                 3.2397                 9.5371

 - Thermochemistry -
 -------------------
 Temperature   298.150 Kelvin.  Pressure   1.00000 Atm.
 Atom     1 has atomic number  6 and mass  12.00000

 Molecular mass:   126.06808 amu.
 Principal axes and moments of inertia in atomic units:
                           1         2         3
     Eigenvalues --   606.233351387.618841630.66524
           X            0.99855  -0.05156   0.01536
           Y            0.05154   0.99867   0.00165
           Z           -0.01543  -0.00086   0.99988
 This molecule is an asymmetric top.
 Rotational symmetry number  1.
 Warning -- assumption of classical behavior for rotation
           may cause significant error
 Rotational temperatures (Kelvin)      0.14287     0.06242     0.05312
 Rotational constants (GHZ):           2.97697     1.30060     1.10675
 Zero-point vibrational energy     409192.1 (Joules/Mol)
                                   97.79926 (Kcal/Mol)
 Warning -- explicit consideration of  12 degrees of freedom as
           vibrations may cause significant error
 Vibrational temperatures:     83.39   176.70   268.66   287.83   300.32
          (Kelvin)            392.71   443.50   488.31   531.13   644.01
                              692.29   758.94   950.14  1030.01  1170.92
                             1179.83  1231.99  1328.51  1372.18  1390.04
                             1412.40  1428.29  1445.38  1531.49  1558.35
                             1598.91  1613.61  1682.93  1776.21  1793.76
                             1866.49  1990.18  2004.69  2032.78  2057.33
                             2121.09  2127.46  2139.32  2144.59  2159.60
                             2636.55  4163.52  4366.61  4390.49  4458.82
                             4486.31  4489.38  4493.32  4516.66  4602.26
                             4618.68

 Zero-point correction=                           0.155853 (Hartree/Particle)
 Thermal correction to Energy=                    0.165086
 Thermal correction to Enthalpy=                  0.166031
 Thermal correction to Gibbs Free Energy=         0.121907
 Sum of electronic and zero-point Energies=           -423.004729
 Sum of electronic and thermal Energies=              -422.995496
 Sum of electronic and thermal Enthalpies=            -422.994552
 Sum of electronic and thermal Free Energies=         -423.038675

                     E (Thermal)             CV                S
                      KCal/Mol        Cal/Mol-Kelvin    Cal/Mol-Kelvin
 Total                  103.593             34.445             92.865
 Electronic               0.000              0.000              0.000
 Translational            0.889              2.981             40.409
 Rotational               0.889              2.981             28.708
 Vibrational            101.816             28.484             23.749
 Vibration     1          0.596              1.974              4.526
 Vibration     2          0.610              1.930              3.056
 Vibration     3          0.632              1.858              2.260
 Vibration     4          0.638              1.840              2.133
 Vibration     5          0.642              1.827              2.055
 Vibration     6          0.676              1.723              1.577
 Vibration     7          0.698              1.658              1.372
 Vibration     8          0.719              1.597              1.215
 Vibration     9          0.741              1.536              1.083
 Vibration    10          0.807              1.366              0.803
 Vibration    11          0.837              1.292              0.707
 Vibration    12          0.882              1.189              0.593

 Normal termination of Gaussian 09 at Mon Jan 27 18:11:02 2020.
