 Gaussian 09, Revision D.01,
 Gaussian 09:  ES64L-G09RevD.01 24-Apr-2013

 -----------------------------
 # b3lyp 6-31G(2df,p) opt Freq
 -----------------------------

 -----
 titel
 -----
 Symbolic Z-matrix:
 Charge =  0 Multiplicity = 1

 SCF Done:  E(RB3LYP) =  -423.201971398     A.U. after   14 cycles
 Optimization completed.
    -- Stationary point found.
 Normal termination of Gaussian 09 at Mon Jan 27 13:01:46 2020.

 ----------------------------------------------------------------------
 #N Geom=AllCheck Guess=TCheck SCRF=Check GenChk RB3LYP/6-31G(2df,p) Fr
 eq
 ----------------------------------------------------------------------

 Structure from the checkpoint file:  "/scratch/puck/g09_4aebc5bf-0782-4df8-b204-b525e6baeeec/Gau-47191.chk"
 -----
 titel
 -----
 Charge =  0 Multiplicity = 1

                         Standard orientation:
 ---------------------------------------------------------------------
 Center     Atomic      Atomic             Coordinates (Angstroms)
 Number     Number       Type             X           Y           Z
 ---------------------------------------------------------------------
      1          8           0        1.888373    1.735557    0.018253
      2          6           0        1.656351    0.570863    0.065645
      3          8           0        2.477532   -0.465642   -0.306830
      4          6           0        1.454935   -1.461099    0.022153
      5          6           0        0.491160   -0.342925    0.470746
      6          6           0       -0.810236   -0.140527   -0.283985
      7          6           0       -1.671203    1.112594    0.043169
      8          6           0       -2.939320    0.229986   -0.110602
      9          6           0       -2.041627   -1.024180    0.071670
     10          1           0        1.157428   -2.015356   -0.871172
     11          1           0        1.813492   -2.142892    0.795641
     12          1           0        0.317638   -0.321403    1.551470
     13          1           0       -0.617434   -0.186711   -1.362432
     14          1           0       -1.525172    1.433249    1.079399
     15          1           0       -1.560191    1.983513   -0.605077
     16          1           0       -3.750645    0.378553    0.604992
     17          1           0       -3.354033    0.287258   -1.120885
     18          1           0       -2.008593   -1.346096    1.117975
     19          1           0       -2.240089   -1.897703   -0.554071
 ---------------------------------------------------------------------

 SCF Done:  E(RB3LYP) =  -423.201971398     A.U. after    1 cycles

 The electronic state is 1-A.
 Alpha  occ. eigenvalues --  -19.17916 -19.13282 -10.30498 -10.25348 -10.21256
 Alpha  occ. eigenvalues --  -10.20443 -10.19160 -10.18847 -10.18714  -1.10326
 Alpha  occ. eigenvalues --   -1.03055  -0.85748  -0.77693  -0.68399  -0.66530
 Alpha  occ. eigenvalues --   -0.64627  -0.56284  -0.54035  -0.50902  -0.50507
 Alpha  occ. eigenvalues --   -0.48157  -0.46999  -0.44292  -0.40585  -0.39906
 Alpha  occ. eigenvalues --   -0.39288  -0.38012  -0.36466  -0.34993  -0.32709
 Alpha  occ. eigenvalues --   -0.31804  -0.30736  -0.29905  -0.26705
 Alpha virt. eigenvalues --    0.01103   0.07828   0.08609   0.09243   0.09523
 Alpha virt. eigenvalues --    0.10925   0.13925   0.14078   0.15631   0.16721
 Alpha virt. eigenvalues --    0.17464   0.17774   0.18317   0.20131   0.21258

 Mulliken charges:
               1
     1  O   -0.325251
     2  C    0.454694
     3  O   -0.240498
     4  C   -0.100604
     5  C   -0.217703
     6  C    0.043067
     7  C   -0.223035
     8  C   -0.212403
     9  C   -0.241165
    10  H    0.124213
    11  H    0.124926
    12  H    0.106546
    13  H    0.079029
    14  H    0.106107
    15  H    0.113440
    16  H    0.101733
    17  H    0.107106
    18  H    0.099944
    19  H    0.099853
 Sum of Mulliken charges =   0.00000

 Dipole moment (field-independent basis, Debye):
    X=             -2.6877    Y=             -2.9112    Z=              0.6108  Tot=              4.0090
 Quadrupole moment (field-independent basis, Debye-Ang):
   XX=            -60.2656   YY=            -55.7266   ZZ=            -50.7594
   XY=             -5.3885   XZ=              1.8127   YZ=             -0.2973

  Exact polarizability:  83.767  -0.527  80.544  -0.277   0.158  61.923
 Approx polarizability: 106.142   1.083 124.120  -2.072   0.982  97.189

                      1                      2                      3
                      A                      A                      A
 Frequencies --     62.5298               102.1592               113.5979
 Red. masses --      3.4090                 3.8002                 3.6962
 Frc consts  --      0.0079                 0.0234                 0.0281
 IR Inten    --      1.9779                 0.6149                 3.5736

                      4                      5                      6
                      A                      A                      A
 Frequencies --    153.1143               266.7741               330.7913
 Red. masses --      2.4805                 3.1087                 2.5210
 Frc consts  --      0.0343                 0.1303                 0.1625
 IR Inten    --      0.7704                 0.5673                 0.3896

                      7                      8                      9
                      A                      A                      A
 Frequencies --    372.8859               524.4957               598.5059
 Red. masses --      3.5491                 3.5974                 2.6857
 Frc consts  --      0.2908                 0.5831                 0.5668
 IR Inten    --      0.6942                 4.2335                 4.2957

                     10                     11                     12
                      A                      A                      A
 Frequencies --    698.5224               753.4895               776.9398
 Red. masses --      2.2505                 3.2813                 1.3967
 Frc consts  --      0.6470                 1.0976                 0.4967
 IR Inten    --      0.5812                 1.7874                 1.4072

                     13                     14                     15
                      A                      A                      A
 Frequencies --    796.4108               889.1713               918.6751
 Red. masses --      1.9468                 2.1264                 3.5198
 Frc consts  --      0.7275                 0.9905                 1.7502
 IR Inten    --      1.0363                 2.4190                 5.3318

                     16                     17                     18
                      A                      A                      A
 Frequencies --    924.2237               935.3396               954.8906
 Red. masses --      2.1392                 2.5499                 3.6591
 Frc consts  --      1.0766                 1.3144                 1.9657
 IR Inten    --      1.8454                 0.6923                57.9480

                     19                     20                     21
                      A                      A                      A
 Frequencies --    962.1694               999.4025              1033.5678
 Red. masses --      1.6515                 1.9145                 2.7301
 Frc consts  --      0.9008                 1.1266                 1.7183
 IR Inten    --     19.8133                 2.2750                 1.9729

                     22                     23                     24
                      A                      A                      A
 Frequencies --   1068.2011              1111.3927              1119.7477
 Red. masses --      2.1785                 2.4925                 3.1811
 Frc consts  --      1.4646                 1.8139                 2.3500
 IR Inten    --      8.9509                64.9778                80.0685

                     25                     26                     27
                      A                      A                      A
 Frequencies --   1156.4717              1191.5858              1201.8545
 Red. masses --      1.1838                 1.8603                 1.4576
 Frc consts  --      0.9328                 1.5562                 1.2405
 IR Inten    --      1.5180                 4.0605                 0.4609

                     28                     29                     30
                      A                      A                      A
 Frequencies --   1217.5756              1242.6118              1257.2132
 Red. masses --      1.4875                 1.4291                 1.2670
 Frc consts  --      1.2993                 1.3001                 1.1799
 IR Inten    --      1.1343                 0.9979                 0.1029

                     31                     32                     33
                      A                      A                      A
 Frequencies --   1262.6994              1273.2171              1291.2812
 Red. masses --      1.2044                 1.4420                 1.3902
 Frc consts  --      1.1314                 1.3772                 1.3658
 IR Inten    --      0.3190                 0.8058                 0.1191

                     34                     35                     36
                      A                      A                      A
 Frequencies --   1303.8008              1346.8762              1399.1789
 Red. masses --      1.3712                 1.6312                 1.5876
 Frc consts  --      1.3733                 1.7434                 1.8312
 IR Inten    --      7.8145                23.0110                 8.3681

                     37                     38                     39
                      A                      A                      A
 Frequencies --   1478.5721              1487.1162              1509.7416
 Red. masses --      1.0892                 1.0829                 1.1402
 Frc consts  --      1.4029                 1.4110                 1.5312
 IR Inten    --      0.5888                 2.7710                 0.8385

                     40                     41                     42
                      A                      A                      A
 Frequencies --   1515.4073              1933.5772              3032.8005
 Red. masses --      1.0966                12.8256                 1.0831
 Frc consts  --      1.4838                28.2520                 5.8695
 IR Inten    --      2.4554               369.4049                 7.3935

                     43                     44                     45
                      A                      A                      A
 Frequencies --   3046.5588              3058.5014              3062.1489
 Red. masses --      1.0598                 1.0638                 1.0617
 Frc consts  --      5.7956                 5.8631                 5.8654
 IR Inten    --     35.8600                13.9196                34.3978

                     46                     47                     48
                      A                      A                      A
 Frequencies --   3066.9874              3069.4614              3100.3458
 Red. masses --      1.0734                 1.0653                 1.1045
 Frc consts  --      5.9490                 5.9136                 6.2554
 IR Inten    --     29.4381                18.0394                19.0493

                     49                     50                     51
                      A                      A                      A
 Frequencies --   3112.3673              3125.2445              3129.9855
 Red. masses --      1.1052                 1.1066                 1.1126
 Frc consts  --      6.3079                 6.3680                 6.4219
 IR Inten    --     21.5706                43.9956                29.0005

 - Thermochemistry -
 -------------------
 Temperature   298.150 Kelvin.  Pressure   1.00000 Atm.
 Atom     1 has atomic number  8 and mass  15.99491

 Molecular mass:   126.06808 amu.
 Principal axes and moments of inertia in atomic units:
                           1         2         3
     Eigenvalues --   525.304641682.080602094.08471
           X            0.99979  -0.02005   0.00342
           Y            0.02006   0.99979  -0.00373
           Z           -0.00335   0.00379   0.99999
 This molecule is an asymmetric top.
 Rotational symmetry number  1.
 Warning -- assumption of classical behavior for rotation
           may cause significant error
 Rotational temperatures (Kelvin)      0.16488     0.05149     0.04136
 Rotational constants (GHZ):           3.43561     1.07292     0.86183
 Zero-point vibrational energy     420727.7 (Joules/Mol)
                                  100.55633 (Kcal/Mol)
 Warning -- explicit consideration of   9 degrees of freedom as
           vibrations may cause significant error
 Vibrational temperatures:     89.97   146.98   163.44   220.30   383.83
          (Kelvin)            475.93   536.50   754.63   861.12  1005.02
                             1084.10  1117.84  1145.86  1279.32  1321.77
                             1329.75  1345.74  1373.87  1384.35  1437.92
                             1487.07  1536.90  1599.04  1611.07  1663.90
                             1714.42  1729.20  1751.82  1787.84  1808.85
                             1816.74  1831.87  1857.86  1875.88  1937.85
                             2013.10  2127.33  2139.63  2172.18  2180.33
                             2781.98  4363.52  4383.31  4400.50  4405.74
                             4412.71  4416.26  4460.70  4478.00  4496.52
                             4503.35

 Zero-point correction=                           0.160247 (Hartree/Particle)
 Thermal correction to Energy=                    0.168503
 Thermal correction to Enthalpy=                  0.169448
 Thermal correction to Gibbs Free Energy=         0.126409
 Sum of electronic and zero-point Energies=           -423.041725
 Sum of electronic and thermal Energies=              -423.033468
 Sum of electronic and thermal Enthalpies=            -423.032524
 Sum of electronic and thermal Free Energies=         -423.075563

                     E (Thermal)             CV                S
                      KCal/Mol        Cal/Mol-Kelvin    Cal/Mol-Kelvin
 Total                  105.737             30.429             90.583
 Electronic               0.000              0.000              0.000
 Translational            0.889              2.981             40.409
 Rotational               0.889              2.981             29.005
 Vibrational            103.960             24.467             21.169
 Vibration     1          0.597              1.972              4.376
 Vibration     2          0.604              1.947              3.413
 Vibration     3          0.607              1.938              3.206
 Vibration     4          0.619              1.899              2.633
 Vibration     5          0.672              1.734              1.617
 Vibration     6          0.713              1.614              1.256
 Vibration     7          0.744              1.528              1.068
 Vibration     8          0.879              1.196              0.600
 Vibration     9          0.956              1.035              0.452

 Optimization completed.
    -- Stationary point found.
 Normal termination of Gaussian 09 at Mon Jan 27 13:41:12 2020.
