 Gaussian 09, Revision D.01,
 Gaussian 09:  ES64L-G09RevD.01 24-Apr-2013

 -----------------------------
 # b3lyp 6-31G(2df,p) opt Freq
 -----------------------------

 -----
 titel
 -----
 Symbolic Z-matrix:
 Charge =  0 Multiplicity = 1

 SCF Done:  E(RB3LYP) =  -423.133692234     A.U. after   14 cycles
 Optimization completed.
    -- Stationary point found.
 Normal termination of Gaussian 09 at Mon Jan 27 22:03:13 2020.

 ----------------------------------------------------------------------
 #N Geom=AllCheck Guess=TCheck SCRF=Check GenChk RB3LYP/6-31G(2df,p) Fr
 eq
 ----------------------------------------------------------------------

 Structure from the checkpoint file:  "/scratch/puck/g09_7ec0e8ac-7811-46de-bc89-0347985938c4/Gau-72715.chk"
 -----
 titel
 -----
 Charge =  0 Multiplicity = 1

                         Standard orientation:
 ---------------------------------------------------------------------
 Center     Atomic      Atomic             Coordinates (Angstroms)
 Number     Number       Type             X           Y           Z
 ---------------------------------------------------------------------
      1          6           0       -2.471875    0.000011    0.990493
      2          6           0       -1.346684    0.000007   -0.030857
      3          6           0       -0.228001   -1.078949    0.047427
      4          8           0       -0.276159   -2.179091   -0.826008
      5          6           0        0.804134   -0.000006   -0.381347
      6          6           0        2.128351   -0.000014    0.199584
      7          6           0        3.214520   -0.000013    0.716089
      8          6           0       -0.227987    1.078951    0.047424
      9          8           0       -0.276132    2.179092   -0.826010
     10          1           0       -3.112913   -0.882287    0.881382
     11          1           0       -2.078592    0.000046    2.013804
     12          1           0       -3.112955    0.882271    0.881336
     13          1           0       -1.735301    0.000009   -1.055351
     14          1           0       -0.048870   -1.392555    1.085130
     15          1           0       -0.853533   -2.848033   -0.445201
     16          1           0        0.848433   -0.000007   -1.476044
     17          1           0        4.179649    0.000013    1.158275
     18          1           0       -0.048854    1.392554    1.085128
     19          1           0       -0.853474    2.848055   -0.445192
 ---------------------------------------------------------------------

 SCF Done:  E(RB3LYP) =  -423.133692234     A.U. after    1 cycles

 The electronic state is 1-A.
 Alpha  occ. eigenvalues --  -19.14156 -19.14156 -10.23761 -10.23761 -10.20265
 Alpha  occ. eigenvalues --  -10.18443 -10.18399 -10.17382 -10.16470  -1.02807
 Alpha  occ. eigenvalues --   -1.02268  -0.84889  -0.75789  -0.71885  -0.64628
 Alpha  occ. eigenvalues --   -0.64092  -0.56411  -0.54629  -0.51718  -0.50457
 Alpha  occ. eigenvalues --   -0.47897  -0.43976  -0.42502  -0.40910  -0.39524
 Alpha  occ. eigenvalues --   -0.38837  -0.36768  -0.34680  -0.32806  -0.32409
 Alpha  occ. eigenvalues --   -0.28773  -0.25920  -0.25103  -0.24682
 Alpha virt. eigenvalues --    0.05244   0.06158   0.06550   0.08056   0.10395
 Alpha virt. eigenvalues --    0.11115   0.12855   0.13827   0.15253   0.16638
 Alpha virt. eigenvalues --    0.18196   0.18370   0.19818   0.20102   0.22241

 Mulliken charges:
               1
     1  C   -0.430621
     2  C   -0.040896
     3  C    0.098399
     4  O   -0.427643
     5  C   -0.194053
     6  C    0.300695
     7  C   -0.448648
     8  C    0.098398
     9  O   -0.427642
    10  H    0.115344
    11  H    0.115533
    12  H    0.115345
    13  H    0.089435
    14  H    0.074452
    15  H    0.285525
    16  H    0.124984
    17  H    0.191417
    18  H    0.074452
    19  H    0.285526
 Sum of Mulliken charges =   0.00000

 Dipole moment (field-independent basis, Debye):
    X=             -2.3479    Y=              0.0001    Z=              2.0417  Tot=              3.1114
 Quadrupole moment (field-independent basis, Debye-Ang):
   XX=            -49.4376   YY=            -48.8818   ZZ=            -55.2973
   XY=              0.0002   XZ=              1.5680   YZ=              0.0001

  Exact polarizability: 100.485   0.000  71.649   6.577   0.000  64.115
 Approx polarizability: 137.875   0.000  99.805  16.593   0.000 101.709

                      1                      2                      3
                      A                      A                      A
 Frequencies --     63.9078               121.3495               164.6008
 Red. masses --      3.9237                 3.7073                 3.1302
 Frc consts  --      0.0094                 0.0322                 0.0500
 IR Inten    --      0.0645                 2.0446                15.4579

                      4                      5                      6
                      A                      A                      A
 Frequencies --    190.7988               201.7049               219.3544
 Red. masses --      1.3835                 1.1386                 1.1674
 Frc consts  --      0.0297                 0.0273                 0.0331
 IR Inten    --      0.0969                51.0096               124.1127

                      7                      8                      9
                      A                      A                      A
 Frequencies --    220.6942               244.8841               309.0516
 Red. masses --      1.6768                 4.6388                 4.1235
 Frc consts  --      0.0481                 0.1639                 0.2320
 IR Inten    --      6.1352                 6.8178                 1.3465

                     10                     11                     12
                      A                      A                      A
 Frequencies --    388.6022               449.5678               480.3498
 Red. masses --      4.8459                 3.4875                 4.3477
 Frc consts  --      0.4312                 0.4153                 0.5911
 IR Inten    --      0.0771                24.2990                 0.5057

                     13                     14                     15
                      A                      A                      A
 Frequencies --    508.3403               552.3045               554.2009
 Red. masses --      5.1878                 3.0150                 4.8700
 Frc consts  --      0.7899                 0.5419                 0.8813
 IR Inten    --      1.9079                10.6737                 0.7649

                     16                     17                     18
                      A                      A                      A
 Frequencies --    616.5247               625.4669               850.0768
 Red. masses --      1.2110                 1.2185                 2.2819
 Frc consts  --      0.2712                 0.2809                 0.9715
 IR Inten    --     43.4684                46.6322                 0.0581

                     19                     20                     21
                      A                      A                      A
 Frequencies --    882.8679               937.0058               955.4404
 Red. masses --      1.9057                 2.7230                 3.6157
 Frc consts  --      0.8752                 1.4086                 1.9447
 IR Inten    --     16.5605                12.8333                 0.4385

                     22                     23                     24
                      A                      A                      A
 Frequencies --   1045.3523              1064.3563              1106.5079
 Red. masses --      2.2895                 2.3429                 1.8044
 Frc consts  --      1.4741                 1.5638                 1.3017
 IR Inten    --    122.6501                11.1826                34.6929

                     25                     26                     27
                      A                      A                      A
 Frequencies --   1117.3810              1134.7148              1145.6282
 Red. masses --      2.3677                 2.6645                 1.6048
 Frc consts  --      1.7417                 2.0213                 1.2410
 IR Inten    --      2.4541                 2.9981                 2.2015

                     28                     29                     30
                      A                      A                      A
 Frequencies --   1164.3979              1207.1381              1224.0561
 Red. masses --      3.6254                 1.1688                 1.2378
 Frc consts  --      2.8961                 1.0034                 1.0927
 IR Inten    --     55.7940                 3.1303                12.3314

                     31                     32                     33
                      A                      A                      A
 Frequencies --   1231.9093              1291.6430              1293.4947
 Red. masses --      1.4438                 1.3326                 1.2877
 Frc consts  --      1.2910                 1.3099                 1.2694
 IR Inten    --     15.7727               115.4433                37.5404

                     34                     35                     36
                      A                      A                      A
 Frequencies --   1347.9565              1384.3578              1407.6729
 Red. masses --      1.4809                 1.5933                 1.2818
 Frc consts  --      1.5854                 1.7991                 1.4964
 IR Inten    --      1.0023                 7.1485                 1.1288

                     37                     38                     39
                      A                      A                      A
 Frequencies --   1415.7040              1462.7947              1495.1186
 Red. masses --      1.3280                 1.5547                 1.0516
 Frc consts  --      1.5682                 1.9600                 1.3850
 IR Inten    --     10.0892                 2.0112                 5.2022

                     40                     41                     42
                      A                      A                      A
 Frequencies --   1496.4203              2235.7867              3003.9674
 Red. masses --      1.0441                 5.9880                 1.0840
 Frc consts  --      1.3775                17.6358                 5.7633
 IR Inten    --      6.4424                 6.1597                 3.6432

                     43                     44                     45
                      A                      A                      A
 Frequencies --   3009.2010              3021.1033              3054.2182
 Red. masses --      1.0818                 1.0377                 1.0838
 Frc consts  --      5.7719                 5.5803                 5.9569
 IR Inten    --     41.0517                40.0205                 4.4186

                     46                     47                     48
                      A                      A                      A
 Frequencies --   3063.7891              3085.2912              3089.6930
 Red. masses --      1.0839                 1.1007                 1.1001
 Frc consts  --      5.9943                 6.1729                 6.1875
 IR Inten    --     14.3092                24.6773                41.1115

                     49                     50                     51
                      A                      A                      A
 Frequencies --   3505.5414              3821.1766              3821.4779
 Red. masses --      1.1608                 1.0662                 1.0662
 Frc consts  --      8.4048                 9.1727                 9.1738
 IR Inten    --     72.8718                38.5882                10.6116

 - Thermochemistry -
 -------------------
 Temperature   298.150 Kelvin.  Pressure   1.00000 Atm.
 Atom     1 has atomic number  6 and mass  12.00000

 Molecular mass:   126.06808 amu.
 Principal axes and moments of inertia in atomic units:
                           1         2         3
     Eigenvalues --   916.510381379.440051903.27170
           X            0.99991   0.00000  -0.01362
           Y            0.00000   1.00000   0.00000
           Z            0.01362   0.00000   0.99991
 This molecule is an asymmetric top.
 Rotational symmetry number  1.
 Warning -- assumption of classical behavior for rotation
           may cause significant error
 Rotational temperatures (Kelvin)      0.09450     0.06279     0.04551
 Rotational constants (GHZ):           1.96914     1.30831     0.94823
 Zero-point vibrational energy     408434.7 (Joules/Mol)
                                   97.61823 (Kcal/Mol)
 Warning -- explicit consideration of  16 degrees of freedom as
           vibrations may cause significant error
 Vibrational temperatures:     91.95   174.59   236.82   274.52   290.21
          (Kelvin)            315.60   317.53   352.33   444.66   559.11
                              646.83   691.12   731.39   794.64   797.37
                              887.04   899.91  1223.07  1270.25  1348.14
                             1374.66  1504.03  1531.37  1592.02  1607.66
                             1632.60  1648.30  1675.31  1736.80  1761.14
                             1772.44  1858.38  1861.05  1939.41  1991.78
                             2025.32  2036.88  2104.63  2151.14  2153.01
                             3216.79  4322.03  4329.56  4346.69  4394.33
                             4408.10  4439.04  4445.37  5043.69  5497.81
                             5498.25

 Zero-point correction=                           0.155565 (Hartree/Particle)
 Thermal correction to Energy=                    0.165826
 Thermal correction to Enthalpy=                  0.166770
 Thermal correction to Gibbs Free Energy=         0.120547
 Sum of electronic and zero-point Energies=           -422.978128
 Sum of electronic and thermal Energies=              -422.967867
 Sum of electronic and thermal Enthalpies=            -422.966922
 Sum of electronic and thermal Free Energies=         -423.013146

                     E (Thermal)             CV                S
                      KCal/Mol        Cal/Mol-Kelvin    Cal/Mol-Kelvin
 Total                  104.057             37.556             97.285
 Electronic               0.000              0.000              0.000
 Translational            0.889              2.981             40.409
 Rotational               0.889              2.981             29.266
 Vibrational            102.280             31.594             27.611
 Vibration     1          0.597              1.972              4.333
 Vibration     2          0.609              1.931              3.079
 Vibration     3          0.623              1.886              2.496
 Vibration     4          0.634              1.853              2.220
 Vibration     5          0.639              1.837              2.117
 Vibration     6          0.647              1.812              1.964
 Vibration     7          0.647              1.810              1.953
 Vibration     8          0.660              1.771              1.767
 Vibration     9          0.698              1.656              1.367
 Vibration    10          0.757              1.495              1.006
 Vibration    11          0.808              1.362              0.797
 Vibration    12          0.837              1.294              0.709
 Vibration    13          0.864              1.232              0.638
 Vibration    14          0.908              1.135              0.539
 Vibration    15          0.910              1.131              0.536
 Vibration    16          0.976              0.997              0.422

 Optimization completed.
    -- Stationary point found.
 Normal termination of Gaussian 09 at Mon Jan 27 22:43:30 2020.
