 Gaussian 09, Revision D.01,
 Gaussian 09:  ES64L-G09RevD.01 24-Apr-2013

 -----------------------------
 # b3lyp 6-31G(2df,p) opt Freq
 -----------------------------

 -----
 titel
 -----
 Symbolic Z-matrix:
 Charge =  0 Multiplicity = 1

 SCF Done:  E(RB3LYP) =  -423.204300323     A.U. after   14 cycles
 Optimization completed.
    -- Stationary point found.
 Normal termination of Gaussian 09 at Tue Jan 28 00:02:47 2020.

 ----------------------------------------------------------------------
 #N Geom=AllCheck Guess=TCheck SCRF=Check GenChk RB3LYP/6-31G(2df,p) Fr
 eq
 ----------------------------------------------------------------------

 Structure from the checkpoint file:  "/scratch/puck/g09_6e411466-f971-4771-938d-17b0280a1273/Gau-116682.chk"
 -----
 titel
 -----
 Charge =  0 Multiplicity = 1

                         Standard orientation:
 ---------------------------------------------------------------------
 Center     Atomic      Atomic             Coordinates (Angstroms)
 Number     Number       Type             X           Y           Z
 ---------------------------------------------------------------------
      1          6           0       -2.594241   -0.624186    0.670031
      2          6           0       -1.522717   -0.020394   -0.239706
      3          6           0       -1.273301    1.464256   -0.066184
      4          6           0        0.018463    1.779445   -0.165009
      5          6           0        0.847240    0.542555   -0.434441
      6          6           0        2.203679    0.444574    0.220127
      7          8           0        2.656143   -0.592436    0.644008
      8          6           0       -0.111432   -0.601277   -0.018301
      9          8           0        0.073785   -1.810481   -0.717393
     10          1           0       -2.645906   -1.707642    0.527154
     11          1           0       -2.370628   -0.429158    1.724663
     12          1           0       -3.582810   -0.206707    0.452939
     13          1           0       -1.800897   -0.220170   -1.286423
     14          1           0       -2.078572    2.174481    0.089287
     15          1           0        0.437304    2.778280   -0.107936
     16          1           0        1.049820    0.458502   -1.518387
     17          1           0        2.795906    1.386043    0.272679
     18          1           0        0.025525   -0.758897    1.063101
     19          1           0        0.924683   -2.161231   -0.429109
 ---------------------------------------------------------------------

 SCF Done:  E(RB3LYP) =  -423.204300323     A.U. after    1 cycles

 The electronic state is 1-A.
 Alpha  occ. eigenvalues --  -19.15118 -19.13364 -10.28010 -10.23361 -10.20055
 Alpha  occ. eigenvalues --  -10.19321 -10.19198 -10.18973 -10.17511  -1.05704
 Alpha  occ. eigenvalues --   -1.01854  -0.85445  -0.76242  -0.71706  -0.66752
 Alpha  occ. eigenvalues --   -0.60290  -0.56263  -0.55208  -0.52027  -0.49291
 Alpha  occ. eigenvalues --   -0.46094  -0.43764  -0.43427  -0.42356  -0.40286
 Alpha  occ. eigenvalues --   -0.39412  -0.37493  -0.36559  -0.35898  -0.33901
 Alpha  occ. eigenvalues --   -0.31405  -0.27740  -0.26077  -0.24586
 Alpha virt. eigenvalues --   -0.03203   0.01030   0.09278   0.10820   0.11640
 Alpha virt. eigenvalues --    0.12409   0.13222   0.14780   0.15944   0.16595
 Alpha virt. eigenvalues --    0.17360   0.18928   0.19678   0.20116   0.22812

 Mulliken charges:
               1
     1  C   -0.412966
     2  C   -0.033979
     3  C   -0.073148
     4  C   -0.115083
     5  C   -0.157536
     6  C    0.136887
     7  O   -0.256917
     8  C    0.133545
     9  O   -0.447995
    10  H    0.132243
    11  H    0.115093
    12  H    0.111979
    13  H    0.094272
    14  H    0.099009
    15  H    0.100791
    16  H    0.120343
    17  H    0.084734
    18  H    0.077560
    19  H    0.291171
 Sum of Mulliken charges =   0.00000

 Dipole moment (field-independent basis, Debye):
    X=             -0.5897    Y=              2.1401    Z=             -0.2208  Tot=              2.2308
 Quadrupole moment (field-independent basis, Debye-Ang):
   XX=            -54.6529   YY=            -52.5755   ZZ=            -54.7272
   XY=              1.8280   XZ=             -3.0034   YZ=             -0.7817

  Exact polarizability:  94.934   2.209  79.688  -0.369  -0.935  57.127
 Approx polarizability: 132.533   0.606 118.202   2.162  -2.464  91.923

                      1                      2                      3
                      A                      A                      A
 Frequencies --     61.3588               103.2362               155.7863
 Red. masses --      5.5326                 2.7285                 5.6509
 Frc consts  --      0.0123                 0.0171                 0.0808
 IR Inten    --      3.0832                 4.1471                 6.9247

                      4                      5                      6
                      A                      A                      A
 Frequencies --    213.2065               218.6016               286.8894
 Red. masses --      1.4665                 1.6962                 2.6254
 Frc consts  --      0.0393                 0.0478                 0.1273
 IR Inten    --      1.0430                 0.2232                 1.9935

                      7                      8                      9
                      A                      A                      A
 Frequencies --    294.8955               391.2846               447.6524
 Red. masses --      2.8792                 3.3697                 1.1918
 Frc consts  --      0.1475                 0.3040                 0.1407
 IR Inten    --      0.5496                 7.7677                80.7991

                     10                     11                     12
                      A                      A                      A
 Frequencies --    466.3480               537.2436               553.3850
 Red. masses --      3.1500                 3.0443                 4.1272
 Frc consts  --      0.4036                 0.5177                 0.7447
 IR Inten    --     16.0569                 0.0465                17.1475

                     13                     14                     15
                      A                      A                      A
 Frequencies --    624.1686               737.7785               746.0800
 Red. masses --      3.6210                 1.8227                 2.8635
 Frc consts  --      0.8312                 0.5845                 0.9391
 IR Inten    --     15.0649                32.9006                13.2434

                     16                     17                     18
                      A                      A                      A
 Frequencies --    819.0741               880.0536               939.2926
 Red. masses --      1.8076                 2.0544                 1.7843
 Frc consts  --      0.7145                 0.9375                 0.9275
 IR Inten    --      1.7406                 3.5973                11.7019

                     19                     20                     21
                      A                      A                      A
 Frequencies --    967.4606              1022.9543              1045.1744
 Red. masses --      1.2573                 2.1992                 1.9227
 Frc consts  --      0.6934                 1.3559                 1.2375
 IR Inten    --      0.2319                 6.5358                 2.8262

                     22                     23                     24
                      A                      A                      A
 Frequencies --   1069.1052              1079.8318              1103.8658
 Red. masses --      1.6211                 1.7615                 2.2395
 Frc consts  --      1.0917                 1.2102                 1.6078
 IR Inten    --     15.4407                21.0085                27.6864

                     25                     26                     27
                      A                      A                      A
 Frequencies --   1123.8886              1138.3154              1157.8866
 Red. masses --      1.9523                 2.4448                 1.5759
 Frc consts  --      1.4530                 1.8665                 1.2448
 IR Inten    --     45.8863                 2.3133                 8.9488

                     28                     29                     30
                      A                      A                      A
 Frequencies --   1211.3246              1256.7026              1282.7284
 Red. masses --      1.9555                 1.4277                 1.4427
 Frc consts  --      1.6906                 1.3285                 1.3986
 IR Inten    --     25.2272                11.6598                 1.2307

                     31                     32                     33
                      A                      A                      A
 Frequencies --   1304.2961              1335.8902              1347.2112
 Red. masses --      1.3813                 1.4484                 1.4224
 Frc consts  --      1.3845                 1.5229                 1.5210
 IR Inten    --     46.9810                 3.3874                34.4453

                     34                     35                     36
                      A                      A                      A
 Frequencies --   1390.5002              1405.9324              1414.9530
 Red. masses --      1.5137                 1.2520                 1.2468
 Frc consts  --      1.7244                 1.4581                 1.4707
 IR Inten    --     12.5421                 2.7635                 6.5540

                     37                     38                     39
                      A                      A                      A
 Frequencies --   1442.5018              1496.8149              1500.2844
 Red. masses --      1.5167                 1.0471                 1.0533
 Frc consts  --      1.8594                 1.3822                 1.3969
 IR Inten    --      5.0019                 4.8225                 3.2159

                     40                     41                     42
                      A                      A                      A
 Frequencies --   1672.2158              1809.0933              2877.2444
 Red. masses --      6.9267                10.6081                 1.0835
 Frc consts  --     11.4120                20.4554                 5.2849
 IR Inten    --      2.9164               148.9657               130.1977

                     43                     44                     45
                      A                      A                      A
 Frequencies --   2944.0725              2977.9165              2990.8995
 Red. masses --      1.0782                 1.0808                 1.0834
 Frc consts  --      5.5064                 5.6473                 5.7100
 IR Inten    --     14.8537                 9.7635                42.4143

                     46                     47                     48
                      A                      A                      A
 Frequencies --   3031.8747              3098.9284              3111.1504
 Red. masses --      1.0353                 1.1014                 1.1014
 Frc consts  --      5.6070                 6.2321                 6.2812
 IR Inten    --     28.0062                30.5900                17.1822

                     49                     50                     51
                      A                      A                      A
 Frequencies --   3177.8696              3202.1844              3796.6162
 Red. masses --      1.0843                 1.1039                 1.0657
 Frc consts  --      6.4517                 6.6691                 9.0507
 IR Inten    --      4.0643                21.5173                39.5189

 - Thermochemistry -
 -------------------
 Temperature   298.150 Kelvin.  Pressure   1.00000 Atm.
 Atom     1 has atomic number  6 and mass  12.00000

 Molecular mass:   126.06808 amu.
 Principal axes and moments of inertia in atomic units:
                           1         2         3
     Eigenvalues --   687.984741371.739921824.64419
           X            0.99939   0.02868  -0.01978
           Y           -0.02897   0.99948  -0.01447
           Z            0.01935   0.01504   0.99970
 This molecule is an asymmetric top.
 Rotational symmetry number  1.
 Warning -- assumption of classical behavior for rotation
           may cause significant error
 Rotational temperatures (Kelvin)      0.12589     0.06314     0.04747
 Rotational constants (GHZ):           2.62323     1.31566     0.98909
 Zero-point vibrational energy     414290.9 (Joules/Mol)
                                   99.01789 (Kcal/Mol)
 Warning -- explicit consideration of  12 degrees of freedom as
           vibrations may cause significant error
 Vibrational temperatures:     88.28   148.53   224.14   306.76   314.52
          (Kelvin)            412.77   424.29   562.97   644.07   670.97
                              772.97   796.20   898.04  1061.50  1073.44
                             1178.46  1266.20  1351.43  1391.96  1471.80
                             1503.77  1538.20  1553.64  1588.21  1617.02
                             1637.78  1665.94  1742.82  1808.11  1845.56
                             1876.59  1922.05  1938.33  2000.62  2022.82
                             2035.80  2075.44  2153.58  2158.57  2405.94
                             2602.88  4139.71  4235.86  4284.55  4303.23
                             4362.19  4458.66  4476.25  4572.24  4607.22
                             5462.48

 Zero-point correction=                           0.157795 (Hartree/Particle)
 Thermal correction to Energy=                    0.166838
 Thermal correction to Enthalpy=                  0.167782
 Thermal correction to Gibbs Free Energy=         0.123774
 Sum of electronic and zero-point Energies=           -423.046505
 Sum of electronic and thermal Energies=              -423.037462
 Sum of electronic and thermal Enthalpies=            -423.036518
 Sum of electronic and thermal Free Energies=         -423.080527

                     E (Thermal)             CV                S
                      KCal/Mol        Cal/Mol-Kelvin    Cal/Mol-Kelvin
 Total                  104.692             33.624             92.624
 Electronic               0.000              0.000              0.000
 Translational            0.889              2.981             40.409
 Rotational               0.889              2.981             28.934
 Vibrational            102.915             27.663             23.281
 Vibration     1          0.597              1.973              4.413
 Vibration     2          0.605              1.947              3.392
 Vibration     3          0.620              1.896              2.600
 Vibration     4          0.644              1.821              2.016
 Vibration     5          0.646              1.813              1.971
 Vibration     6          0.684              1.698              1.492
 Vibration     7          0.689              1.683              1.446
 Vibration     8          0.759              1.489              0.995
 Vibration     9          0.807              1.366              0.803
 Vibration    10          0.824              1.325              0.748
 Vibration    11          0.892              1.168              0.571
 Vibration    12          0.909              1.132              0.537

 Optimization completed.
    -- Stationary point found.
 Normal termination of Gaussian 09 at Tue Jan 28 00:54:03 2020.
