 Gaussian 09, Revision D.01,
 Gaussian 09:  ES64L-G09RevD.01 24-Apr-2013

 -----------------------------
 # b3lyp 6-31G(2df,p) opt Freq
 -----------------------------

 -----
 titel
 -----
 Symbolic Z-matrix:
 Charge =  0 Multiplicity = 1

 SCF Done:  E(RB3LYP) =  -423.172873036     A.U. after   14 cycles
 Optimization completed.
    -- Stationary point found.
 Normal termination of Gaussian 09 at Mon Jan 27 22:03:31 2020.

 ----------------------------------------------------------------------
 #N Geom=AllCheck Guess=TCheck SCRF=Check GenChk RB3LYP/6-31G(2df,p) Fr
 eq
 ----------------------------------------------------------------------

 Structure from the checkpoint file:  "/scratch/puck/g09_1a375144-bb42-4bfd-9afa-901ef535dec2/Gau-72793.chk"
 -----
 titel
 -----
 Charge =  0 Multiplicity = 1

                         Standard orientation:
 ---------------------------------------------------------------------
 Center     Atomic      Atomic             Coordinates (Angstroms)
 Number     Number       Type             X           Y           Z
 ---------------------------------------------------------------------
      1          6           0       -2.036219   -1.779399    0.229590
      2          6           0       -1.453037   -0.416765    0.530069
      3          6           0       -1.316475    0.630207   -0.554810
      4          8           0       -1.490929    1.984129   -0.255841
      5          6           0       -0.092456   -0.011639    0.013482
      6          6           0        0.938466   -0.869612   -0.743213
      7          6           0        2.033717   -0.084865    0.011945
      8          8           0        3.228637   -0.115175   -0.005303
      9          6           0        0.996958    0.745938    0.791560
     10          1           0       -1.656167   -2.539494    0.921300
     11          1           0       -3.128637   -1.771291    0.312635
     12          1           0       -1.783445   -2.104131   -0.785049
     13          1           0       -1.694108   -0.010772    1.510817
     14          1           0       -1.610196    0.339003   -1.565873
     15          1           0       -2.430118    2.144263   -0.116108
     16          1           0        0.936824   -1.939436   -0.506752
     17          1           0        0.969617   -0.755556   -1.831757
     18          1           0        1.025106    0.579621    1.873772
     19          1           0        1.043730    1.822963    0.604422
 ---------------------------------------------------------------------

 SCF Done:  E(RB3LYP) =  -423.172873036     A.U. after    1 cycles

 The electronic state is 1-A.
 Alpha  occ. eigenvalues --  -19.14994 -19.13375 -10.26850 -10.23760 -10.20215
 Alpha  occ. eigenvalues --  -10.19630 -10.19207 -10.18828 -10.18771  -1.04282
 Alpha  occ. eigenvalues --   -1.03427  -0.87737  -0.80061  -0.71357  -0.68301
 Alpha  occ. eigenvalues --   -0.59575  -0.54628  -0.52775  -0.52305  -0.47825
 Alpha  occ. eigenvalues --   -0.46982  -0.44195  -0.42426  -0.41661  -0.40769
 Alpha  occ. eigenvalues --   -0.40007  -0.39019  -0.37029  -0.35895  -0.33205
 Alpha  occ. eigenvalues --   -0.31919  -0.27440  -0.25770  -0.23944
 Alpha virt. eigenvalues --   -0.01755   0.07437   0.08920   0.10634   0.11285
 Alpha virt. eigenvalues --    0.12062   0.13172   0.15023   0.15554   0.16433
 Alpha virt. eigenvalues --    0.17117   0.18701   0.19179   0.22016   0.23561

 Mulliken charges:
               1
     1  C   -0.412850
     2  C   -0.131038
     3  C    0.021471
     4  O   -0.420267
     5  C    0.319382
     6  C   -0.433810
     7  C    0.405879
     8  O   -0.287365
     9  C   -0.416383
    10  H    0.121954
    11  H    0.119053
    12  H    0.119640
    13  H    0.088645
    14  H    0.082302
    15  H    0.289050
    16  H    0.129903
    17  H    0.129869
    18  H    0.126963
    19  H    0.147602
 Sum of Mulliken charges =   0.00000

 Dipole moment (field-independent basis, Debye):
    X=             -4.0439    Y=             -0.6807    Z=              0.1603  Tot=              4.1039
 Quadrupole moment (field-independent basis, Debye-Ang):
   XX=            -60.3600   YY=            -53.2448   ZZ=            -50.9994
   XY=             -1.3128   XZ=             -0.0334   YZ=              0.7659

  Exact polarizability:  90.650   0.771  74.773  -0.456   3.211  65.811
 Approx polarizability: 125.438  -1.159 106.098  -0.928   3.499 100.535

                      1                      2                      3
                      A                      A                      A
 Frequencies --     43.9241               161.7304               171.6611
 Red. masses --      4.6577                 2.9509                 2.6132
 Frc consts  --      0.0053                 0.0455                 0.0454
 IR Inten    --      2.8322                 0.3264                 1.5274

                      4                      5                      6
                      A                      A                      A
 Frequencies --    184.5969               225.8707               260.1470
 Red. masses --      1.1201                 2.7721                 2.1601
 Frc consts  --      0.0225                 0.0833                 0.0861
 IR Inten    --      0.1158                 9.3752                20.0834

                      7                      8                      9
                      A                      A                      A
 Frequencies --    298.4959               331.5278               421.5339
 Red. masses --      1.6036                 2.1250                 2.0120
 Frc consts  --      0.0842                 0.1376                 0.2106
 IR Inten    --     72.0702                 9.0946                 1.7822

                     10                     11                     12
                      A                      A                      A
 Frequencies --    457.4180               473.1256               530.1125
 Red. masses --      3.3006                 4.4951                 3.3746
 Frc consts  --      0.4069                 0.5928                 0.5587
 IR Inten    --      5.0576                 3.5813                 2.4367

                     13                     14                     15
                      A                      A                      A
 Frequencies --    562.7417               683.5099               717.9686
 Red. masses --      3.3533                 1.4318                 3.0715
 Frc consts  --      0.6257                 0.3941                 0.9328
 IR Inten    --      5.0662                 0.8851                 0.1172

                     16                     17                     18
                      A                      A                      A
 Frequencies --    792.8330               860.8865               907.0567
 Red. masses --      2.6133                 2.3983                 2.9905
 Frc consts  --      0.9678                 1.0472                 1.4496
 IR Inten    --      7.7296                 2.5834                 4.7474

                     19                     20                     21
                      A                      A                      A
 Frequencies --    949.8888               996.2510              1043.5616
 Red. masses --      1.8348                 1.1049                 3.6499
 Frc consts  --      0.9754                 0.6461                 2.3419
 IR Inten    --      4.1307                 6.3207                22.8776

                     22                     23                     24
                      A                      A                      A
 Frequencies --   1061.4051              1066.3100              1080.8787
 Red. masses --      1.1625                 2.2729                 2.4404
 Frc consts  --      0.7716                 1.5226                 1.6798
 IR Inten    --      1.3512                14.0235                39.8979

                     25                     26                     27
                      A                      A                      A
 Frequencies --   1116.9277              1124.4046              1169.2182
 Red. masses --      2.6306                 2.2107                 2.6322
 Frc consts  --      1.9335                 1.6468                 2.1201
 IR Inten    --     32.2913                15.3806                40.8880

                     28                     29                     30
                      A                      A                      A
 Frequencies --   1186.5072              1196.3561              1209.7313
 Red. masses --      1.6247                 1.4624                 1.5003
 Frc consts  --      1.3476                 1.2332                 1.2937
 IR Inten    --      1.1194                 0.3313                13.9170

                     31                     32                     33
                      A                      A                      A
 Frequencies --   1221.2287              1295.0963              1312.1330
 Red. masses --      2.1722                 1.2668                 1.7277
 Frc consts  --      1.9087                 1.2519                 1.7526
 IR Inten    --      3.8467                67.6994                 1.9908

                     34                     35                     36
                      A                      A                      A
 Frequencies --   1351.5705              1418.3843              1428.7160
 Red. masses --      1.4313                 1.2384                 1.0870
 Frc consts  --      1.5405                 1.4679                 1.3072
 IR Inten    --      1.7741                 1.9728                13.6874

                     37                     38                     39
                      A                      A                      A
 Frequencies --   1445.4252              1481.5938              1492.5229
 Red. masses --      1.1136                 2.1771                 1.0659
 Frc consts  --      1.3708                 2.8157                 1.3990
 IR Inten    --      2.0353                 7.5862                 5.0596

                     40                     41                     42
                      A                      A                      A
 Frequencies --   1506.0917              1898.2461              3027.1798
 Red. masses --      1.2532                12.8242                 1.0356
 Frc consts  --      1.6748                27.2261                 5.5914
 IR Inten    --      7.2352               313.7949                29.1317

                     43                     44                     45
                      A                      A                      A
 Frequencies --   3042.1958              3050.9185              3073.8781
 Red. masses --      1.0580                 1.0604                 1.0869
 Frc consts  --      5.7689                 5.8155                 6.0508
 IR Inten    --     12.7740                13.0646                29.3928

                     46                     47                     48
                      A                      A                      A
 Frequencies --   3088.2346              3092.5620              3096.5808
 Red. masses --      1.1013                 1.1050                 1.0991
 Frc consts  --      6.1884                 6.2268                 6.2094
 IR Inten    --     22.4079                10.7410                16.3288

                     49                     50                     51
                      A                      A                      A
 Frequencies --   3103.2340              3130.3579              3806.0153
 Red. masses --      1.1031                 1.0881                 1.0663
 Frc consts  --      6.2588                 6.2819                 9.1007
 IR Inten    --      3.7661                21.3322                22.9504

 - Thermochemistry -
 -------------------
 Temperature   298.150 Kelvin.  Pressure   1.00000 Atm.
 Atom     1 has atomic number  6 and mass  12.00000

 Molecular mass:   126.06808 amu.
 Principal axes and moments of inertia in atomic units:
                           1         2         3
     Eigenvalues --   668.522781564.640501970.70484
           X            0.99950   0.03157  -0.00112
           Y           -0.03153   0.99927   0.02170
           Z            0.00180  -0.02165   0.99976
 This molecule is an asymmetric top.
 Rotational symmetry number  1.
 Warning -- assumption of classical behavior for rotation
           may cause significant error
 Rotational temperatures (Kelvin)      0.12956     0.05536     0.04395
 Rotational constants (GHZ):           2.69960     1.15345     0.91578
 Zero-point vibrational energy     410610.7 (Joules/Mol)
                                   98.13831 (Kcal/Mol)
 Warning -- explicit consideration of  13 degrees of freedom as
           vibrations may cause significant error
 Vibrational temperatures:     63.20   232.69   246.98   265.59   324.98
          (Kelvin)            374.29   429.47   476.99   606.49   658.12
                              680.72   762.71   809.66   983.42  1033.00
                             1140.71  1238.62  1305.05  1366.68  1433.38
                             1501.45  1527.12  1534.18  1555.14  1607.01
                             1617.77  1682.24  1707.12  1721.29  1740.53
                             1757.07  1863.35  1887.86  1944.61  2040.74
                             2055.60  2079.64  2131.68  2147.40  2166.93
                             2731.15  4355.43  4377.04  4389.59  4422.62
                             4443.28  4449.50  4455.28  4464.86  4503.88
                             5476.00

 Zero-point correction=                           0.156393 (Hartree/Particle)
 Thermal correction to Energy=                    0.165678
 Thermal correction to Enthalpy=                  0.166623
 Thermal correction to Gibbs Free Energy=         0.122113
 Sum of electronic and zero-point Energies=           -423.016480
 Sum of electronic and thermal Energies=              -423.007195
 Sum of electronic and thermal Enthalpies=            -423.006250
 Sum of electronic and thermal Free Energies=         -423.050760

                     E (Thermal)             CV                S
                      KCal/Mol        Cal/Mol-Kelvin    Cal/Mol-Kelvin
 Total                  103.965             34.728             93.678
 Electronic               0.000              0.000              0.000
 Translational            0.889              2.981             40.409
 Rotational               0.889              2.981             29.112
 Vibrational            102.187             28.766             24.157
 Vibration     1          0.595              1.980              5.074
 Vibration     2          0.622              1.889              2.529
 Vibration     3          0.626              1.877              2.417
 Vibration     4          0.631              1.861              2.281
 Vibration     5          0.650              1.802              1.912
 Vibration     6          0.668              1.746              1.661
 Vibration     7          0.692              1.677              1.425
 Vibration     8          0.714              1.613              1.253
 Vibration     9          0.784              1.423              0.887
 Vibration    10          0.816              1.344              0.774
 Vibration    11          0.830              1.310              0.729
 Vibration    12          0.885              1.183              0.587
 Vibration    13          0.918              1.112              0.518

 Normal termination of Gaussian 09 at Mon Jan 27 22:45:48 2020.
