 Gaussian 09, Revision D.01,
 Gaussian 09:  ES64L-G09RevD.01 24-Apr-2013

 -----------------------------
 # b3lyp 6-31G(2df,p) opt Freq
 -----------------------------

 -----
 titel
 -----
 Symbolic Z-matrix:
 Charge =  0 Multiplicity = 1

 SCF Done:  E(RB3LYP) =  -423.190098443     A.U. after   14 cycles
 SCF Done:  E(RB3LYP) =  -423.190098248     A.U. after    7 cycles
 Optimization completed.
    -- Stationary point found.
 Normal termination of Gaussian 09 at Mon Jan 27 13:42:11 2020.

 ----------------------------------------------------------------------
 #N Geom=AllCheck Guess=TCheck SCRF=Check GenChk RB3LYP/6-31G(2df,p) Fr
 eq
 ----------------------------------------------------------------------

 Structure from the checkpoint file:  "/scratch/puck/g09_f89123ef-d40b-46b9-a873-e894bd4e3114/Gau-28523.chk"
 -----
 titel
 -----
 Charge =  0 Multiplicity = 1

                         Standard orientation:
 ---------------------------------------------------------------------
 Center     Atomic      Atomic             Coordinates (Angstroms)
 Number     Number       Type             X           Y           Z
 ---------------------------------------------------------------------
      1          8           0       -3.058068   -0.452258    0.297650
      2          6           0       -2.328169    0.365861   -0.201400
      3          6           0       -0.829647    0.209992   -0.379606
      4          6           0       -0.311332   -1.102510    0.214207
      5          8           0        0.897005   -1.506459   -0.397878
      6          6           0        2.075136   -0.951219    0.138984
      7          6           0        2.266667    0.542152    0.034976
      8          6           0        1.372867    1.531308    0.029529
      9          6           0       -0.128928    1.477363    0.142263
     10          1           0       -2.732974    1.335460   -0.576893
     11          1           0       -0.656118    0.157304   -1.465956
     12          1           0       -0.194898   -1.018901    1.306410
     13          1           0       -1.039770   -1.894268    0.023651
     14          1           0        2.179742   -1.240888    1.202522
     15          1           0        2.892104   -1.447771   -0.395883
     16          1           0        3.317514    0.828689    0.011518
     17          1           0        1.768870    2.544836   -0.004964
     18          1           0       -0.395899    1.618193    1.202458
     19          1           0       -0.549628    2.349398   -0.374752
 ---------------------------------------------------------------------

 SCF Done:  E(RB3LYP) =  -423.190098248     A.U. after    1 cycles

 The electronic state is 1-A.
 Alpha  occ. eigenvalues --  -19.14584 -19.14172 -10.27541 -10.23613 -10.22911
 Alpha  occ. eigenvalues --  -10.20462 -10.20137 -10.19281 -10.18848  -1.05279
 Alpha  occ. eigenvalues --   -1.03600  -0.82330  -0.78986  -0.70177  -0.69148
 Alpha  occ. eigenvalues --   -0.62293  -0.56201  -0.53765  -0.50793  -0.49806
 Alpha  occ. eigenvalues --   -0.46739  -0.45837  -0.44055  -0.43357  -0.42261
 Alpha  occ. eigenvalues --   -0.40721  -0.38611  -0.36750  -0.35168  -0.33914
 Alpha  occ. eigenvalues --   -0.31747  -0.27146  -0.25356  -0.24401
 Alpha virt. eigenvalues --   -0.02579   0.01090   0.07770   0.09980   0.11939
 Alpha virt. eigenvalues --    0.13228   0.13610   0.14553   0.15498   0.16247
 Alpha virt. eigenvalues --    0.16743   0.18724   0.19115   0.21235   0.22473

 Mulliken charges:
               1
     1  O   -0.246033
     2  C    0.150617
     3  C   -0.097112
     4  C   -0.092246
     5  O   -0.236826
     6  C   -0.133236
     7  C   -0.051338
     8  C   -0.070184
     9  C   -0.271066
    10  H    0.078323
    11  H    0.113655
    12  H    0.093048
    13  H    0.127067
    14  H    0.101600
    15  H    0.116710
    16  H    0.092047
    17  H    0.092042
    18  H    0.123502
    19  H    0.109429
 Sum of Mulliken charges =   0.00000

 Dipole moment (field-independent basis, Debye):
    X=              1.8346    Y=              2.1300    Z=             -0.0058  Tot=              2.8112
 Quadrupole moment (field-independent basis, Debye-Ang):
   XX=            -57.9776   YY=            -53.3014   ZZ=            -53.4139
   XY=             -3.2618   XZ=              3.3024   YZ=             -1.1064

  Exact polarizability:  96.245  -4.275  81.839  -0.545  -3.699  55.966
 Approx polarizability: 128.928  -7.256 123.878  -4.707  -5.803  91.511

                      1                      2                      3
                      A                      A                      A
 Frequencies --     65.9635                75.4977               120.3715
 Red. masses --      4.5936                 1.9869                 2.7188
 Frc consts  --      0.0118                 0.0067                 0.0232
 IR Inten    --      4.4616                 0.4521                 2.6667

                      4                      5                      6
                      A                      A                      A
 Frequencies --    212.2138               272.0405               340.3394
 Red. masses --      5.8481                 3.5772                 2.5852
 Frc consts  --      0.1552                 0.1560                 0.1764
 IR Inten    --      6.7748                 1.4378                 1.8265

                      7                      8                      9
                      A                      A                      A
 Frequencies --    379.0044               401.8276               418.6388
 Red. masses --      2.5499                 3.4886                 2.5551
 Frc consts  --      0.2158                 0.3319                 0.2638
 IR Inten    --      1.4709                 2.8949                 0.9264

                     10                     11                     12
                      A                      A                      A
 Frequencies --    496.0403               666.3143               687.7230
 Red. masses --      3.1065                 1.7911                 2.3965
 Frc consts  --      0.4504                 0.4685                 0.6678
 IR Inten    --      1.7969                22.9929                21.7715

                     13                     14                     15
                      A                      A                      A
 Frequencies --    772.1038               816.6278               856.9693
 Red. masses --      3.3422                 2.9292                 2.1425
 Frc consts  --      1.1739                 1.1509                 0.9270
 IR Inten    --     11.9865                 8.9649                 0.8846

                     16                     17                     18
                      A                      A                      A
 Frequencies --    902.3526               908.3249               959.5295
 Red. masses --      1.7773                 2.2834                 2.8099
 Frc consts  --      0.8526                 1.1100                 1.5243
 IR Inten    --     11.9265                 7.3215                16.3303

                     19                     20                     21
                      A                      A                      A
 Frequencies --   1002.0384              1023.4681              1037.6334
 Red. masses --      1.4020                 2.1457                 1.9515
 Frc consts  --      0.8294                 1.3242                 1.2380
 IR Inten    --      2.0126                 2.2793                11.5570

                     22                     23                     24
                      A                      A                      A
 Frequencies --   1059.8718              1115.7778              1148.8568
 Red. masses --      2.2448                 1.8484                 2.5441
 Frc consts  --      1.4857                 1.3558                 1.9784
 IR Inten    --      7.2560                 2.5177                 3.8852

                     25                     26                     27
                      A                      A                      A
 Frequencies --   1179.5729              1220.3132              1255.6180
 Red. masses --      3.1992                 1.4062                 1.2251
 Frc consts  --      2.6226                 1.2338                 1.1379
 IR Inten    --    112.2102                10.1876                 7.0559

                     28                     29                     30
                      A                      A                      A
 Frequencies --   1287.2833              1296.3583              1323.8879
 Red. masses --      1.2522                 1.2091                 1.2397
 Frc consts  --      1.2225                 1.1972                 1.2802
 IR Inten    --     10.5961                16.3787                 1.6348

                     31                     32                     33
                      A                      A                      A
 Frequencies --   1339.6389              1373.2055              1403.5642
 Red. masses --      1.2487                 1.4254                 1.3547
 Frc consts  --      1.3203                 1.5836                 1.5724
 IR Inten    --     19.3115                 0.6433                11.7142

                     34                     35                     36
                      A                      A                      A
 Frequencies --   1419.6950              1426.6123              1435.3189
 Red. masses --      1.3016                 1.4327                 1.2654
 Frc consts  --      1.5457                 1.7179                 1.5360
 IR Inten    --     14.5901                 6.4835                 0.3256

                     37                     38                     39
                      A                      A                      A
 Frequencies --   1474.5615              1479.1315              1498.4325
 Red. masses --      1.0863                 1.0910                 1.0918
 Frc consts  --      1.3916                 1.4064                 1.4443
 IR Inten    --      2.5844                 6.3061                 5.2989

                     40                     41                     42
                      A                      A                      A
 Frequencies --   1738.3184              1827.1544              2852.8108
 Red. masses --      7.0620                10.7046                 1.0823
 Frc consts  --     12.5729                21.0558                 5.1899
 IR Inten    --      2.3425               162.8797               124.1925

                     43                     44                     45
                      A                      A                      A
 Frequencies --   2921.4406              2978.9614              2983.5520
 Red. masses --      1.0725                 1.0702                 1.0710
 Frc consts  --      5.3930                 5.5958                 5.6168
 IR Inten    --     53.9667                16.2042                26.5840

                     46                     47                     48
                      A                      A                      A
 Frequencies --   3001.2707              3036.9045              3062.3514
 Red. masses --      1.0779                 1.0903                 1.0868
 Frc consts  --      5.7205                 5.9248                 6.0048
 IR Inten    --     24.0747                30.3562                27.5930

                     49                     50                     51
                      A                      A                      A
 Frequencies --   3101.8668              3123.4005              3147.8145
 Red. masses --      1.0926                 1.0829                 1.0935
 Frc consts  --      6.1937                 6.2244                 6.3841
 IR Inten    --     16.4044                 7.0939                35.4843

 - Thermochemistry -
 -------------------
 Temperature   298.150 Kelvin.  Pressure   1.00000 Atm.
 Atom     1 has atomic number  8 and mass  15.99491

 Molecular mass:   126.06808 amu.
 Principal axes and moments of inertia in atomic units:
                           1         2         3
     Eigenvalues --   589.496981516.121922001.50168
           X            0.99989  -0.01141   0.00896
           Y            0.01156   0.99980  -0.01631
           Z           -0.00877   0.01641   0.99983
 This molecule is an asymmetric top.
 Rotational symmetry number  1.
 Warning -- assumption of classical behavior for rotation
           may cause significant error
 Rotational temperatures (Kelvin)      0.14693     0.05713     0.04327
 Rotational constants (GHZ):           3.06149     1.19037     0.90169
 Zero-point vibrational energy     418265.7 (Joules/Mol)
                                   99.96791 (Kcal/Mol)
 Warning -- explicit consideration of  10 degrees of freedom as
           vibrations may cause significant error
 Vibrational temperatures:     94.91   108.62   173.19   305.33   391.41
          (Kelvin)            489.67   545.30   578.14   602.33   713.69
                              958.68   989.48  1110.88  1174.94  1232.99
                             1298.28  1306.88  1380.55  1441.71  1472.54
                             1492.92  1524.92  1605.35  1652.95  1697.14
                             1755.76  1806.55  1852.11  1865.17  1904.78
                             1927.44  1975.73  2019.41  2042.62  2052.57
                             2065.10  2121.56  2128.14  2155.91  2501.05
                             2628.86  4104.55  4203.30  4286.06  4292.66
                             4318.15  4369.42  4406.04  4462.89  4493.87
                             4529.00

 Zero-point correction=                           0.159309 (Hartree/Particle)
 Thermal correction to Energy=                    0.167886
 Thermal correction to Enthalpy=                  0.168831
 Thermal correction to Gibbs Free Energy=         0.125324
 Sum of electronic and zero-point Energies=           -423.030789
 Sum of electronic and thermal Energies=              -423.022212
 Sum of electronic and thermal Enthalpies=            -423.021268
 Sum of electronic and thermal Free Energies=         -423.064775

                     E (Thermal)             CV                S
                      KCal/Mol        Cal/Mol-Kelvin    Cal/Mol-Kelvin
 Total                  105.350             31.527             91.568
 Electronic               0.000              0.000              0.000
 Translational            0.889              2.981             40.409
 Rotational               0.889              2.981             28.971
 Vibrational            103.573             25.565             22.188
 Vibration     1          0.597              1.971              4.270
 Vibration     2          0.599              1.965              4.005
 Vibration     3          0.609              1.932              3.094
 Vibration     4          0.643              1.822              2.025
 Vibration     5          0.675              1.725              1.583
 Vibration     6          0.720              1.595              1.211
 Vibration     7          0.749              1.515              1.043
 Vibration     8          0.767              1.466              0.956
 Vibration     9          0.781              1.430              0.897
 Vibration    10          0.852              1.259              0.668

 Normal termination of Gaussian 09 at Mon Jan 27 14:23:02 2020.
