 Gaussian 09, Revision D.01,
 Gaussian 09:  ES64L-G09RevD.01 24-Apr-2013

 -----------------------------
 # b3lyp 6-31G(2df,p) opt Freq
 -----------------------------

 -----
 titel
 -----
 Symbolic Z-matrix:
 Charge =  0 Multiplicity = 1

 SCF Done:  E(RB3LYP) =  -423.119076723     A.U. after   13 cycles
 Optimization completed.
    -- Stationary point found.
 Normal termination of Gaussian 09 at Mon Jan 27 18:07:46 2020.

 ----------------------------------------------------------------------
 #N Geom=AllCheck Guess=TCheck SCRF=Check GenChk RB3LYP/6-31G(2df,p) Fr
 eq
 ----------------------------------------------------------------------

 Structure from the checkpoint file:  "/scratch/puck/g09_6ce8cd24-630d-4545-9f07-177f89fc28c0/Gau-62829.chk"
 -----
 titel
 -----
 Charge =  0 Multiplicity = 1

                         Standard orientation:
 ---------------------------------------------------------------------
 Center     Atomic      Atomic             Coordinates (Angstroms)
 Number     Number       Type             X           Y           Z
 ---------------------------------------------------------------------
      1          8           0       -2.653007   -0.009530    0.113261
      2          6           0       -1.265739    0.027745    0.036198
      3          6           0       -0.596570   -0.974326   -1.000518
      4          6           0        0.618002   -0.615353   -0.123540
      5          6           0       -0.327777   -0.615070    1.101512
      6          8           0        2.020948   -0.862952    0.015025
      7          6           0        2.194610    0.577132    0.273119
      8          6           0        0.846946    0.849025   -0.448967
      9          6           0       -0.555480    1.421310   -0.135948
     10          1           0       -2.930891    0.544903    0.850647
     11          1           0       -1.021626   -1.970720   -0.865564
     12          1           0       -0.561807   -0.696909   -2.056416
     13          1           0       -0.643369   -1.620689    1.384898
     14          1           0       -0.059306   -0.023971    1.981303
     15          1           0        2.211867    0.780148    1.350216
     16          1           0        3.103974    0.959767   -0.196442
     17          1           0        1.073632    0.960711   -1.512455
     18          1           0       -0.638653    2.008483    0.785007
     19          1           0       -0.961303    2.015362   -0.958617
 ---------------------------------------------------------------------

 SCF Done:  E(RB3LYP) =  -423.119076723     A.U. after    1 cycles

 The electronic state is 1-A.
 Alpha  occ. eigenvalues --  -19.14759 -19.13715 -10.25122 -10.23740 -10.23553
 Alpha  occ. eigenvalues --  -10.19193 -10.18910 -10.18748 -10.17742  -1.04064
 Alpha  occ. eigenvalues --   -1.03238  -0.87863  -0.74850  -0.68422  -0.67217
 Alpha  occ. eigenvalues --   -0.64671  -0.57120  -0.53658  -0.51016  -0.48638
 Alpha  occ. eigenvalues --   -0.46261  -0.45447  -0.43392  -0.41666  -0.38993
 Alpha  occ. eigenvalues --   -0.37274  -0.36841  -0.35650  -0.35241  -0.32999
 Alpha  occ. eigenvalues --   -0.30406  -0.27327  -0.26586  -0.23966
 Alpha virt. eigenvalues --    0.06698   0.08347   0.08957   0.10705   0.12178
 Alpha virt. eigenvalues --    0.13381   0.13885   0.15602   0.16101   0.16548
 Alpha virt. eigenvalues --    0.17783   0.18848   0.20306   0.21022   0.22520

 Mulliken charges:
               1
     1  O   -0.476944
     2  C    0.411289
     3  C   -0.353081
     4  C    0.465182
     5  C   -0.352022
     6  O   -0.358543
     7  C   -0.170067
     8  C   -0.021409
     9  C   -0.341460
    10  H    0.281206
    11  H    0.112230
    12  H    0.100251
    13  H    0.104470
    14  H    0.085330
    15  H    0.106907
    16  H    0.113041
    17  H    0.091125
    18  H    0.097779
    19  H    0.104714
 Sum of Mulliken charges =   0.00000

 Dipole moment (field-independent basis, Debye):
    X=             -0.6282    Y=              2.1145    Z=              0.9203  Tot=              2.3902
 Quadrupole moment (field-independent basis, Debye-Ang):
   XX=            -57.1251   YY=            -53.2498   ZZ=            -50.6442
   XY=              1.7962   XZ=             -3.0407   YZ=              0.9940

  Exact polarizability:  84.101   3.481  69.856   0.211   0.842  69.856
 Approx polarizability: 117.878   1.910 105.910   0.467   2.184 107.093

                      1                      2                      3
                      A                      A                      A
 Frequencies --    213.5158               237.8726               280.8769
 Red. masses --      2.3465                 1.1736                 4.0482
 Frc consts  --      0.0630                 0.0391                 0.1882
 IR Inten    --      6.9519                65.7003                 2.4095

                      4                      5                      6
                      A                      A                      A
 Frequencies --    322.1731               390.0637               436.2767
 Red. masses --      4.0130                 2.3673                 2.4145
 Frc consts  --      0.2454                 0.2122                 0.2708
 IR Inten    --     28.7011                 4.8724                10.0867

                      7                      8                      9
                      A                      A                      A
 Frequencies --    459.2833               522.1720               544.0232
 Red. masses --      2.9655                 3.2747                 2.5453
 Frc consts  --      0.3686                 0.5261                 0.4438
 IR Inten    --      1.7855                 0.1011                 0.5006

                     10                     11                     12
                      A                      A                      A
 Frequencies --    569.2409               662.7613               716.5405
 Red. masses --      2.7219                 3.6318                 3.3627
 Frc consts  --      0.5197                 0.9399                 1.0172
 IR Inten    --      7.3456                 0.5824                 4.8870

                     13                     14                     15
                      A                      A                      A
 Frequencies --    780.1589               818.4741               862.4810
 Red. masses --      2.9049                 3.5649                 2.8674
 Frc consts  --      1.0417                 1.4071                 1.2567
 IR Inten    --      3.4863                17.0772                 1.7322

                     16                     17                     18
                      A                      A                      A
 Frequencies --    912.2921               927.8326               953.6219
 Red. masses --      1.9030                 2.9648                 1.9338
 Frc consts  --      0.9332                 1.5038                 1.0361
 IR Inten    --     10.8835                36.2713                 4.0243

                     19                     20                     21
                      A                      A                      A
 Frequencies --    969.4048               980.6763              1016.2830
 Red. masses --      1.7930                 1.0868                 2.6050
 Frc consts  --      0.9928                 0.6158                 1.5852
 IR Inten    --      1.5374                 1.6254                33.0087

                     22                     23                     24
                      A                      A                      A
 Frequencies --   1063.3095              1093.0760              1104.3879
 Red. masses --      2.6074                 1.9629                 1.8621
 Frc consts  --      1.7369                 1.3818                 1.3381
 IR Inten    --     68.8923                25.0018                 0.7051

                     25                     26                     27
                      A                      A                      A
 Frequencies --   1122.0217              1141.0459              1152.5776
 Red. masses --      2.1979                 1.2455                 1.3502
 Frc consts  --      1.6303                 0.9554                 1.0568
 IR Inten    --     12.4375                14.9845                 1.2055

                     28                     29                     30
                      A                      A                      A
 Frequencies --   1174.8979              1202.1963              1205.9428
 Red. masses --      1.7056                 1.8052                 1.4291
 Frc consts  --      1.3872                 1.5372                 1.2245
 IR Inten    --      3.2608                 4.7343                10.0802

                     31                     32                     33
                      A                      A                      A
 Frequencies --   1227.2565              1254.6837              1288.0869
 Red. masses --      1.7959                 1.7086                 2.8029
 Frc consts  --      1.5937                 1.5848                 2.7400
 IR Inten    --     15.0500                31.9899                90.4972

                     34                     35                     36
                      A                      A                      A
 Frequencies --   1308.9784              1324.3237              1372.0900
 Red. masses --      2.0323                 1.5892                 1.9716
 Frc consts  --      2.0517                 1.6422                 2.1869
 IR Inten    --    103.2262                 6.0325                 3.5931

                     37                     38                     39
                      A                      A                      A
 Frequencies --   1392.7336              1481.5054              1491.7167
 Red. masses --      1.3673                 1.1034                 1.0938
 Frc consts  --      1.5626                 1.4269                 1.4340
 IR Inten    --      0.7504                 3.0488                 2.5103

                     40                     41                     42
                      A                      A                      A
 Frequencies --   1513.6525              1528.5232              3033.4918
 Red. masses --      1.1181                 1.1667                 1.0598
 Frc consts  --      1.5094                 1.6060                 5.7459
 IR Inten    --      1.1974                 0.4706                47.0191

                     43                     44                     45
                      A                      A                      A
 Frequencies --   3045.7941              3059.6688              3062.6329
 Red. masses --      1.0614                 1.0568                 1.0810
 Frc consts  --      5.8013                 5.8289                 5.9741
 IR Inten    --     34.1462                54.8603                 4.3261

                     46                     47                     48
                      A                      A                      A
 Frequencies --   3069.8767              3102.1710              3107.6826
 Red. masses --      1.0621                 1.1045                 1.1055
 Frc consts  --      5.8972                 6.2624                 6.2907
 IR Inten    --      9.7366                16.5588                56.4553

                     49                     50                     51
                      A                      A                      A
 Frequencies --   3129.3243              3137.2797              3802.5801
 Red. masses --      1.1090                 1.1096                 1.0657
 Frc consts  --      6.3988                 6.4348                 9.0794
 IR Inten    --     20.6514                31.2665                22.4856

 - Thermochemistry -
 -------------------
 Temperature   298.150 Kelvin.  Pressure   1.00000 Atm.
 Atom     1 has atomic number  8 and mass  15.99491

 Molecular mass:   126.06808 amu.
 Principal axes and moments of inertia in atomic units:
                           1         2         3
     Eigenvalues --   482.054861260.334751400.48406
           X            0.99980   0.01982  -0.00097
           Y           -0.01981   0.99976   0.00960
           Z            0.00116  -0.00958   0.99995
 This molecule is an asymmetric top.
 Rotational symmetry number  1.
 Warning -- assumption of classical behavior for rotation
           may cause significant error
 Rotational temperatures (Kelvin)      0.17968     0.06872     0.06185
 Rotational constants (GHZ):           3.74385     1.43195     1.28866
 Zero-point vibrational energy     422099.5 (Joules/Mol)
                                  100.88421 (Kcal/Mol)
 Warning -- explicit consideration of  10 degrees of freedom as
           vibrations may cause significant error
 Vibrational temperatures:    307.20   342.25   404.12   463.53   561.21
          (Kelvin)            627.70   660.81   751.29   782.73   819.01
                              953.56  1030.94  1122.47  1177.60  1240.92
                             1312.58  1334.94  1372.05  1394.76  1410.97
                             1462.20  1529.86  1572.69  1588.97  1614.34
                             1641.71  1658.30  1690.41  1729.69  1735.08
                             1765.75  1805.21  1853.27  1883.33  1905.40
                             1974.13  2003.83  2131.55  2146.24  2177.81
                             2199.20  4364.51  4382.21  4402.18  4406.44
                             4416.86  4463.33  4471.26  4502.39  4513.84
                             5471.06

 Zero-point correction=                           0.160769 (Hartree/Particle)
 Thermal correction to Energy=                    0.167919
 Thermal correction to Enthalpy=                  0.168863
 Thermal correction to Gibbs Free Energy=         0.129817
 Sum of electronic and zero-point Energies=           -422.958307
 Sum of electronic and thermal Energies=              -422.951158
 Sum of electronic and thermal Enthalpies=            -422.950213
 Sum of electronic and thermal Free Energies=         -422.989259

                     E (Thermal)             CV                S
                      KCal/Mol        Cal/Mol-Kelvin    Cal/Mol-Kelvin
 Total                  105.371             30.249             82.179
 Electronic               0.000              0.000              0.000
 Translational            0.889              2.981             40.409
 Rotational               0.889              2.981             28.233
 Vibrational            103.593             24.287             13.538
 Vibration     1          0.644              1.820              2.013
 Vibration     2          0.656              1.783              1.819
 Vibration     3          0.681              1.709              1.528
 Vibration     4          0.707              1.631              1.299
 Vibration     5          0.758              1.491              1.000
 Vibration     6          0.797              1.391              0.838
 Vibration     7          0.817              1.340              0.768
 Vibration     8          0.877              1.201              0.605
 Vibration     9          0.899              1.153              0.557
 Vibration    10          0.925              1.098              0.506

 Optimization completed.
    -- Stationary point found.
 Normal termination of Gaussian 09 at Mon Jan 27 18:54:18 2020.
