 Gaussian 09, Revision D.01,
 Gaussian 09:  ES64L-G09RevD.01 24-Apr-2013

 -----------------------------
 # b3lyp 6-31G(2df,p) opt Freq
 -----------------------------

 -----
 titel
 -----
 Symbolic Z-matrix:
 Charge =  0 Multiplicity = 1

 SCF Done:  E(RB3LYP) =  -423.195641191     A.U. after   14 cycles
 Optimization completed.
    -- Stationary point found.
 Normal termination of Gaussian 09 at Mon Jan 27 17:23:03 2020.

 ----------------------------------------------------------------------
 #N Geom=AllCheck Guess=TCheck SCRF=Check GenChk RB3LYP/6-31G(2df,p) Fr
 eq
 ----------------------------------------------------------------------

 Structure from the checkpoint file:  "/scratch/puck/g09_f5353ee5-5316-42c5-b1e0-654b509c99fd/Gau-43717.chk"
 -----
 titel
 -----
 Charge =  0 Multiplicity = 1

                         Standard orientation:
 ---------------------------------------------------------------------
 Center     Atomic      Atomic             Coordinates (Angstroms)
 Number     Number       Type             X           Y           Z
 ---------------------------------------------------------------------
      1          6           0       -0.831046    2.068049   -0.545897
      2          6           0       -0.788828    0.684510    0.056473
      3          6           0       -0.334891    0.443803    1.456115
      4          6           0        0.500863   -0.121817    0.311391
      5          6           0        0.174954   -1.551177   -0.086095
      6          8           0       -1.248755   -1.628103   -0.091077
      7          6           0       -1.751486   -0.364988   -0.493510
      8          6           0        1.842103    0.420650    0.042116
      9          8           0        2.733874   -0.201215   -0.487311
     10          1           0       -0.067967    2.723295   -0.117773
     11          1           0       -0.681460    2.037242   -1.630549
     12          1           0       -1.804635    2.535187   -0.357543
     13          1           0        0.087788    1.287645    1.993134
     14          1           0       -0.860085   -0.278609    2.072705
     15          1           0        0.602199   -1.764916   -1.076261
     16          1           0        0.541297   -2.303163    0.618565
     17          1           0       -1.795604   -0.277388   -1.592312
     18          1           0       -2.769402   -0.272251   -0.099289
     19          1           0        1.996909    1.473324    0.372862
 ---------------------------------------------------------------------

 SCF Done:  E(RB3LYP) =  -423.195641191     A.U. after    1 cycles

 The electronic state is 1-A.
 Alpha  occ. eigenvalues --  -19.14669 -19.13521 -10.27110 -10.23811 -10.23272
 Alpha  occ. eigenvalues --  -10.22195 -10.21024 -10.20549 -10.19755  -1.04862
 Alpha  occ. eigenvalues --   -1.04112  -0.88561  -0.76352  -0.71453  -0.67202
 Alpha  occ. eigenvalues --   -0.65404  -0.57787  -0.54175  -0.50469  -0.48683
 Alpha  occ. eigenvalues --   -0.47608  -0.46098  -0.43109  -0.42572  -0.41611
 Alpha  occ. eigenvalues --   -0.41214  -0.39725  -0.38726  -0.37668  -0.32804
 Alpha  occ. eigenvalues --   -0.30808  -0.28474  -0.26572  -0.24854
 Alpha virt. eigenvalues --   -0.02437   0.07971   0.09337   0.10669   0.11327
 Alpha virt. eigenvalues --    0.13622   0.13874   0.14808   0.15374   0.15834
 Alpha virt. eigenvalues --    0.16745   0.17784   0.18667   0.20784   0.21033

 Mulliken charges:
               1
     1  C   -0.487061
     2  C    0.259180
     3  C   -0.377422
     4  C    0.188869
     5  C   -0.151543
     6  O   -0.255797
     7  C   -0.128070
     8  C    0.073505
     9  O   -0.271393
    10  H    0.126422
    11  H    0.129769
    12  H    0.129418
    13  H    0.120133
    14  H    0.136554
    15  H    0.113974
    16  H    0.118960
    17  H    0.094154
    18  H    0.113363
    19  H    0.066985
 Sum of Mulliken charges =   0.00000

 Dipole moment (field-independent basis, Debye):
    X=             -2.0581    Y=              2.2391    Z=              0.8119  Tot=              3.1478
 Quadrupole moment (field-independent basis, Debye-Ang):
   XX=            -61.5761   YY=            -53.4228   ZZ=            -51.7705
   XY=             -1.1225   XZ=              3.0949   YZ=             -0.2843

  Exact polarizability:  86.010  -4.754  76.531  -1.623   1.539  67.455
 Approx polarizability: 130.038 -11.130 109.081  -8.340   4.657 104.558

                      1                      2                      3
                      A                      A                      A
 Frequencies --     98.6349               173.2982               205.3105
 Red. masses --      4.4885                 3.3432                 1.0768
 Frc consts  --      0.0257                 0.0592                 0.0267
 IR Inten    --      4.4089                 3.4944                 0.7111

                      4                      5                      6
                      A                      A                      A
 Frequencies --    220.1827               240.1678               269.0746
 Red. masses --      2.7733                 2.7289                 2.6526
 Frc consts  --      0.0792                 0.0927                 0.1132
 IR Inten    --      3.7964                 4.0834                 3.7544

                      7                      8                      9
                      A                      A                      A
 Frequencies --    338.9595               408.0540               444.7056
 Red. masses --      2.1547                 2.0382                 2.2949
 Frc consts  --      0.1459                 0.2000                 0.2674
 IR Inten    --      0.7673                 0.9992                 2.4029

                     10                     11                     12
                      A                      A                      A
 Frequencies --    468.8593               573.8626               668.7374
 Red. masses --      4.4950                 4.1571                 5.2924
 Frc consts  --      0.5822                 0.8066                 1.3945
 IR Inten    --      0.5324                 7.3770                29.7467

                     13                     14                     15
                      A                      A                      A
 Frequencies --    697.4206               772.5198               873.7001
 Red. masses --      4.1170                 3.7800                 3.2752
 Frc consts  --      1.1798                 1.3291                 1.4730
 IR Inten    --      1.1555                 3.3019                13.3990

                     16                     17                     18
                      A                      A                      A
 Frequencies --    928.1433               939.1803               958.1416
 Red. masses --      1.4667                 1.3908                 2.6627
 Frc consts  --      0.7445                 0.7228                 1.4402
 IR Inten    --      7.1119                33.6067                 8.0391

                     19                     20                     21
                      A                      A                      A
 Frequencies --    975.2504              1028.9550              1038.6805
 Red. masses --      1.7623                 1.6586                 1.5808
 Frc consts  --      0.9875                 1.0346                 1.0048
 IR Inten    --     19.2424                 2.2900                 2.8792

                     22                     23                     24
                      A                      A                      A
 Frequencies --   1068.2621              1075.2958              1108.0610
 Red. masses --      1.8511                 1.7364                 2.6210
 Frc consts  --      1.2446                 1.1830                 1.8961
 IR Inten    --      0.4564                14.5834                40.8582

                     25                     26                     27
                      A                      A                      A
 Frequencies --   1127.5264              1155.5243              1222.4185
 Red. masses --      2.2061                 2.7405                 1.2205
 Frc consts  --      1.6524                 2.1560                 1.0746
 IR Inten    --      2.0785                18.6101                19.9629

                     28                     29                     30
                      A                      A                      A
 Frequencies --   1250.4872              1266.0665              1306.9126
 Red. masses --      1.3067                 2.4980                 1.7957
 Frc consts  --      1.2039                 2.3591                 1.8071
 IR Inten    --     15.5671                 4.6041                19.4621

                     31                     32                     33
                      A                      A                      A
 Frequencies --   1345.1544              1388.3720              1406.7897
 Red. masses --      2.2162                 2.0677                 1.3927
 Frc consts  --      2.3627                 2.3483                 1.6239
 IR Inten    --      5.8013                14.9458                 6.7029

                     34                     35                     36
                      A                      A                      A
 Frequencies --   1417.8775              1445.0769              1480.1134
 Red. masses --      1.2737                 1.3060                 1.3646
 Frc consts  --      1.5087                 1.6069                 1.7614
 IR Inten    --      7.6498                 4.8230                12.3080

                     37                     38                     39
                      A                      A                      A
 Frequencies --   1489.7287              1502.2321              1510.0465
 Red. masses --      1.0443                 1.1229                 1.0876
 Frc consts  --      1.3655                 1.4930                 1.4612
 IR Inten    --      2.5144                 1.9379                 0.2960

                     40                     41                     42
                      A                      A                      A
 Frequencies --   1522.7063              1800.1427              2864.2318
 Red. masses --      1.1011                10.4233                 1.0817
 Frc consts  --      1.5042                19.9007                 5.2286
 IR Inten    --      2.2540               251.5166                98.9335

                     43                     44                     45
                      A                      A                      A
 Frequencies --   2964.2132              3009.9662              3031.0196
 Red. masses --      1.0699                 1.0669                 1.0371
 Frc consts  --      5.5387                 5.6953                 5.6139
 IR Inten    --     67.0711                42.7280                28.6483

                     46                     47                     48
                      A                      A                      A
 Frequencies --   3065.5604              3087.1905              3089.6047
 Red. masses --      1.0922                 1.0972                 1.1004
 Frc consts  --      6.0473                 6.1613                 6.1890
 IR Inten    --     29.9462                25.3439                19.0765

                     49                     50                     51
                      A                      A                      A
 Frequencies --   3113.9479              3124.3368              3213.9701
 Red. masses --      1.0992                 1.0543                 1.1171
 Frc consts  --      6.2800                 6.0633                 6.7990
 IR Inten    --     14.6451                11.3417                 3.2088

 - Thermochemistry -
 -------------------
 Temperature   298.150 Kelvin.  Pressure   1.00000 Atm.
 Atom     1 has atomic number  6 and mass  12.00000

 Molecular mass:   126.06808 amu.
 Principal axes and moments of inertia in atomic units:
                           1         2         3
     Eigenvalues --   778.475411125.768841529.11686
           X            0.99898  -0.04144   0.01772
           Y            0.04162   0.99908  -0.00992
           Z           -0.01729   0.01065   0.99979
 This molecule is an asymmetric top.
 Rotational symmetry number  1.
 Warning -- assumption of classical behavior for rotation
           may cause significant error
 Rotational temperatures (Kelvin)      0.11126     0.07694     0.05664
 Rotational constants (GHZ):           2.31830     1.60312     1.18025
 Zero-point vibrational energy     417345.2 (Joules/Mol)
                                   99.74790 (Kcal/Mol)
 Warning -- explicit consideration of  11 degrees of freedom as
           vibrations may cause significant error
 Vibrational temperatures:    141.91   249.34   295.40   316.79   345.55
          (Kelvin)            387.14   487.69   587.10   639.83   674.58
                              825.66   962.16  1003.43  1111.48  1257.06
                             1335.39  1351.27  1378.55  1403.17  1480.43
                             1494.43  1536.99  1547.11  1594.25  1622.26
                             1662.54  1758.79  1799.17  1821.59  1880.35
                             1935.37  1997.56  2024.05  2040.01  2079.14
                             2129.55  2143.38  2161.37  2172.62  2190.83
                             2590.00  4120.99  4264.84  4330.66  4360.96
                             4410.65  4441.77  4445.25  4480.27  4495.22
                             4624.18

 Zero-point correction=                           0.158958 (Hartree/Particle)
 Thermal correction to Energy=                    0.167409
 Thermal correction to Enthalpy=                  0.168354
 Thermal correction to Gibbs Free Energy=         0.126129
 Sum of electronic and zero-point Energies=           -423.036683
 Sum of electronic and thermal Energies=              -423.028232
 Sum of electronic and thermal Enthalpies=            -423.027288
 Sum of electronic and thermal Free Energies=         -423.069512

                     E (Thermal)             CV                S
                      KCal/Mol        Cal/Mol-Kelvin    Cal/Mol-Kelvin
 Total                  105.051             32.136             88.869
 Electronic               0.000              0.000              0.000
 Translational            0.889              2.981             40.409
 Rotational               0.889              2.981             28.684
 Vibrational            103.274             26.174             19.776
 Vibration     1          0.604              1.950              3.481
 Vibration     2          0.627              1.875              2.399
 Vibration     3          0.640              1.832              2.085
 Vibration     4          0.647              1.810              1.958
 Vibration     5          0.657              1.779              1.802
 Vibration     6          0.673              1.730              1.602
 Vibration     7          0.719              1.598              1.217
 Vibration     8          0.773              1.453              0.934
 Vibration     9          0.804              1.373              0.812
 Vibration    10          0.826              1.319              0.741
 Vibration    11          0.930              1.088              0.497

 Optimization completed.
    -- Stationary point found.
 Normal termination of Gaussian 09 at Mon Jan 27 18:05:33 2020.
