 Gaussian 09, Revision D.01,
 Gaussian 09:  ES64L-G09RevD.01 24-Apr-2013

 -----------------------------
 # b3lyp 6-31G(2df,p) opt Freq
 -----------------------------

 -----
 titel
 -----
 Symbolic Z-matrix:
 Charge =  0 Multiplicity = 1

 SCF Done:  E(RB3LYP) =  -423.138932842     A.U. after   14 cycles
 Optimization completed.
    -- Stationary point found.
 Normal termination of Gaussian 09 at Mon Jan 27 12:12:25 2020.

 ----------------------------------------------------------------------
 #N Geom=AllCheck Guess=TCheck SCRF=Check GenChk RB3LYP/6-31G(2df,p) Fr
 eq
 ----------------------------------------------------------------------

 Structure from the checkpoint file:  "/scratch/puck/g09_d5502dc3-caa2-44fd-be91-d59c0fbedfc9/Gau-71649.chk"
 -----
 titel
 -----
 Charge =  0 Multiplicity = 1

                         Standard orientation:
 ---------------------------------------------------------------------
 Center     Atomic      Atomic             Coordinates (Angstroms)
 Number     Number       Type             X           Y           Z
 ---------------------------------------------------------------------
      1          6           0        1.674293    1.100945   -0.316337
      2          6           0        1.854976   -0.176806    0.532133
      3          6           0        0.539782   -0.271049    1.333516
      4          6           0       -0.434111   -0.018186    0.147948
      5          6           0       -1.564296    1.028868    0.214691
      6          8           0       -2.537454    0.069352   -0.240930
      7          6           0       -1.575106   -1.004696   -0.162232
      8          6           0        0.634371    0.151986   -0.949424
      9          8           0        1.533375   -0.964443   -0.661537
     10          1           0        1.340099    2.023316    0.166910
     11          1           0        2.520506    1.277941   -0.980311
     12          1           0        2.792765   -0.455578    1.011487
     13          1           0        0.407995   -1.261490    1.776200
     14          1           0        0.461773    0.480035    2.125492
     15          1           0       -1.792584    1.400276    1.223637
     16          1           0       -1.477103    1.886546   -0.465957
     17          1           0       -1.811386   -1.705348    0.650253
     18          1           0       -1.493799   -1.563848   -1.102451
     19          1           0        0.304910    0.212504   -1.987292
 ---------------------------------------------------------------------

 SCF Done:  E(RB3LYP) =  -423.138932842     A.U. after    1 cycles

 The electronic state is 1-A.
 Alpha  occ. eigenvalues --  -19.13712 -19.13020 -10.24332 -10.24134 -10.23029
 Alpha  occ. eigenvalues --  -10.22624 -10.20049 -10.19391 -10.18977  -1.05349
 Alpha  occ. eigenvalues --   -1.03457  -0.80595  -0.73324  -0.71693  -0.69008
 Alpha  occ. eigenvalues --   -0.63201  -0.56643  -0.54040  -0.52378  -0.49045
 Alpha  occ. eigenvalues --   -0.46421  -0.45796  -0.43948  -0.42040  -0.40760
 Alpha  occ. eigenvalues --   -0.39785  -0.36856  -0.34946  -0.34114  -0.32186
 Alpha  occ. eigenvalues --   -0.30888  -0.29735  -0.25689  -0.24262
 Alpha virt. eigenvalues --    0.06669   0.09108   0.09707   0.11085   0.11836
 Alpha virt. eigenvalues --    0.12726   0.13566   0.14481   0.14814   0.16841
 Alpha virt. eigenvalues --    0.16960   0.17952   0.18919   0.19325   0.19919

 Mulliken charges:
               1
     1  C   -0.242071
     2  C    0.083804
     3  C   -0.324670
     4  C    0.341196
     5  C   -0.145931
     6  O   -0.274951
     7  C   -0.140747
     8  C    0.011854
     9  O   -0.302110
    10  H    0.097287
    11  H    0.115104
    12  H    0.083342
    13  H    0.112584
    14  H    0.102128
    15  H    0.095554
    16  H    0.098881
    17  H    0.095919
    18  H    0.107596
    19  H    0.085230
 Sum of Mulliken charges =   0.00000

 Dipole moment (field-independent basis, Debye):
    X=              1.4274    Y=              1.3023    Z=              1.1269  Tot=              2.2368
 Quadrupole moment (field-independent basis, Debye-Ang):
   XX=            -60.2681   YY=            -52.4930   ZZ=            -51.4021
   XY=              2.7730   XZ=              0.8453   YZ=             -1.3349

  Exact polarizability:  78.600   1.452  72.338   0.863  -0.762  69.915
 Approx polarizability: 106.354  -1.570 110.248   2.312   1.814 106.007

                      1                      2                      3
                      A                      A                      A
 Frequencies --     85.2606               129.3604               235.2753
 Red. masses --      3.8248                 3.4828                 2.4388
 Frc consts  --      0.0164                 0.0343                 0.0795
 IR Inten    --      4.7553                 2.2939                 0.5862

                      4                      5                      6
                      A                      A                      A
 Frequencies --    336.5655               403.6318               432.8182
 Red. masses --      2.3013                 1.7844                 3.8004
 Frc consts  --      0.1536                 0.1713                 0.4195
 IR Inten    --      0.5812                 0.6212                 0.7777

                      7                      8                      9
                      A                      A                      A
 Frequencies --    489.4234               571.5020               754.4354
 Red. masses --      2.6183                 4.0092                 3.6489
 Frc consts  --      0.3695                 0.7715                 1.2236
 IR Inten    --      2.7051                10.0121                 7.5747

                     10                     11                     12
                      A                      A                      A
 Frequencies --    805.0343               836.9081               854.1156
 Red. masses --      2.5524                 2.9734                 3.1936
 Frc consts  --      0.9746                 1.2271                 1.3727
 IR Inten    --      0.5442                11.4345                14.0612

                     13                     14                     15
                      A                      A                      A
 Frequencies --    878.2942               879.3552               907.7069
 Red. masses --      2.6373                 2.6959                 2.1017
 Frc consts  --      1.1986                 1.2282                 1.0202
 IR Inten    --      4.2078                20.9690                 8.7227

                     16                     17                     18
                      A                      A                      A
 Frequencies --    939.8278               952.8732               981.4247
 Red. masses --      2.6279                 2.5182                 2.2024
 Frc consts  --      1.3676                 1.3471                 1.2498
 IR Inten    --     23.9808                15.5620                11.5244

                     19                     20                     21
                      A                      A                      A
 Frequencies --    990.9383              1028.9243              1034.0760
 Red. masses --      2.0379                 1.5120                10.2937
 Frc consts  --      1.1791                 0.9432                 6.4853
 IR Inten    --      6.0467                 2.2215                82.0295

                     22                     23                     24
                      A                      A                      A
 Frequencies --   1041.6566              1074.3828              1103.5683
 Red. masses --      1.5110                 2.7833                 1.2911
 Frc consts  --      0.9660                 1.8929                 0.9264
 IR Inten    --      4.0952                 3.4780                 0.0815

                     25                     26                     27
                      A                      A                      A
 Frequencies --   1151.5689              1155.8634              1183.2914
 Red. masses --      1.2820                 1.1163                 2.1527
 Frc consts  --      1.0017                 0.8787                 1.7759
 IR Inten    --      1.2264                 0.1609                12.3731

                     28                     29                     30
                      A                      A                      A
 Frequencies --   1205.4060              1214.9037              1220.1658
 Red. masses --      1.9994                 1.5044                 2.2443
 Frc consts  --      1.7116                 1.3083                 1.9686
 IR Inten    --      2.4722                 3.4911                 8.8859

                     31                     32                     33
                      A                      A                      A
 Frequencies --   1232.0827              1261.4839              1297.5089
 Red. masses --      1.4757                 1.4512                 1.8007
 Frc consts  --      1.3198                 1.3606                 1.7861
 IR Inten    --      2.3278                 5.0010                 2.5942

                     34                     35                     36
                      A                      A                      A
 Frequencies --   1306.7598              1314.5209              1345.5414
 Red. masses --      1.2923                 1.5612                 1.7382
 Frc consts  --      1.3002                 1.5895                 1.8541
 IR Inten    --      1.9497                 1.7222                 2.0322

                     37                     38                     39
                      A                      A                      A
 Frequencies --   1385.5637              1476.7404              1492.6058
 Red. masses --      1.6954                 1.1126                 1.1300
 Frc consts  --      1.9176                 1.4295                 1.4832
 IR Inten    --      4.5039                 2.8113                 1.9390

                     40                     41                     42
                      A                      A                      A
 Frequencies --   1509.6765              1534.7619              2990.4560
 Red. masses --      1.0794                 1.1111                 1.0538
 Frc consts  --      1.4494                 1.5420                 5.5526
 IR Inten    --      0.7008                 0.5008                98.9862

                     43                     44                     45
                      A                      A                      A
 Frequencies --   3005.8063              3034.4284              3051.8467
 Red. masses --      1.0596                 1.1092                 1.1064
 Frc consts  --      5.6403                 6.0175                 6.0714
 IR Inten    --     23.8887                35.8247                26.4597

                     46                     47                     48
                      A                      A                      A
 Frequencies --   3056.2638              3064.5592              3107.9498
 Red. masses --      1.0614                 1.0601                 1.1058
 Frc consts  --      5.8413                 5.8660                 6.2934
 IR Inten    --     36.7796                30.9177                18.3797

                     49                     50                     51
                      A                      A                      A
 Frequencies --   3118.3841              3129.4031              3146.1278
 Red. masses --      1.0908                 1.0932                 1.1050
 Frc consts  --      6.2499                 6.3076                 6.4442
 IR Inten    --     41.4524                34.2898                24.2780

 - Thermochemistry -
 -------------------
 Temperature   298.150 Kelvin.  Pressure   1.00000 Atm.
 Atom     1 has atomic number  6 and mass  12.00000

 Molecular mass:   126.06808 amu.
 Principal axes and moments of inertia in atomic units:
                           1         2         3
     Eigenvalues --   490.785861341.161251384.15234
           X            0.99981   0.01926   0.00033
           Y           -0.01906   0.99192  -0.12542
           Z           -0.00275   0.12539   0.99210
 This molecule is an asymmetric top.
 Rotational symmetry number  1.
 Warning -- assumption of classical behavior for rotation
           may cause significant error
 Rotational temperatures (Kelvin)      0.17648     0.06458     0.06258
 Rotational constants (GHZ):           3.67725     1.34566     1.30386
 Zero-point vibrational energy     423125.3 (Joules/Mol)
                                  101.12938 (Kcal/Mol)
 Warning -- explicit consideration of   8 degrees of freedom as
           vibrations may cause significant error
 Vibrational temperatures:    122.67   186.12   338.51   484.24   580.74
          (Kelvin)            622.73   704.17   822.26  1085.46  1158.26
                             1204.12  1228.88  1263.67  1265.19  1305.99
                             1352.20  1370.97  1412.05  1425.74  1480.39
                             1487.80  1498.71  1545.80  1587.79  1656.85
                             1663.03  1702.49  1734.31  1747.97  1755.54
                             1772.69  1814.99  1866.82  1880.13  1891.30
                             1935.93  1993.51  2124.70  2147.52  2172.09
                             2208.18  4302.59  4324.68  4365.86  4390.92
                             4397.28  4409.21  4471.64  4486.65  4502.51
                             4526.57

 Zero-point correction=                           0.161160 (Hartree/Particle)
 Thermal correction to Energy=                    0.168304
 Thermal correction to Enthalpy=                  0.169248
 Thermal correction to Gibbs Free Energy=         0.129326
 Sum of electronic and zero-point Energies=           -422.977773
 Sum of electronic and thermal Energies=              -422.970629
 Sum of electronic and thermal Enthalpies=            -422.969684
 Sum of electronic and thermal Free Energies=         -423.009606

                     E (Thermal)             CV                S
                      KCal/Mol        Cal/Mol-Kelvin    Cal/Mol-Kelvin
 Total                  105.613             28.409             84.023
 Electronic               0.000              0.000              0.000
 Translational            0.889              2.981             40.409
 Rotational               0.889              2.981             28.301
 Vibrational            103.835             22.448             15.313
 Vibration     1          0.601              1.959              3.766
 Vibration     2          0.612              1.924              2.956
 Vibration     3          0.655              1.787              1.838
 Vibration     4          0.717              1.602              1.228
 Vibration     5          0.769              1.462              0.949
 Vibration     6          0.794              1.399              0.849
 Vibration     7          0.845              1.273              0.685
 Vibration     8          0.928              1.093              0.501

 Optimization completed.
    -- Stationary point found.
 Normal termination of Gaussian 09 at Mon Jan 27 12:59:20 2020.
