 Gaussian 09, Revision D.01,
 Gaussian 09:  ES64L-G09RevD.01 24-Apr-2013

 -----------------------------
 # b3lyp 6-31G(2df,p) opt Freq
 -----------------------------

 -----
 titel
 -----
 Symbolic Z-matrix:
 Charge =  0 Multiplicity = 1

 SCF Done:  E(RB3LYP) =  -423.146104231     A.U. after   14 cycles
 Optimization completed.
    -- Stationary point found.
 Normal termination of Gaussian 09 at Tue Jan 28 14:14:27 2020.

 ----------------------------------------------------------------------
 #N Geom=AllCheck Guess=TCheck SCRF=Check GenChk RB3LYP/6-31G(2df,p) Fr
 eq
 ----------------------------------------------------------------------

 Structure from the checkpoint file:  "/scratch/puck/g09_26171e63-33b0-498c-8b8a-d61719746e85/Gau-111751.chk"
 -----
 titel
 -----
 Charge =  0 Multiplicity = 1

                         Standard orientation:
 ---------------------------------------------------------------------
 Center     Atomic      Atomic             Coordinates (Angstroms)
 Number     Number       Type             X           Y           Z
 ---------------------------------------------------------------------
      1          6           0        3.345167    0.416236   -0.063694
      2          6           0        2.140993   -0.397687    0.375021
      3          8           0        1.052408   -0.083852   -0.483068
      4          6           0       -0.104676   -0.803264   -0.215173
      5          6           0       -1.374495   -0.322363   -0.968434
      6          6           0       -2.174536   -1.078128    0.147379
      7          6           0       -1.052566   -0.352189    0.963089
      8          6           0       -1.366204    0.844513    0.044152
      9          8           0       -1.553501    2.017489    0.095894
     10          1           0        4.203903    0.199895    0.578576
     11          1           0        3.613521    0.178105   -1.096722
     12          1           0        3.125644    1.485656   -0.003802
     13          1           0        2.358133   -1.477085    0.321619
     14          1           0        1.876234   -0.169185    1.418868
     15          1           0        0.061766   -1.889390   -0.247567
     16          1           0       -1.549483   -0.322489   -2.041351
     17          1           0       -3.201596   -0.760550    0.323765
     18          1           0       -2.084265   -2.166286    0.114368
     19          1           0       -0.877218   -0.390486    2.035598
 ---------------------------------------------------------------------

 SCF Done:  E(RB3LYP) =  -423.146104231     A.U. after    1 cycles

 The electronic state is 1-A.
 Alpha  occ. eigenvalues --  -19.15146 -19.13280 -10.27352 -10.25758 -10.23668
 Alpha  occ. eigenvalues --  -10.21391 -10.21014 -10.20940 -10.17998  -1.05491
 Alpha  occ. eigenvalues --   -1.04298  -0.91930  -0.76317  -0.66864  -0.65361
 Alpha  occ. eigenvalues --   -0.63666  -0.61151  -0.52499  -0.51720  -0.49048
 Alpha  occ. eigenvalues --   -0.46438  -0.45411  -0.42691  -0.41763  -0.40969
 Alpha  occ. eigenvalues --   -0.38283  -0.37769  -0.35844  -0.35029  -0.34314
 Alpha  occ. eigenvalues --   -0.33715  -0.31642  -0.26516  -0.24082
 Alpha virt. eigenvalues --    0.01495   0.09061   0.10513   0.11566   0.12046
 Alpha virt. eigenvalues --    0.13293   0.14027   0.14745   0.15382   0.15488
 Alpha virt. eigenvalues --    0.15888   0.17417   0.18370   0.19186   0.19689

 Mulliken charges:
               1
     1  C   -0.386735
     2  C   -0.048298
     3  O   -0.262412
     4  C    0.182444
     5  C   -0.219509
     6  C   -0.248106
     7  C   -0.226522
     8  C    0.458049
     9  O   -0.320264
    10  H    0.116944
    11  H    0.129004
    12  H    0.136092
    13  H    0.090150
    14  H    0.096679
    15  H    0.076761
    16  H    0.097944
    17  H    0.123719
    18  H    0.110569
    19  H    0.093493
 Sum of Mulliken charges =   0.00000

 Dipole moment (field-independent basis, Debye):
    X=              0.8345    Y=             -3.3915    Z=              0.6728  Tot=              3.5569
 Quadrupole moment (field-independent basis, Debye-Ang):
   XX=            -49.6746   YY=            -58.4191   ZZ=            -52.0943
   XY=              4.2902   XZ=              1.6297   YZ=             -0.1015

  Exact polarizability:  87.707   1.137  76.262   1.286   0.048  67.371
 Approx polarizability: 108.595  -1.779 122.000   1.328   0.141 105.233

                      1                      2                      3
                      A                      A                      A
 Frequencies --     61.4585                76.5250               128.5830
 Red. masses --      3.5057                 1.9558                 4.0088
 Frc consts  --      0.0078                 0.0067                 0.0391
 IR Inten    --      1.2927                 1.3821                 0.7397

                      4                      5                      6
                      A                      A                      A
 Frequencies --    186.0957               246.4097               343.9449
 Red. masses --      3.9914                 1.2134                 3.8041
 Frc consts  --      0.0814                 0.0434                 0.2651
 IR Inten    --      0.8221                 0.3339                 2.2279

                      7                      8                      9
                      A                      A                      A
 Frequencies --    352.5398               406.8142               452.1102
 Red. masses --      2.8806                 3.5513                 3.9890
 Frc consts  --      0.2109                 0.3463                 0.4804
 IR Inten    --      0.5619                 0.4625                 1.2673

                     10                     11                     12
                      A                      A                      A
 Frequencies --    586.1380               690.4696               756.6294
 Red. masses --      3.7965                 3.8288                 4.0590
 Frc consts  --      0.7685                 1.0755                 1.3691
 IR Inten    --      4.5890                 2.5335                 4.2092

                     13                     14                     15
                      A                      A                      A
 Frequencies --    777.8425               820.0511               822.6418
 Red. masses --      3.7911                 1.6888                 1.7693
 Frc consts  --      1.3514                 0.6691                 0.7054
 IR Inten    --     12.9050                 0.1020                 1.7016

                     16                     17                     18
                      A                      A                      A
 Frequencies --    880.5512               903.6681               935.6033
 Red. masses --      2.1523                 2.3380                 1.8790
 Frc consts  --      0.9832                 1.1249                 0.9691
 IR Inten    --      2.0765                 3.8420                15.1640

                     19                     20                     21
                      A                      A                      A
 Frequencies --    955.0013              1018.7534              1036.2812
 Red. masses --      1.9010                 1.2738                 1.7112
 Frc consts  --      1.0215                 0.7789                 1.0827
 IR Inten    --      9.6391                 8.6106                 5.8142

                     22                     23                     24
                      A                      A                      A
 Frequencies --   1038.8715              1072.9926              1100.9439
 Red. masses --      1.2679                 2.5756                 1.6989
 Frc consts  --      0.8062                 1.7471                 1.2133
 IR Inten    --      0.1376                23.6628                 2.1824

                     25                     26                     27
                      A                      A                      A
 Frequencies --   1116.1370              1150.7329              1176.1926
 Red. masses --      4.1233                 2.2871                 2.2518
 Frc consts  --      3.0264                 1.7844                 1.8355
 IR Inten    --     26.4120                37.4647                84.2914

                     28                     29                     30
                      A                      A                      A
 Frequencies --   1183.5744              1192.9297              1204.4348
 Red. masses --      1.4814                 1.8522                 1.7699
 Frc consts  --      1.2227                 1.5530                 1.5127
 IR Inten    --     15.2932                47.2118                 4.1412

                     31                     32                     33
                      A                      A                      A
 Frequencies --   1239.8775              1256.8113              1298.1775
 Red. masses --      2.1123                 1.9718                 1.1012
 Frc consts  --      1.9132                 1.8351                 1.0934
 IR Inten    --    111.6679                20.4412                 1.7529

                     34                     35                     36
                      A                      A                      A
 Frequencies --   1377.7248              1405.8819              1441.9696
 Red. masses --      1.1689                 1.2404                 1.4126
 Frc consts  --      1.3072                 1.4444                 1.7305
 IR Inten    --     65.1763                 9.9462                 4.7633

                     37                     38                     39
                      A                      A                      A
 Frequencies --   1483.1349              1499.6856              1515.0594
 Red. masses --      1.0400                 1.0463                 1.1058
 Frc consts  --      1.3478                 1.3865                 1.4955
 IR Inten    --      4.6426                 2.3114                 2.0451

                     40                     41                     42
                      A                      A                      A
 Frequencies --   1527.5412              1929.8802              2969.4595
 Red. masses --      1.0930                12.0802                 1.0577
 Frc consts  --      1.5027                26.5084                 5.4951
 IR Inten    --      1.7404               361.0057                40.7676

                     43                     44                     45
                      A                      A                      A
 Frequencies --   3003.0908              3010.9534              3047.2359
 Red. masses --      1.1028                 1.0839                 1.0347
 Frc consts  --      5.8596                 5.7895                 5.6610
 IR Inten    --     49.2866                37.9036                16.1328

                     46                     47                     48
                      A                      A                      A
 Frequencies --   3074.7853              3121.9160              3126.0107
 Red. masses --      1.0558                 1.1016                 1.1028
 Frc consts  --      5.8812                 6.3260                 6.3492
 IR Inten    --     26.5563                21.9762                21.6508

                     49                     50                     51
                      A                      A                      A
 Frequencies --   3150.9974              3152.4960              3158.3524
 Red. masses --      1.0946                 1.1080                 1.0953
 Frc consts  --      6.4031                 6.4881                 6.4373
 IR Inten    --     27.8424                18.8371                10.9726

 - Thermochemistry -
 -------------------
 Temperature   298.150 Kelvin.  Pressure   1.00000 Atm.
 Atom     1 has atomic number  6 and mass  12.00000

 Molecular mass:   126.06808 amu.
 Principal axes and moments of inertia in atomic units:
                           1         2         3
     Eigenvalues --   558.551951677.059141942.48949
           X            0.99952   0.03073   0.00492
           Y           -0.03067   0.99945  -0.01294
           Z           -0.00531   0.01278   0.99990
 This molecule is an asymmetric top.
 Rotational symmetry number  1.
 Warning -- assumption of classical behavior for rotation
           may cause significant error
 Rotational temperatures (Kelvin)      0.15507     0.05165     0.04459
 Rotational constants (GHZ):           3.23111     1.07613     0.92909
 Zero-point vibrational energy     415498.7 (Joules/Mol)
                                   99.30658 (Kcal/Mol)
 Warning -- explicit consideration of  10 degrees of freedom as
           vibrations may cause significant error
 Vibrational temperatures:     88.42   110.10   185.00   267.75   354.53
          (Kelvin)            494.86   507.23   585.31   650.48   843.32
                              993.43  1088.62  1119.14  1179.87  1183.60
                             1266.92  1300.18  1346.12  1374.03  1465.76
                             1490.98  1494.70  1543.80  1584.01  1605.87
                             1655.65  1692.28  1702.90  1716.36  1732.91
                             1783.90  1808.27  1867.79  1982.24  2022.75
                             2074.67  2133.90  2157.71  2179.83  2197.79
                             2776.66  4272.38  4320.77  4332.08  4384.29
                             4423.92  4491.74  4497.63  4533.58  4535.73
                             4544.16

 Zero-point correction=                           0.158255 (Hartree/Particle)
 Thermal correction to Energy=                    0.166880
 Thermal correction to Enthalpy=                  0.167824
 Thermal correction to Gibbs Free Energy=         0.124172
 Sum of electronic and zero-point Energies=           -422.987849
 Sum of electronic and thermal Energies=              -422.979224
 Sum of electronic and thermal Enthalpies=            -422.978280
 Sum of electronic and thermal Free Energies=         -423.021932

                     E (Thermal)             CV                S
                      KCal/Mol        Cal/Mol-Kelvin    Cal/Mol-Kelvin
 Total                  104.719             31.969             91.874
 Electronic               0.000              0.000              0.000
 Translational            0.889              2.981             40.409
 Rotational               0.889              2.981             28.988
 Vibrational            102.941             26.008             22.477
 Vibration     1          0.597              1.973              4.410
 Vibration     2          0.599              1.965              3.978
 Vibration     3          0.611              1.925              2.967
 Vibration     4          0.632              1.859              2.266
 Vibration     5          0.661              1.769              1.756
 Vibration     6          0.723              1.588              1.194
 Vibration     7          0.729              1.570              1.155
 Vibration     8          0.772              1.455              0.938
 Vibration     9          0.811              1.356              0.789
 Vibration    10          0.943              1.061              0.474

 Optimization completed.
    -- Stationary point found.
 Normal termination of Gaussian 09 at Tue Jan 28 14:53:00 2020.
