 Gaussian 09, Revision D.01,
 Gaussian 09:  ES64L-G09RevD.01 24-Apr-2013

 -----------------------------
 # b3lyp 6-31G(2df,p) opt Freq
 -----------------------------

 -----
 titel
 -----
 Symbolic Z-matrix:
 Charge =  0 Multiplicity = 1

 SCF Done:  E(RB3LYP) =  -423.176045833     A.U. after   14 cycles
 Optimization completed.
    -- Stationary point found.
 Normal termination of Gaussian 09 at Tue Jan 28 12:12:23 2020.

 ----------------------------------------------------------------------
 #N Geom=AllCheck Guess=TCheck SCRF=Check GenChk RB3LYP/6-31G(2df,p) Fr
 eq
 ----------------------------------------------------------------------

 Structure from the checkpoint file:  "/scratch/puck/g09_1ff2a912-4969-4879-8719-f4fced452213/Gau-54392.chk"
 -----
 titel
 -----
 Charge =  0 Multiplicity = 1

                         Standard orientation:
 ---------------------------------------------------------------------
 Center     Atomic      Atomic             Coordinates (Angstroms)
 Number     Number       Type             X           Y           Z
 ---------------------------------------------------------------------
      1          8           0       -2.458593   -0.689150   -0.097137
      2          6           0       -1.375228   -0.793514    0.810140
      3          6           0       -0.097062   -0.307391    0.154542
      4          6           0        0.541420   -1.179879   -0.977671
      5          6           0        1.929084   -1.096480   -0.276381
      6          6           0        1.349502   -0.131379    0.785851
      7          6           0        1.351637    1.370304    0.368190
      8          6           0       -0.072229    1.178189   -0.179122
      9          8           0       -0.923079    1.923079   -0.590739
     10          1           0       -2.485184    0.231709   -0.390039
     11          1           0       -1.564647   -0.224936    1.736000
     12          1           0       -1.295673   -1.850997    1.087671
     13          1           0        0.111657   -2.183407   -1.009768
     14          1           0        0.482140   -0.757570   -1.983285
     15          1           0        2.246058   -2.053592    0.144327
     16          1           0        2.754946   -0.698818   -0.872656
     17          1           0        1.559912   -0.330405    1.836345
     18          1           0        1.373729    2.079656    1.201877
     19          1           0        2.107688    1.677825   -0.360756
 ---------------------------------------------------------------------

 SCF Done:  E(RB3LYP) =  -423.176045833     A.U. after    1 cycles

 The electronic state is 1-A.
 Alpha  occ. eigenvalues --  -19.14667 -19.12900 -10.27381 -10.23128 -10.20407
 Alpha  occ. eigenvalues --  -10.19957 -10.19837 -10.19597 -10.19370  -1.05358
 Alpha  occ. eigenvalues --   -1.01119  -0.88482  -0.75746  -0.72267  -0.65550
 Alpha  occ. eigenvalues --   -0.62676  -0.57600  -0.51894  -0.50157  -0.48514
 Alpha  occ. eigenvalues --   -0.47644  -0.45932  -0.43291  -0.42361  -0.40707
 Alpha  occ. eigenvalues --   -0.39832  -0.37011  -0.35761  -0.34734  -0.33075
 Alpha  occ. eigenvalues --   -0.31723  -0.29646  -0.26197  -0.24471
 Alpha virt. eigenvalues --   -0.02823   0.07686   0.08354   0.09180   0.12084
 Alpha virt. eigenvalues --    0.12433   0.13286   0.14348   0.15579   0.16370
 Alpha virt. eigenvalues --    0.16823   0.18810   0.19309   0.21528   0.22319

 Mulliken charges:
               1
     1  O   -0.423058
     2  C   -0.173060
     3  C    0.224433
     4  C   -0.275968
     5  C   -0.218691
     6  C   -0.107914
     7  C   -0.356257
     8  C    0.372431
     9  O   -0.326338
    10  H    0.297454
    11  H    0.087193
    12  H    0.105097
    13  H    0.122007
    14  H    0.114601
    15  H    0.109353
    16  H    0.102433
    17  H    0.078667
    18  H    0.137450
    19  H    0.130164
 Sum of Mulliken charges =   0.00000

 Dipole moment (field-independent basis, Debye):
    X=              3.0054    Y=             -0.6896    Z=              1.1401  Tot=              3.2875
 Quadrupole moment (field-independent basis, Debye-Ang):
   XX=            -57.3339   YY=            -55.9174   ZZ=            -51.6144
   XY=             -0.1336   XZ=             -1.3443   YZ=              1.2013

  Exact polarizability:  81.832  -1.068  78.122   2.086   0.303  65.909
 Approx polarizability: 116.253  -5.169 114.986   7.508  -2.915 100.876

                      1                      2                      3
                      A                      A                      A
 Frequencies --     64.8383               106.6478               135.5409
 Red. masses --      2.7990                 4.6683                 2.9013
 Frc consts  --      0.0069                 0.0313                 0.0314
 IR Inten    --      1.3032                 6.8805                 0.1979

                      4                      5                      6
                      A                      A                      A
 Frequencies --    199.7340               275.5605               310.5529
 Red. masses --      3.6873                 2.2647                 3.0194
 Frc consts  --      0.0867                 0.1013                 0.1716
 IR Inten    --      2.7379                 2.8707                 0.6865

                      7                      8                      9
                      A                      A                      A
 Frequencies --    412.1408               461.9718               496.9166
 Red. masses --      2.6372                 3.2461                 1.4356
 Frc consts  --      0.2639                 0.4082                 0.2089
 IR Inten    --      1.0595                 3.4490                73.6940

                     10                     11                     12
                      A                      A                      A
 Frequencies --    515.0890               590.0917               698.5028
 Red. masses --      1.6740                 3.3787                 3.2976
 Frc consts  --      0.2617                 0.6932                 0.9479
 IR Inten    --     52.3578                 4.1138                 3.6642

                     13                     14                     15
                      A                      A                      A
 Frequencies --    738.2775               780.2059               829.2440
 Red. masses --      1.3156                 2.7893                 2.2354
 Frc consts  --      0.4225                 1.0004                 0.9057
 IR Inten    --      3.1564                 0.9107                 0.2533

                     16                     17                     18
                      A                      A                      A
 Frequencies --    876.8402               911.0443               944.2660
 Red. masses --      2.4218                 2.0431                 2.1807
 Frc consts  --      1.0970                 0.9991                 1.1456
 IR Inten    --      0.6153                 4.1386                 1.0522

                     19                     20                     21
                      A                      A                      A
 Frequencies --    966.9448              1014.4186              1030.2825
 Red. masses --      3.0381                 2.1329                 1.5238
 Frc consts  --      1.6736                 1.2931                 0.9530
 IR Inten    --      2.5317                 9.6483                24.9609

                     22                     23                     24
                      A                      A                      A
 Frequencies --   1047.8862              1054.9267              1075.2388
 Red. masses --      3.0290                 2.7576                 3.9209
 Frc consts  --      1.9597                 1.8081                 2.6708
 IR Inten    --     58.8018                43.3489                23.6950

                     25                     26                     27
                      A                      A                      A
 Frequencies --   1119.7624              1143.7121              1180.9182
 Red. masses --      1.5494                 1.7038                 1.5247
 Frc consts  --      1.1446                 1.3131                 1.2528
 IR Inten    --      4.1253                14.4646                 1.7825

                     28                     29                     30
                      A                      A                      A
 Frequencies --   1214.7847              1222.0789              1238.8458
 Red. masses --      1.6287                 1.2942                 1.4864
 Frc consts  --      1.4161                 1.1388                 1.3441
 IR Inten    --      4.7117                 3.1595                 2.1046

                     31                     32                     33
                      A                      A                      A
 Frequencies --   1257.0822              1278.8273              1307.1363
 Red. masses --      1.4662                 1.5266                 1.5012
 Frc consts  --      1.3651                 1.4710                 1.5113
 IR Inten    --      1.4654                 4.2356                 3.1660

                     34                     35                     36
                      A                      A                      A
 Frequencies --   1324.8130              1375.8774              1430.3793
 Red. masses --      2.5562                 1.2751                 1.0996
 Frc consts  --      2.6434                 1.4222                 1.3255
 IR Inten    --     24.3573                 0.8369                 7.8075

                     37                     38                     39
                      A                      A                      A
 Frequencies --   1441.8875              1478.0662              1493.8428
 Red. masses --      1.2167                 1.0789                 1.1054
 Frc consts  --      1.4903                 1.3887                 1.4534
 IR Inten    --     90.0721                 1.2799                 1.4136

                     40                     41                     42
                      A                      A                      A
 Frequencies --   1510.8165              1854.0866              2963.4444
 Red. masses --      1.0919                12.4542                 1.0698
 Frc consts  --      1.4684                25.2247                 5.5354
 IR Inten    --      0.1787               253.3009                62.3289

                     43                     44                     45
                      A                      A                      A
 Frequencies --   3051.9421              3054.6299              3058.0550
 Red. masses --      1.0592                 1.0923                 1.0588
 Frc consts  --      5.8125                 6.0051                 5.8339
 IR Inten    --      9.7126                29.6599                38.3630

                     46                     47                     48
                      A                      A                      A
 Frequencies --   3069.3771              3100.6461              3102.1653
 Red. masses --      1.0598                 1.1047                 1.1058
 Frc consts  --      5.8826                 6.2577                 6.2699
 IR Inten    --     30.0567                 4.2205                 3.8970

                     49                     50                     51
                      A                      A                      A
 Frequencies --   3116.2774              3124.4715              3758.0328
 Red. masses --      1.0941                 1.1051                 1.0662
 Frc consts  --      6.2600                 6.3565                 8.8719
 IR Inten    --     15.9363                38.0194                45.4475

 - Thermochemistry -
 -------------------
 Temperature   298.150 Kelvin.  Pressure   1.00000 Atm.
 Atom     1 has atomic number  8 and mass  15.99491

 Molecular mass:   126.06808 amu.
 Principal axes and moments of inertia in atomic units:
                           1         2         3
     Eigenvalues --   777.168651099.505721514.25205
           X            0.99989   0.00872  -0.01188
           Y           -0.00844   0.99969   0.02354
           Z            0.01208  -0.02344   0.99965
 This molecule is an asymmetric top.
 Rotational symmetry number  1.
 Warning -- assumption of classical behavior for rotation
           may cause significant error
 Rotational temperatures (Kelvin)      0.11145     0.07878     0.05720
 Rotational constants (GHZ):           2.32220     1.64141     1.19184
 Zero-point vibrational energy     417551.3 (Joules/Mol)
                                   99.79715 (Kcal/Mol)
 Warning -- explicit consideration of  11 degrees of freedom as
           vibrations may cause significant error
 Vibrational temperatures:     93.29   153.44   195.01   287.37   396.47
          (Kelvin)            446.82   592.98   664.67   714.95   741.10
                              849.01  1004.99  1062.22  1122.54  1193.10
                             1261.58  1310.79  1358.59  1391.22  1459.52
                             1482.34  1507.67  1517.80  1547.03  1611.09
                             1645.54  1699.08  1747.80  1758.30  1782.42
                             1808.66  1839.94  1880.68  1906.11  1979.58
                             2057.99  2074.55  2126.60  2149.30  2173.73
                             2667.61  4263.73  4391.06  4394.93  4399.85
                             4416.14  4461.13  4463.32  4483.62  4495.41
                             5406.96

 Zero-point correction=                           0.159037 (Hartree/Particle)
 Thermal correction to Energy=                    0.167552
 Thermal correction to Enthalpy=                  0.168496
 Thermal correction to Gibbs Free Energy=         0.125544
 Sum of electronic and zero-point Energies=           -423.017009
 Sum of electronic and thermal Energies=              -423.008494
 Sum of electronic and thermal Enthalpies=            -423.007550
 Sum of electronic and thermal Free Energies=         -423.050501

                     E (Thermal)             CV                S
                      KCal/Mol        Cal/Mol-Kelvin    Cal/Mol-Kelvin
 Total                  105.140             32.178             90.400
 Electronic               0.000              0.000              0.000
 Translational            0.889              2.981             40.409
 Rotational               0.889              2.981             28.650
 Vibrational            103.363             26.216             21.342
 Vibration     1          0.597              1.971              4.304
 Vibration     2          0.606              1.944              3.329
 Vibration     3          0.613              1.918              2.866
 Vibration     4          0.638              1.840              2.136
 Vibration     5          0.677              1.719              1.561
 Vibration     6          0.699              1.654              1.359
 Vibration     7          0.776              1.444              0.919
 Vibration     8          0.820              1.334              0.760
 Vibration     9          0.852              1.257              0.666
 Vibration    10          0.870              1.217              0.621
 Vibration    11          0.947              1.053              0.467

 Optimization completed.
    -- Stationary point found.
 Normal termination of Gaussian 09 at Tue Jan 28 13:00:41 2020.
