 Gaussian 09, Revision D.01,
 Gaussian 09:  ES64L-G09RevD.01 24-Apr-2013

 -----------------------------
 # b3lyp 6-31G(2df,p) opt Freq
 -----------------------------

 -----
 titel
 -----
 Symbolic Z-matrix:
 Charge =  0 Multiplicity = 1

 SCF Done:  E(RB3LYP) =  -423.127337214     A.U. after   14 cycles
 SCF Done:  E(RB3LYP) =  -423.127337076     A.U. after    7 cycles
 SCF Done:  E(RB3LYP) =  -423.127337183     A.U. after    6 cycles
 Optimization completed.
    -- Stationary point found.
 Normal termination of Gaussian 09 at Mon Jan 27 14:35:02 2020.

 ----------------------------------------------------------------------
 #N Geom=AllCheck Guess=TCheck SCRF=Check GenChk RB3LYP/6-31G(2df,p) Fr
 eq
 ----------------------------------------------------------------------

 Structure from the checkpoint file:  "/scratch/puck/g09_7cb13a1f-b5fb-4386-9955-f06a9b789b0b/Gau-159375.chk"
 -----
 titel
 -----
 Charge =  0 Multiplicity = 1

                         Standard orientation:
 ---------------------------------------------------------------------
 Center     Atomic      Atomic             Coordinates (Angstroms)
 Number     Number       Type             X           Y           Z
 ---------------------------------------------------------------------
      1          6           0       -1.284576    1.878746   -0.221704
      2          6           0       -0.333643    0.710058    0.037173
      3          8           0       -0.311151    0.490010    1.433863
      4          6           0        1.092624    1.077972   -0.470595
      5          6           0        2.095167    0.060565   -0.183059
      6          6           0        2.911947   -0.783755    0.071010
      7          6           0       -0.844548   -0.546873   -0.670450
      8          6           0       -1.886728   -1.381863   -0.065288
      9          8           0       -0.509282   -1.786647   -0.045838
     10          1           0       -0.925843    2.775960    0.290436
     11          1           0       -1.360204    2.096371   -1.291601
     12          1           0       -2.281329    1.642464    0.158233
     13          1           0        0.128552   -0.362586    1.562629
     14          1           0        1.056421    1.273191   -1.550141
     15          1           0        1.379466    2.019339    0.012366
     16          1           0        3.633309   -1.532571    0.286094
     17          1           0       -0.741485   -0.549014   -1.756455
     18          1           0       -2.291832   -1.097250    0.902505
     19          1           0       -2.535051   -1.981910   -0.700787
 ---------------------------------------------------------------------

 SCF Done:  E(RB3LYP) =  -423.127337183     A.U. after    1 cycles

 The electronic state is 1-A.
 Alpha  occ. eigenvalues --  -19.15815 -19.13589 -10.25139 -10.24019 -10.23493
 Alpha  occ. eigenvalues --  -10.20824 -10.18296 -10.18060 -10.17047  -1.07872
 Alpha  occ. eigenvalues --   -1.02084  -0.80608  -0.75351  -0.69479  -0.67742
 Alpha  occ. eigenvalues --   -0.64708  -0.57598  -0.53075  -0.52471  -0.50420
 Alpha  occ. eigenvalues --   -0.46972  -0.46053  -0.43208  -0.41980  -0.40401
 Alpha  occ. eigenvalues --   -0.39131  -0.37851  -0.37457  -0.33195  -0.31316
 Alpha  occ. eigenvalues --   -0.28782  -0.27579  -0.26406  -0.25389
 Alpha virt. eigenvalues --    0.04805   0.05656   0.08823   0.09506   0.10053
 Alpha virt. eigenvalues --    0.12148   0.12533   0.13084   0.14697   0.15957
 Alpha virt. eigenvalues --    0.17144   0.18145   0.18602   0.20029   0.22196

 Mulliken charges:
               1
     1  C   -0.408440
     2  C    0.305033
     3  O   -0.465344
     4  C   -0.384076
     5  C    0.294736
     6  C   -0.434168
     7  C    0.065211
     8  C   -0.188069
     9  O   -0.243780
    10  H    0.128737
    11  H    0.114502
    12  H    0.126276
    13  H    0.295468
    14  H    0.123156
    15  H    0.135183
    16  H    0.197141
    17  H    0.092760
    18  H    0.128849
    19  H    0.116824
 Sum of Mulliken charges =   0.00000

 Dipole moment (field-independent basis, Debye):
    X=             -1.0492    Y=              0.6096    Z=             -1.3608  Tot=              1.8232
 Quadrupole moment (field-independent basis, Debye-Ang):
   XX=            -49.5299   YY=            -53.0000   ZZ=            -53.5608
   XY=             -0.4086   XZ=              2.0623   YZ=             -2.7168

  Exact polarizability:  87.763  -7.282  79.118   1.801  -3.970  62.217
 Approx polarizability: 121.189 -19.633 119.744   4.252  -9.829  97.337

                      1                      2                      3
                      A                      A                      A
 Frequencies --     66.9633                95.9195               146.0044
 Red. masses --      3.3189                 4.8923                 3.9055
 Frc consts  --      0.0088                 0.0265                 0.0491
 IR Inten    --      1.3646                 0.9934                 1.3892

                      4                      5                      6
                      A                      A                      A
 Frequencies --    197.4662               221.5488               262.7035
 Red. masses --      1.1493                 2.4473                 3.0204
 Frc consts  --      0.0264                 0.0708                 0.1228
 IR Inten    --      2.3343                 4.6717                 6.0795

                      7                      8                      9
                      A                      A                      A
 Frequencies --    301.5024               346.8699               373.1823
 Red. masses --      3.3610                 3.8097                 2.1939
 Frc consts  --      0.1800                 0.2701                 0.1800
 IR Inten    --      0.4348                 6.4587                29.3056

                     10                     11                     12
                      A                      A                      A
 Frequencies --    373.8333               415.9159               453.7357
 Red. masses --      2.9318                 2.6051                 1.6650
 Frc consts  --      0.2414                 0.2655                 0.2020
 IR Inten    --      7.4485                50.1786                61.9818

                     13                     14                     15
                      A                      A                      A
 Frequencies --    562.2606               615.2154               622.8817
 Red. masses --      3.8091                 2.2996                 1.5101
 Frc consts  --      0.7095                 0.5128                 0.3452
 IR Inten    --     19.5745                 7.6263                48.4167

                     16                     17                     18
                      A                      A                      A
 Frequencies --    645.5806               736.7867               846.0307
 Red. masses --      1.2433                 2.4884                 3.8070
 Frc consts  --      0.3053                 0.7959                 1.6055
 IR Inten    --     44.6851                 6.8286                 3.8067

                     19                     20                     21
                      A                      A                      A
 Frequencies --    882.9664               922.6105               933.5932
 Red. masses --      3.4953                 2.4398                 2.7969
 Frc consts  --      1.6055                 1.2236                 1.4363
 IR Inten    --     19.4877                 7.3529                28.3774

                     22                     23                     24
                      A                      A                      A
 Frequencies --    954.9710               992.2160              1018.5716
 Red. masses --      1.7512                 2.7720                 1.4564
 Frc consts  --      0.9409                 1.6079                 0.8903
 IR Inten    --      3.5399                 6.4859                 9.2178

                     25                     26                     27
                      A                      A                      A
 Frequencies --   1084.1596              1109.4472              1158.6815
 Red. masses --      1.6437                 1.5442                 1.4877
 Frc consts  --      1.1383                 1.1198                 1.1768
 IR Inten    --     34.0847                11.2228                 3.0272

                     28                     29                     30
                      A                      A                      A
 Frequencies --   1165.7316              1176.8169              1192.5353
 Red. masses --      1.3839                 1.3891                 2.6788
 Frc consts  --      1.1080                 1.1334                 2.2446
 IR Inten    --      2.4282                 3.7635                34.2959

                     31                     32                     33
                      A                      A                      A
 Frequencies --   1278.2817              1300.9887              1315.4423
 Red. masses --      1.6507                 1.5410                 1.4271
 Frc consts  --      1.5892                 1.5368                 1.4549
 IR Inten    --      2.7491                 6.6094                21.8179

                     34                     35                     36
                      A                      A                      A
 Frequencies --   1384.5028              1415.4750              1438.3657
 Red. masses --      1.4539                 1.4020                 1.6681
 Frc consts  --      1.6419                 1.6551                 2.0334
 IR Inten    --     32.0736                18.0520                25.4681

                     37                     38                     39
                      A                      A                      A
 Frequencies --   1459.4857              1484.5952              1497.3803
 Red. masses --      1.0988                 1.0731                 1.0584
 Frc consts  --      1.3790                 1.3935                 1.3981
 IR Inten    --      5.3074                 4.5060                 0.9579

                     40                     41                     42
                      A                      A                      A
 Frequencies --   1516.1982              2238.1993              3023.2024
 Red. masses --      1.3887                 5.9282                 1.0592
 Frc consts  --      1.8810                17.4974                 5.7039
 IR Inten    --      2.8552                 1.0240                13.6506

                     43                     44                     45
                      A                      A                      A
 Frequencies --   3044.2772              3064.5598              3097.0421
 Red. masses --      1.0356                 1.1005                 1.0557
 Frc consts  --      5.6549                 6.0897                 5.9661
 IR Inten    --     16.9152                 7.5664                23.2317

                     46                     47                     48
                      A                      A                      A
 Frequencies --   3105.1259              3116.9143              3128.0677
 Red. masses --      1.0832                 1.1014                 1.1020
 Frc consts  --      6.1537                 6.3043                 6.3529
 IR Inten    --     19.1865                21.9302                18.9496

                     49                     50                     51
                      A                      A                      A
 Frequencies --   3194.0676              3506.5790              3747.2534
 Red. masses --      1.1191                 1.1622                 1.0648
 Frc consts  --      6.7265                 8.4196                 8.8090
 IR Inten    --     13.9846                64.6176                30.9012

 - Thermochemistry -
 -------------------
 Temperature   298.150 Kelvin.  Pressure   1.00000 Atm.
 Atom     1 has atomic number  6 and mass  12.00000

 Molecular mass:   126.06808 amu.
 Principal axes and moments of inertia in atomic units:
                           1         2         3
     Eigenvalues --   831.369201202.142871653.98978
           X            0.99961  -0.02665   0.00816
           Y            0.02685   0.99930  -0.02604
           Z           -0.00746   0.02625   0.99963
 This molecule is an asymmetric top.
 Rotational symmetry number  1.
 Warning -- assumption of classical behavior for rotation
           may cause significant error
 Rotational temperatures (Kelvin)      0.10418     0.07205     0.05237
 Rotational constants (GHZ):           2.17081     1.50127     1.09114
 Zero-point vibrational energy     408122.2 (Joules/Mol)
                                   97.54355 (Kcal/Mol)
 Warning -- explicit consideration of  14 degrees of freedom as
           vibrations may cause significant error
 Vibrational temperatures:     96.35   138.01   210.07   284.11   318.76
          (Kelvin)            377.97   433.79   499.07   536.93   537.86
                              598.41   652.82   808.97   885.16   896.19
                              928.85  1060.07  1217.25  1270.39  1327.43
                             1343.23  1373.99  1427.58  1465.50  1559.86
                             1596.25  1667.08  1677.23  1693.17  1715.79
                             1839.16  1871.83  1892.63  1991.99  2036.55
                             2069.48  2099.87  2136.00  2154.39  2181.47
                             3220.27  4349.71  4380.03  4409.21  4455.95
                             4467.58  4484.54  4500.59  4595.55  5045.18
                             5391.46

 Zero-point correction=                           0.155446 (Hartree/Particle)
 Thermal correction to Energy=                    0.165297
 Thermal correction to Enthalpy=                  0.166241
 Thermal correction to Gibbs Free Energy=         0.120952
 Sum of electronic and zero-point Energies=           -422.971892
 Sum of electronic and thermal Energies=              -422.962040
 Sum of electronic and thermal Enthalpies=            -422.961096
 Sum of electronic and thermal Free Energies=         -423.006386

                     E (Thermal)             CV                S
                      KCal/Mol        Cal/Mol-Kelvin    Cal/Mol-Kelvin
 Total                  103.725             36.798             95.320
 Electronic               0.000              0.000              0.000
 Translational            0.889              2.981             40.409
 Rotational               0.889              2.981             28.893
 Vibrational            101.948             30.836             26.018
 Vibration     1          0.598              1.970              4.241
 Vibration     2          0.603              1.952              3.536
 Vibration     3          0.617              1.907              2.724
 Vibration     4          0.637              1.843              2.157
 Vibration     5          0.648              1.808              1.946
 Vibration     6          0.670              1.741              1.644
 Vibration     7          0.693              1.671              1.409
 Vibration     8          0.725              1.582              1.180
 Vibration     9          0.745              1.527              1.067
 Vibration    10          0.745              1.526              1.064
 Vibration    11          0.779              1.436              0.906
 Vibration    12          0.812              1.353              0.785
 Vibration    13          0.918              1.113              0.519
 Vibration    14          0.975              1.000              0.424

 Optimization completed.
    -- Stationary point found.
 Normal termination of Gaussian 09 at Mon Jan 27 15:15:44 2020.
