 Gaussian 09, Revision D.01,
 Gaussian 09:  ES64L-G09RevD.01 24-Apr-2013

 -----------------------------
 # b3lyp 6-31G(2df,p) opt Freq
 -----------------------------

 -----
 titel
 -----
 Symbolic Z-matrix:
 Charge =  0 Multiplicity = 1

 SCF Done:  E(RB3LYP) =  -423.159649412     A.U. after   12 cycles
 Optimization completed.
    -- Stationary point found.
 Normal termination of Gaussian 09 at Mon Jan 27 22:12:00 2020.

 ----------------------------------------------------------------------
 #N Geom=AllCheck Guess=TCheck SCRF=Check GenChk RB3LYP/6-31G(2df,p) Fr
 eq
 ----------------------------------------------------------------------

 Structure from the checkpoint file:  "/scratch/puck/g09_cb340d00-412b-4632-bfcf-0100077bc000/Gau-29151.chk"
 -----
 titel
 -----
 Charge =  0 Multiplicity = 1

                         Standard orientation:
 ---------------------------------------------------------------------
 Center     Atomic      Atomic             Coordinates (Angstroms)
 Number     Number       Type             X           Y           Z
 ---------------------------------------------------------------------
      1          6           0        3.180866   -0.000034   -0.296477
      2          6           0        1.822067   -0.000010    0.371954
      3          6           0        0.708824    0.768484   -0.286599
      4          6           0        0.708789   -0.768377   -0.286668
      5          6           0       -0.507272   -0.788786    0.646178
      6          8           0       -1.739283   -1.132838    0.044690
      7          6           0       -2.167997   -0.000042   -0.678174
      8          8           0       -1.739334    1.132805    0.044632
      9          6           0       -0.507316    0.788820    0.646159
     10          1           0        3.760276   -0.885232   -0.013719
     11          1           0        3.082938   -0.000090   -1.387125
     12          1           0        3.760250    0.885210   -0.013809
     13          1           0        1.862476   -0.000060    1.462636
     14          1           0        0.887299    1.462974   -1.099120
     15          1           0        0.887213   -1.462798   -1.099259
     16          1           0       -0.420310   -1.349899    1.579941
     17          1           0       -1.738384   -0.000058   -1.693840
     18          1           0       -3.260159   -0.000064   -0.728439
     19          1           0       -0.420426    1.349946    1.579917
 ---------------------------------------------------------------------

 SCF Done:  E(RB3LYP) =  -423.159649412     A.U. after    1 cycles

 The electronic state is 1-A.
 Alpha  occ. eigenvalues --  -19.14738 -19.14738 -10.27115 -10.23644 -10.23627
 Alpha  occ. eigenvalues --  -10.20121 -10.19275 -10.19254 -10.18472  -1.08970
 Alpha  occ. eigenvalues --   -0.99617  -0.89789  -0.75957  -0.70403  -0.65388
 Alpha  occ. eigenvalues --   -0.62207  -0.57901  -0.56071  -0.51883  -0.50149
 Alpha  occ. eigenvalues --   -0.47461  -0.45666  -0.44329  -0.41870  -0.41081
 Alpha  occ. eigenvalues --   -0.38862  -0.38672  -0.36890  -0.32994  -0.32711
 Alpha  occ. eigenvalues --   -0.30210  -0.26633  -0.26150  -0.25349
 Alpha virt. eigenvalues --    0.09734   0.10508   0.10704   0.11720   0.12482
 Alpha virt. eigenvalues --    0.12736   0.14552   0.15154   0.15767   0.16386
 Alpha virt. eigenvalues --    0.17235   0.17669   0.18422   0.21722   0.22149

 Mulliken charges:
               1
     1  C   -0.421541
     2  C   -0.020356
     3  C   -0.096684
     4  C   -0.096674
     5  C    0.070114
     6  O   -0.257255
     7  C    0.007106
     8  O   -0.257249
     9  C    0.070120
    10  H    0.121955
    11  H    0.118358
    12  H    0.121953
    13  H    0.078931
    14  H    0.090969
    15  H    0.090969
    16  H    0.084762
    17  H    0.089653
    18  H    0.120116
    19  H    0.084754
 Sum of Mulliken charges =   0.00000

 Dipole moment (field-independent basis, Debye):
    X=              1.6687    Y=             -0.0001    Z=             -0.3303  Tot=              1.7011
 Quadrupole moment (field-independent basis, Debye-Ang):
   XX=            -53.0242   YY=            -56.5181   ZZ=            -50.5219
   XY=              0.0000   XZ=              1.5986   YZ=              0.0000

  Exact polarizability:  91.993   0.000  65.375   2.727   0.000  66.886
 Approx polarizability: 115.405   0.000 106.596   5.190   0.000 101.619

                      1                      2                      3
                      A                      A                      A
 Frequencies --    152.1530               158.6968               225.8082
 Red. masses --      2.8742                 2.3747                 2.1784
 Frc consts  --      0.0392                 0.0352                 0.0654
 IR Inten    --      0.1768                 0.7638                 0.0085

                      4                      5                      6
                      A                      A                      A
 Frequencies --    233.2855               257.3901               396.8986
 Red. masses --      1.4500                 2.5914                 3.5671
 Frc consts  --      0.0465                 0.1011                 0.3311
 IR Inten    --      0.3149                 6.1065                 0.0001

                      7                      8                      9
                      A                      A                      A
 Frequencies --    422.6612               461.5170               652.5744
 Red. masses --      3.3355                 4.1233                 6.2042
 Frc consts  --      0.3511                 0.5175                 1.5567
 IR Inten    --      0.0490                 7.7853                 9.0604

                     10                     11                     12
                      A                      A                      A
 Frequencies --    737.7887               781.2629               844.4051
 Red. masses --      6.4511                 2.1876                 2.1291
 Frc consts  --      2.0689                 0.7867                 0.8944
 IR Inten    --      0.7228                 7.5263                 5.5884

                     13                     14                     15
                      A                      A                      A
 Frequencies --    880.3610               898.0562               917.7903
 Red. masses --      1.8948                 1.4108                 3.0706
 Frc consts  --      0.8652                 0.6704                 1.5239
 IR Inten    --     13.8531                 3.6482                10.7731

                     16                     17                     18
                      A                      A                      A
 Frequencies --    932.3516               987.7942               989.7383
 Red. masses --      5.1702                 5.6707                 2.6989
 Frc consts  --      2.6480                 3.2600                 1.5577
 IR Inten    --      4.9151                10.8660                44.2682

                     19                     20                     21
                      A                      A                      A
 Frequencies --   1011.3839              1034.9559              1043.3284
 Red. masses --      1.6904                 1.7318                 2.4219
 Frc consts  --      1.0188                 1.0930                 1.5533
 IR Inten    --      6.7298                 9.2096                29.8776

                     22                     23                     24
                      A                      A                      A
 Frequencies --   1050.6107              1087.8847              1100.8264
 Red. masses --      1.3453                 2.3245                 3.1681
 Frc consts  --      0.8749                 1.6208                 2.2620
 IR Inten    --      0.4078                59.3876                 0.1250

                     25                     26                     27
                      A                      A                      A
 Frequencies --   1141.0594              1152.7006              1182.1315
 Red. masses --      2.5051                 1.5380                 2.1830
 Frc consts  --      1.9218                 1.2041                 1.7973
 IR Inten    --     62.4515                 0.7530               126.3513

                     28                     29                     30
                      A                      A                      A
 Frequencies --   1209.9303              1220.3276              1229.0770
 Red. masses --      2.3555                 1.2286                 1.8228
 Frc consts  --      2.0317                 1.0780                 1.6224
 IR Inten    --     23.9718                 0.0194                 1.8711

                     31                     32                     33
                      A                      A                      A
 Frequencies --   1238.0296              1268.5695              1285.3397
 Red. masses --      1.2272                 1.6529                 1.4403
 Frc consts  --      1.1082                 1.5672                 1.4020
 IR Inten    --      0.0358                 0.0128                 1.7506

                     34                     35                     36
                      A                      A                      A
 Frequencies --   1348.5398              1354.6045              1418.2661
 Red. masses --      1.2819                 1.2906                 1.2604
 Frc consts  --      1.3735                 1.3953                 1.4937
 IR Inten    --      6.7720                25.1944                 4.8027

                     37                     38                     39
                      A                      A                      A
 Frequencies --   1428.0893              1431.2956              1493.3698
 Red. masses --      2.3047                 1.2933                 1.0443
 Frc consts  --      2.7694                 1.5610                 1.3722
 IR Inten    --      5.2866                10.5093                 2.0453

                     40                     41                     42
                      A                      A                      A
 Frequencies --   1504.4700              1536.3788              2962.5272
 Red. masses --      1.0728                 1.0995                 1.0694
 Frc consts  --      1.4306                 1.5292                 5.5301
 IR Inten    --      4.9057                 2.0862                79.1411

                     43                     44                     45
                      A                      A                      A
 Frequencies --   3030.9063              3075.3531              3078.1882
 Red. masses --      1.0350                 1.0870                 1.0882
 Frc consts  --      5.6018                 6.0573                 6.0749
 IR Inten    --     34.6636                24.9971                 0.8455

                     46                     47                     48
                      A                      A                      A
 Frequencies --   3084.9174              3094.4766              3096.0618
 Red. masses --      1.0882                 1.0967                 1.1016
 Frc consts  --      6.1014                 6.1875                 6.2217
 IR Inten    --     60.2240                53.1726                22.3927

                     49                     50                     51
                      A                      A                      A
 Frequencies --   3104.2324              3177.9444              3188.8803
 Red. masses --      1.1000                 1.0885                 1.0970
 Frc consts  --      6.2452                 6.4768                 6.5727
 IR Inten    --     43.8011                14.3026                 8.0843

 - Thermochemistry -
 -------------------
 Temperature   298.150 Kelvin.  Pressure   1.00000 Atm.
 Atom     1 has atomic number  6 and mass  12.00000

 Molecular mass:   126.06808 amu.
 Principal axes and moments of inertia in atomic units:
                           1         2         3
     Eigenvalues --   410.623261516.476071675.24406
           X            1.00000   0.00000   0.00081
           Y            0.00000   1.00000   0.00000
           Z           -0.00081   0.00000   1.00000
 This molecule is an asymmetric top.
 Rotational symmetry number  1.
 Rotational temperatures (Kelvin)      0.21093     0.05712     0.05170
 Rotational constants (GHZ):           4.39513     1.19009     1.07730
 Zero-point vibrational energy     422253.0 (Joules/Mol)
                                  100.92089 (Kcal/Mol)
 Warning -- explicit consideration of   8 degrees of freedom as
           vibrations may cause significant error
 Vibrational temperatures:    218.91   228.33   324.89   335.65   370.33
          (Kelvin)            571.05   608.11   664.02   938.91  1061.51
                             1124.06  1214.91  1266.64  1292.10  1320.49
                             1341.44  1421.21  1424.01  1455.15  1489.07
                             1501.11  1511.59  1565.22  1583.84  1641.73
                             1658.48  1700.82  1740.82  1755.78  1768.37
                             1781.25  1825.19  1849.31  1940.25  1948.97
                             2040.57  2054.70  2059.31  2148.62  2164.59
                             2210.50  4262.41  4360.79  4424.74  4428.82
                             4438.50  4452.26  4454.54  4466.29  4572.35
                             4588.08

 Zero-point correction=                           0.160828 (Hartree/Particle)
 Thermal correction to Energy=                    0.168338
 Thermal correction to Enthalpy=                  0.169282
 Thermal correction to Gibbs Free Energy=         0.128979
 Sum of electronic and zero-point Energies=           -422.998822
 Sum of electronic and thermal Energies=              -422.991312
 Sum of electronic and thermal Enthalpies=            -422.990368
 Sum of electronic and thermal Free Energies=         -423.030670

                     E (Thermal)             CV                S
                      KCal/Mol        Cal/Mol-Kelvin    Cal/Mol-Kelvin
 Total                  105.633             29.486             84.824
 Electronic               0.000              0.000              0.000
 Translational            0.889              2.981             40.409
 Rotational               0.889              2.981             28.436
 Vibrational            103.856             23.525             15.980
 Vibration     1          0.619              1.900              2.645
 Vibration     2          0.621              1.893              2.565
 Vibration     3          0.650              1.802              1.912
 Vibration     4          0.654              1.790              1.854
 Vibration     5          0.667              1.750              1.679
 Vibration     6          0.763              1.477              0.974
 Vibration     7          0.785              1.421              0.883
 Vibration     8          0.819              1.335              0.762

 Optimization completed.
    -- Stationary point found.
 Normal termination of Gaussian 09 at Tue Jan 28 00:26:37 2020.
