 Gaussian 09, Revision D.01,
 Gaussian 09:  ES64L-G09RevD.01 24-Apr-2013

 -----------------------------
 # b3lyp 6-31G(2df,p) opt Freq
 -----------------------------

 -----
 titel
 -----
 Symbolic Z-matrix:
 Charge =  0 Multiplicity = 1

 SCF Done:  E(RB3LYP) =  -423.174199954     A.U. after   13 cycles
 Optimization completed.
    -- Stationary point found.
 Normal termination of Gaussian 09 at Tue Jan 28 03:07:27 2020.

 ----------------------------------------------------------------------
 #N Geom=AllCheck Guess=TCheck SCRF=Check GenChk RB3LYP/6-31G(2df,p) Fr
 eq
 ----------------------------------------------------------------------

 Structure from the checkpoint file:  "/scratch/puck/g09_242c3b1e-5634-43e6-8e21-27b525f28085/Gau-44569.chk"
 -----
 titel
 -----
 Charge =  0 Multiplicity = 1

                         Standard orientation:
 ---------------------------------------------------------------------
 Center     Atomic      Atomic             Coordinates (Angstroms)
 Number     Number       Type             X           Y           Z
 ---------------------------------------------------------------------
      1          8           0        2.422903   -0.215278   -0.561564
      2          6           0        1.424868   -0.208490    0.455699
      3          6           0        0.873841    1.241976    0.539970
      4          6           0       -0.448366    1.160751   -0.222990
      5          6           0       -1.625633    0.357384    0.424153
      6          6           0       -0.914487   -0.810456    1.136275
      7          6           0        0.185774   -1.021672    0.052789
      8          6           0       -0.474897   -0.138068   -1.061709
      9          8           0       -1.906940   -0.242846   -0.875187
     10          1           0        2.688946   -1.129113   -0.708389
     11          1           0        1.849441   -0.550150    1.410660
     12          1           0        0.745322    1.573153    1.574908
     13          1           0        1.585119    1.918997    0.061073
     14          1           0       -0.786091    2.055529   -0.743256
     15          1           0       -2.489564    0.825851    0.896169
     16          1           0       -0.509157   -0.563507    2.122128
     17          1           0       -1.590476   -1.661667    1.233350
     18          1           0        0.390213   -2.062328   -0.205780
     19          1           0       -0.138062   -0.230323   -2.091978
 ---------------------------------------------------------------------

 SCF Done:  E(RB3LYP) =  -423.174199954     A.U. after    1 cycles

 The electronic state is 1-A.
 Alpha  occ. eigenvalues --  -19.13746 -19.12756 -10.23411 -10.23246 -10.22819
 Alpha  occ. eigenvalues --  -10.18770 -10.18619 -10.18351 -10.18044  -1.04606
 Alpha  occ. eigenvalues --   -1.01871  -0.83588  -0.73840  -0.71041  -0.68657
 Alpha  occ. eigenvalues --   -0.60490  -0.55602  -0.53876  -0.52483  -0.50780
 Alpha  occ. eigenvalues --   -0.47587  -0.43659  -0.42348  -0.39968  -0.38854
 Alpha  occ. eigenvalues --   -0.37708  -0.36247  -0.34563  -0.33997  -0.31704
 Alpha  occ. eigenvalues --   -0.31028  -0.29855  -0.26855  -0.23727
 Alpha virt. eigenvalues --    0.07096   0.09454   0.10074   0.11239   0.13887
 Alpha virt. eigenvalues --    0.14279   0.15039   0.15770   0.16992   0.17371
 Alpha virt. eigenvalues --    0.18229   0.18581   0.19436   0.20009   0.22395

 Mulliken charges:
               1
     1  O   -0.446540
     2  C    0.134892
     3  C   -0.263955
     4  C   -0.022618
     5  C    0.067836
     6  C   -0.239100
     7  C   -0.089486
     8  C    0.095160
     9  O   -0.301701
    10  H    0.279389
    11  H    0.063938
    12  H    0.100514
    13  H    0.120034
    14  H    0.078953
    15  H    0.075508
    16  H    0.095834
    17  H    0.109760
    18  H    0.057416
    19  H    0.084165
 Sum of Mulliken charges =   0.00000

 Dipole moment (field-independent basis, Debye):
    X=              0.9406    Y=             -0.5680    Z=              1.4012  Tot=              1.7807
 Quadrupole moment (field-independent basis, Debye-Ang):
   XX=            -57.8166   YY=            -49.7101   ZZ=            -52.5539
   XY=             -4.8952   XZ=             -2.6676   YZ=              0.7635

  Exact polarizability:  77.332  -1.649  71.057  -2.822   0.172  69.715
 Approx polarizability: 109.878  -1.589 105.231  -3.338   1.903 108.636

                      1                      2                      3
                      A                      A                      A
 Frequencies --    140.2850               279.8019               323.4248
 Red. masses --      3.6084                 3.0397                 1.1511
 Frc consts  --      0.0418                 0.1402                 0.0709
 IR Inten    --      0.0381                 4.1260               106.2318

                      4                      5                      6
                      A                      A                      A
 Frequencies --    343.3706               416.0672               453.2998
 Red. masses --      2.5995                 2.7971                 2.6013
 Frc consts  --      0.1806                 0.2853                 0.3149
 IR Inten    --      1.7292                 4.0469                 5.9693

                      7                      8                      9
                      A                      A                      A
 Frequencies --    524.5903               645.7862               704.9674
 Red. masses --      4.1002                 4.5515                 3.7101
 Frc consts  --      0.6648                 1.1184                 1.0864
 IR Inten    --      4.9612                 8.8827                 1.5002

                     10                     11                     12
                      A                      A                      A
 Frequencies --    734.6804               798.3848               841.0186
 Red. masses --      4.3790                 2.6156                 2.5794
 Frc consts  --      1.3926                 0.9823                 1.0749
 IR Inten    --      0.0147                 7.6839                 3.1445

                     13                     14                     15
                      A                      A                      A
 Frequencies --    852.5655               869.0059               892.8888
 Red. masses --      4.4331                 2.6999                 2.2860
 Frc consts  --      1.8985                 1.2013                 1.0738
 IR Inten    --      2.4191                23.4016                11.7423

                     16                     17                     18
                      A                      A                      A
 Frequencies --    908.7295               945.7143               963.3298
 Red. masses --      2.1060                 4.5770                 1.6195
 Frc consts  --      1.0246                 2.4118                 0.8855
 IR Inten    --      8.2228                11.6333                 4.0615

                     19                     20                     21
                      A                      A                      A
 Frequencies --    980.6938               987.7134              1023.6636
 Red. masses --      2.5399                 2.0580                 2.3442
 Frc consts  --      1.4392                 1.1829                 1.4473
 IR Inten    --     40.2236                20.9430                 0.1652

                     22                     23                     24
                      A                      A                      A
 Frequencies --   1030.2960              1064.4905              1087.2831
 Red. masses --      1.6263                 1.9502                 1.6176
 Frc consts  --      1.0171                 1.3020                 1.1267
 IR Inten    --      7.3006                 8.1562                41.8324

                     25                     26                     27
                      A                      A                      A
 Frequencies --   1105.9612              1157.0898              1170.4435
 Red. masses --      1.7409                 1.6329                 1.5619
 Frc consts  --      1.2546                 1.2881                 1.2606
 IR Inten    --      1.6259                 2.2464                 7.3729

                     28                     29                     30
                      A                      A                      A
 Frequencies --   1203.5109              1216.6050              1230.9948
 Red. masses --      1.3659                 1.3600                 1.4552
 Frc consts  --      1.1656                 1.1860                 1.2992
 IR Inten    --     28.0965                 8.6438                 2.4146

                     31                     32                     33
                      A                      A                      A
 Frequencies --   1245.9108              1270.9245              1291.0521
 Red. masses --      1.3318                 1.4735                 1.3553
 Frc consts  --      1.2180                 1.4023                 1.3310
 IR Inten    --      0.0963                28.8742                 0.5545

                     34                     35                     36
                      A                      A                      A
 Frequencies --   1295.6778              1313.9519              1322.0013
 Red. masses --      1.5116                 1.7958                 1.5500
 Frc consts  --      1.4952                 1.8267                 1.5960
 IR Inten    --      6.6131                 4.8035                 9.4944

                     37                     38                     39
                      A                      A                      A
 Frequencies --   1353.4139              1363.7425              1417.9289
 Red. masses --      1.6745                 1.4662                 1.4483
 Frc consts  --      1.8071                 1.6066                 1.7156
 IR Inten    --      6.1432                28.6067                 4.9175

                     40                     41                     42
                      A                      A                      A
 Frequencies --   1476.1839              1489.8902              2993.2805
 Red. masses --      1.1043                 1.0948                 1.0850
 Frc consts  --      1.4178                 1.4319                 5.7276
 IR Inten    --      5.2617                 4.4379                53.4313

                     43                     44                     45
                      A                      A                      A
 Frequencies --   3057.2244              3062.5082              3092.9368
 Red. masses --      1.0629                 1.0617                 1.0887
 Frc consts  --      5.8535                 5.8668                 6.1365
 IR Inten    --     11.8534                42.4976                32.1724

                     46                     47                     48
                      A                      A                      A
 Frequencies --   3108.8224              3116.9590              3120.7890
 Red. masses --      1.1018                 1.0915                 1.1020
 Frc consts  --      6.2741                 6.2477                 6.3233
 IR Inten    --      9.2401                44.0853                24.5735

                     49                     50                     51
                      A                      A                      A
 Frequencies --   3133.6236              3148.7584              3810.1004
 Red. masses --      1.0887                 1.0930                 1.0659
 Frc consts  --      6.2985                 6.3851                 9.1169
 IR Inten    --     31.8573                28.2369                17.3810

 - Thermochemistry -
 -------------------
 Temperature   298.150 Kelvin.  Pressure   1.00000 Atm.
 Atom     1 has atomic number  8 and mass  15.99491

 Molecular mass:   126.06808 amu.
 Principal axes and moments of inertia in atomic units:
                           1         2         3
     Eigenvalues --   539.581201172.758361199.24873
           X            0.99988  -0.00844  -0.01269
           Y            0.00760   0.99787  -0.06483
           Z            0.01321   0.06473   0.99782
 This molecule is an asymmetric top.
 Rotational symmetry number  1.
 Warning -- assumption of classical behavior for rotation
           may cause significant error
 Rotational temperatures (Kelvin)      0.16052     0.07385     0.07222
 Rotational constants (GHZ):           3.34471     1.53889     1.50489
 Zero-point vibrational energy     426961.2 (Joules/Mol)
                                  102.04617 (Kcal/Mol)
 Warning -- explicit consideration of   7 degrees of freedom as
           vibrations may cause significant error
 Vibrational temperatures:    201.84   402.57   465.34   494.03   598.63
          (Kelvin)            652.20   754.77   929.14  1014.29  1057.04
                             1148.70  1210.04  1226.65  1250.30  1284.67
                             1307.46  1360.67  1386.01  1411.00  1421.10
                             1472.82  1482.36  1531.56  1564.36  1591.23
                             1664.79  1684.00  1731.58  1750.42  1771.12
                             1792.59  1828.57  1857.53  1864.19  1890.48
                             1902.06  1947.26  1962.12  2040.08  2123.90
                             2143.62  4306.66  4398.66  4406.26  4450.04
                             4472.90  4484.60  4490.11  4508.58  4530.36
                             5481.88

 Zero-point correction=                           0.162621 (Hartree/Particle)
 Thermal correction to Energy=                    0.169311
 Thermal correction to Enthalpy=                  0.170255
 Thermal correction to Gibbs Free Energy=         0.131847
 Sum of electronic and zero-point Energies=           -423.011579
 Sum of electronic and thermal Energies=              -423.004889
 Sum of electronic and thermal Enthalpies=            -423.003945
 Sum of electronic and thermal Free Energies=         -423.042353

                     E (Thermal)             CV                S
                      KCal/Mol        Cal/Mol-Kelvin    Cal/Mol-Kelvin
 Total                  106.244             28.348             80.837
 Electronic               0.000              0.000              0.000
 Translational            0.889              2.981             40.409
 Rotational               0.889              2.981             28.119
 Vibrational            104.467             22.386             12.309
 Vibration     1          0.615              1.913              2.800
 Vibration     2          0.680              1.711              1.535
 Vibration     3          0.708              1.629              1.293
 Vibration     4          0.722              1.589              1.196
 Vibration     5          0.779              1.435              0.905
 Vibration     6          0.812              1.354              0.786
 Vibration     7          0.880              1.196              0.599

 Optimization completed.
    -- Stationary point found.
 Normal termination of Gaussian 09 at Tue Jan 28 05:15:02 2020.
