 Gaussian 09, Revision D.01,
 Gaussian 09:  ES64L-G09RevD.01 24-Apr-2013

 -----------------------------
 # b3lyp 6-31G(2df,p) opt Freq
 -----------------------------

 -----
 titel
 -----
 Symbolic Z-matrix:
 Charge =  0 Multiplicity = 1

 SCF Done:  E(RB3LYP) =  -423.180974555     A.U. after   14 cycles
 Optimization completed.
    -- Stationary point found.
 Normal termination of Gaussian 09 at Tue Jan 28 00:01:35 2020.

 ----------------------------------------------------------------------
 #N Geom=AllCheck Guess=TCheck SCRF=Check GenChk RB3LYP/6-31G(2df,p) Fr
 eq
 ----------------------------------------------------------------------

 Structure from the checkpoint file:  "/scratch/puck/g09_3d72c6a6-d451-4716-8394-ae1293eadcd1/Gau-104925.chk"
 -----
 titel
 -----
 Charge =  0 Multiplicity = 1

                         Standard orientation:
 ---------------------------------------------------------------------
 Center     Atomic      Atomic             Coordinates (Angstroms)
 Number     Number       Type             X           Y           Z
 ---------------------------------------------------------------------
      1          6           0       -1.891932    1.708883    0.274606
      2          6           0       -0.686738    0.888477   -0.059662
      3          6           0        0.543416    1.316783   -0.357850
      4          6           0        1.533944    0.183488   -0.576655
      5          8           0        2.628159    0.223561    0.326635
      6          6           0        0.657355   -1.057479   -0.379819
      7          8           0        0.187157   -1.160575    0.974355
      8          6           0       -0.704114   -0.625799   -0.053202
      9          6           0       -1.955603   -1.415864   -0.309470
     10          1           0       -2.256091    1.484326    1.285033
     11          1           0       -1.669620    2.777657    0.223086
     12          1           0       -2.723176    1.502171   -0.410666
     13          1           0        0.866297    2.352411   -0.359626
     14          1           0        1.975686    0.203718   -1.579501
     15          1           0        2.246018    0.039407    1.195173
     16          1           0        0.896341   -1.999491   -0.866111
     17          1           0       -2.380948   -1.162491   -1.286453
     18          1           0       -1.740052   -2.486465   -0.287858
     19          1           0       -2.714950   -1.206072    0.451328
 ---------------------------------------------------------------------

 SCF Done:  E(RB3LYP) =  -423.180974555     A.U. after    1 cycles

 The electronic state is 1-A.
 Alpha  occ. eigenvalues --  -19.14997 -19.12985 -10.24407 -10.23424 -10.22949
 Alpha  occ. eigenvalues --  -10.19588 -10.19014 -10.18979 -10.17870  -1.06913
 Alpha  occ. eigenvalues --   -1.01017  -0.82294  -0.75197  -0.73379  -0.66718
 Alpha  occ. eigenvalues --   -0.63555  -0.57893  -0.53345  -0.51687  -0.47241
 Alpha  occ. eigenvalues --   -0.44725  -0.43845  -0.42184  -0.41675  -0.41288
 Alpha  occ. eigenvalues --   -0.40880  -0.38649  -0.37294  -0.35956  -0.33092
 Alpha  occ. eigenvalues --   -0.30797  -0.28484  -0.25081  -0.24029
 Alpha virt. eigenvalues --   -0.00088   0.08731   0.09383   0.11773   0.12186
 Alpha virt. eigenvalues --    0.13177   0.14212   0.14520   0.15136   0.15935
 Alpha virt. eigenvalues --    0.16550   0.18519   0.21493   0.22229   0.22890

 Mulliken charges:
               1
     1  C   -0.503868
     2  C    0.283091
     3  C   -0.233653
     4  C    0.084763
     5  O   -0.436274
     6  C   -0.068881
     7  O   -0.311234
     8  C    0.326630
     9  C   -0.500870
    10  H    0.136055
    11  H    0.130031
    12  H    0.128938
    13  H    0.100096
    14  H    0.089098
    15  H    0.287195
    16  H    0.095032
    17  H    0.127560
    18  H    0.135537
    19  H    0.130754
 Sum of Mulliken charges =   0.00000

 Dipole moment (field-independent basis, Debye):
    X=             -2.3762    Y=              0.3085    Z=             -1.1314  Tot=              2.6499
 Quadrupole moment (field-independent basis, Debye-Ang):
   XX=            -56.2763   YY=            -51.3514   ZZ=            -52.5300
   XY=             -0.7508   XZ=             -0.4564   YZ=              2.4403

  Exact polarizability:  93.828   0.827  76.193  -4.617   0.550  59.478
 Approx polarizability: 137.807   3.947 105.134  -8.553  -4.151  98.979

                      1                      2                      3
                      A                      A                      A
 Frequencies --    129.1549               144.9239               180.6318
 Red. masses --      3.5984                 2.4447                 1.0998
 Frc consts  --      0.0354                 0.0303                 0.0211
 IR Inten    --      1.5136                 1.2833                 0.2237

                      4                      5                      6
                      A                      A                      A
 Frequencies --    196.9306               238.5601               257.5234
 Red. masses --      1.1370                 2.5935                 3.8697
 Frc consts  --      0.0260                 0.0870                 0.1512
 IR Inten    --      0.2608                 0.2191                 1.3404

                      7                      8                      9
                      A                      A                      A
 Frequencies --    300.7548               414.5178               450.7436
 Red. masses --      3.0638                 2.6294                 1.4898
 Frc consts  --      0.1633                 0.2662                 0.1783
 IR Inten    --      6.4830                 9.5223                27.7683

                     10                     11                     12
                      A                      A                      A
 Frequencies --    477.6494               548.4974               560.4547
 Red. masses --      2.3093                 4.3213                 4.5798
 Frc consts  --      0.3104                 0.7660                 0.8476
 IR Inten    --     49.6893                 1.9837                16.8838

                     13                     14                     15
                      A                      A                      A
 Frequencies --    599.8428               664.4868               753.4038
 Red. masses --      3.5455                 3.8906                 3.8259
 Frc consts  --      0.7516                 1.0121                 1.2795
 IR Inten    --      1.9097                 3.1485                 3.3694

                     16                     17                     18
                      A                      A                      A
 Frequencies --    797.0737               874.1218               878.8945
 Red. masses --      2.4911                 1.8098                 3.1569
 Frc consts  --      0.9325                 0.8148                 1.4368
 IR Inten    --     13.3480                55.0370                 1.9833

                     19                     20                     21
                      A                      A                      A
 Frequencies --    908.3726               993.9883              1011.9499
 Red. masses --      2.2341                 1.8137                 1.5871
 Frc consts  --      1.0861                 1.0558                 0.9576
 IR Inten    --      0.4683                 3.2756                21.3964

                     22                     23                     24
                      A                      A                      A
 Frequencies --   1039.5678              1060.6326              1065.0797
 Red. masses --      2.2119                 2.0336                 1.7137
 Frc consts  --      1.4084                 1.3479                 1.1454
 IR Inten    --     34.5711                32.3511                 5.6387

                     25                     26                     27
                      A                      A                      A
 Frequencies --   1077.1467              1108.1607              1141.4261
 Red. masses --      2.0859                 1.9329                 2.3699
 Frc consts  --      1.4259                 1.3985                 1.8192
 IR Inten    --     24.9935                27.6351                18.2469

                     28                     29                     30
                      A                      A                      A
 Frequencies --   1231.6603              1271.4475              1286.3483
 Red. masses --      1.6234                 1.3194                 1.6330
 Frc consts  --      1.4509                 1.2566                 1.5920
 IR Inten    --      7.7328                 9.1600                 6.9967

                     31                     32                     33
                      A                      A                      A
 Frequencies --   1309.1926              1345.3464              1405.9041
 Red. masses --      1.6323                 2.7112                 1.3013
 Frc consts  --      1.6484                 2.8912                 1.5154
 IR Inten    --      4.1762                 6.2377                 6.2769

                     34                     35                     36
                      A                      A                      A
 Frequencies --   1414.6572              1432.7117              1446.6601
 Red. masses --      1.3025                 1.2523                 3.1026
 Frc consts  --      1.5358                 1.5145                 3.8257
 IR Inten    --      0.3137                74.9764                29.9206

                     37                     38                     39
                      A                      A                      A
 Frequencies --   1477.5029              1481.7972              1488.0309
 Red. masses --      1.0657                 1.0514                 1.1264
 Frc consts  --      1.3706                 1.3601                 1.4695
 IR Inten    --      3.1487                 8.8950                13.5828

                     40                     41                     42
                      A                      A                      A
 Frequencies --   1497.6331              1708.2646              3021.0938
 Red. masses --      1.0974                 7.5326                 1.0382
 Frc consts  --      1.4502                12.9510                 5.5830
 IR Inten    --      1.1174                 3.8993                19.5183

                     43                     44                     45
                      A                      A                      A
 Frequencies --   3037.4249              3048.5366              3068.3788
 Red. masses --      1.0365                 1.0843                 1.0984
 Frc consts  --      5.6344                 5.9372                 6.0932
 IR Inten    --     20.2427                31.3338                14.2208

                     46                     47                     48
                      A                      A                      A
 Frequencies --   3098.6936              3116.5670              3128.1818
 Red. masses --      1.1005                 1.0990                 1.1006
 Frc consts  --      6.2256                 6.2892                 6.3457
 IR Inten    --     15.7844                17.9539                10.1550

                     49                     50                     51
                      A                      A                      A
 Frequencies --   3149.7336              3191.5123              3764.5248
 Red. masses --      1.0918                 1.0943                 1.0653
 Frc consts  --      6.3819                 6.5671                 8.8946
 IR Inten    --     25.0468                11.1523                18.4470

 - Thermochemistry -
 -------------------
 Temperature   298.150 Kelvin.  Pressure   1.00000 Atm.
 Atom     1 has atomic number  6 and mass  12.00000

 Molecular mass:   126.06808 amu.
 Principal axes and moments of inertia in atomic units:
                           1         2         3
     Eigenvalues --   700.406881160.690681612.55123
           X            0.99996  -0.00783  -0.00494
           Y            0.00799   0.99943   0.03270
           Z            0.00468  -0.03274   0.99945
 This molecule is an asymmetric top.
 Rotational symmetry number  1.
 Warning -- assumption of classical behavior for rotation
           may cause significant error
 Rotational temperatures (Kelvin)      0.12366     0.07462     0.05371
 Rotational constants (GHZ):           2.57670     1.55489     1.11918
 Zero-point vibrational energy     414483.9 (Joules/Mol)
                                   99.06403 (Kcal/Mol)
 Warning -- explicit consideration of  13 degrees of freedom as
           vibrations may cause significant error
 Vibrational temperatures:    185.82   208.51   259.89   283.34   343.23
          (Kelvin)            370.52   432.72   596.40   648.52   687.23
                              789.16   806.37   863.04   956.05  1083.98
                             1146.81  1257.66  1264.53  1306.94  1430.13
                             1455.97  1495.70  1526.01  1532.41  1549.77
                             1594.39  1642.26  1772.08  1829.33  1850.77
                             1883.63  1935.65  2022.78  2035.37  2061.35
                             2081.42  2125.79  2131.97  2140.94  2154.76
                             2457.81  4346.67  4370.17  4386.16  4414.71
                             4458.32  4484.04  4500.75  4531.76  4591.87
                             5416.30

 Zero-point correction=                           0.157869 (Hartree/Particle)
 Thermal correction to Energy=                    0.166737
 Thermal correction to Enthalpy=                  0.167681
 Thermal correction to Gibbs Free Energy=         0.124822
 Sum of electronic and zero-point Energies=           -423.023106
 Sum of electronic and thermal Energies=              -423.014238
 Sum of electronic and thermal Enthalpies=            -423.013294
 Sum of electronic and thermal Free Energies=         -423.056152

                     E (Thermal)             CV                S
                      KCal/Mol        Cal/Mol-Kelvin    Cal/Mol-Kelvin
 Total                  104.629             33.981             90.204
 Electronic               0.000              0.000              0.000
 Translational            0.889              2.981             40.409
 Rotational               0.889              2.981             28.663
 Vibrational            102.851             28.019             21.132
 Vibration     1          0.612              1.924              2.959
 Vibration     2          0.616              1.908              2.738
 Vibration     3          0.630              1.866              2.322
 Vibration     4          0.636              1.844              2.162
 Vibration     5          0.657              1.782              1.814
 Vibration     6          0.667              1.750              1.679
 Vibration     7          0.693              1.672              1.413
 Vibration     8          0.778              1.439              0.911
 Vibration     9          0.810              1.359              0.794
 Vibration    10          0.834              1.300              0.716
 Vibration    11          0.904              1.143              0.547
 Vibration    12          0.916              1.117              0.523
 Vibration    13          0.958              1.032              0.450

 Normal termination of Gaussian 09 at Tue Jan 28 00:42:51 2020.
