 Gaussian 09, Revision D.01,
 Gaussian 09:  ES64L-G09RevD.01 24-Apr-2013

 -----------------------------
 # b3lyp 6-31G(2df,p) opt Freq
 -----------------------------

 -----
 titel
 -----
 Symbolic Z-matrix:
 Charge =  0 Multiplicity = 1

 SCF Done:  E(RB3LYP) =  -423.228466851     A.U. after   14 cycles
 Optimization completed.
    -- Stationary point found.
 Normal termination of Gaussian 09 at Tue Jan 28 13:26:16 2020.

 ----------------------------------------------------------------------
 #N Geom=AllCheck Guess=TCheck SCRF=Check GenChk RB3LYP/6-31G(2df,p) Fr
 eq
 ----------------------------------------------------------------------

 Structure from the checkpoint file:  "/scratch/puck/g09_a8ca03df-dc8f-4327-a19d-7bcfab4f2a79/Gau-108881.chk"
 -----
 titel
 -----
 Charge =  0 Multiplicity = 1

                         Standard orientation:
 ---------------------------------------------------------------------
 Center     Atomic      Atomic             Coordinates (Angstroms)
 Number     Number       Type             X           Y           Z
 ---------------------------------------------------------------------
      1          6           0       -2.889117   -1.053795   -0.200919
      2          6           0       -1.602979   -0.321546   -0.006638
      3          6           0       -1.383972    0.993546   -0.175718
      4          6           0        0.019347    1.337650    0.108077
      5          8           0        0.545042    2.427696    0.045950
      6          6           0        0.743801    0.028472    0.483803
      7          6           0        1.921118   -0.220376   -0.469508
      8          8           0        2.617347   -1.423210   -0.185405
      9          6           0       -0.350437   -1.053069    0.428224
     10          1           0       -3.188687   -1.561018    0.724761
     11          1           0       -3.698803   -0.388816   -0.509730
     12          1           0       -2.774813   -1.839310   -0.958391
     13          1           0       -2.114193    1.733084   -0.480715
     14          1           0        1.144441    0.146300    1.498366
     15          1           0        1.548237   -0.331789   -1.494156
     16          1           0        2.582938    0.655708   -0.453656
     17          1           0        3.062386   -1.313225    0.661127
     18          1           0       -0.095878   -1.858204   -0.272146
     19          1           0       -0.511312   -1.543907    1.396254
 ---------------------------------------------------------------------

 SCF Done:  E(RB3LYP) =  -423.228466851     A.U. after    1 cycles

 The electronic state is 1-A.
 Alpha  occ. eigenvalues --  -19.13898 -19.11559 -10.25610 -10.23022 -10.22023
 Alpha  occ. eigenvalues --  -10.19968 -10.19618 -10.19138 -10.18468  -1.02588
 Alpha  occ. eigenvalues --   -1.01891  -0.85861  -0.76951  -0.72170  -0.68797
 Alpha  occ. eigenvalues --   -0.62816  -0.55471  -0.53439  -0.49975  -0.48115
 Alpha  occ. eigenvalues --   -0.45961  -0.44306  -0.43163  -0.42176  -0.40113
 Alpha  occ. eigenvalues --   -0.38970  -0.38332  -0.37652  -0.36269  -0.35056
 Alpha  occ. eigenvalues --   -0.32363  -0.27515  -0.26360  -0.23251
 Alpha virt. eigenvalues --   -0.04032   0.05769   0.07297   0.09114   0.11535
 Alpha virt. eigenvalues --    0.13305   0.13468   0.15333   0.15973   0.16290
 Alpha virt. eigenvalues --    0.17211   0.18371   0.19234   0.21291   0.23355

 Mulliken charges:
               1
     1  C   -0.485885
     2  C    0.327452
     3  C   -0.290473
     4  C    0.389091
     5  O   -0.353404
     6  C   -0.143609
     7  C   -0.071221
     8  O   -0.419941
     9  C   -0.319876
    10  H    0.138695
    11  H    0.134743
    12  H    0.140779
    13  H    0.108469
    14  H    0.090821
    15  H    0.112822
    16  H    0.115072
    17  H    0.282508
    18  H    0.129141
    19  H    0.114815
 Sum of Mulliken charges =   0.00000

 Dipole moment (field-independent basis, Debye):
    X=             -1.8743    Y=             -2.5202    Z=              1.0866  Tot=              3.3235
 Quadrupole moment (field-independent basis, Debye-Ang):
   XX=            -48.0418   YY=            -63.0308   ZZ=            -51.0465
   XY=              0.8323   XZ=              4.2360   YZ=             -2.0789

  Exact polarizability:  91.837   8.197  90.489   4.076  -3.542  57.564
 Approx polarizability: 119.523  19.465 155.243   5.172  -6.007  90.287

                      1                      2                      3
                      A                      A                      A
 Frequencies --     47.8056               110.1893               137.1752
 Red. masses --      3.0494                 2.5917                 1.5321
 Frc consts  --      0.0041                 0.0185                 0.0170
 IR Inten    --      1.6207                 5.0022                 0.1100

                      4                      5                      6
                      A                      A                      A
 Frequencies --    165.0988               188.2429               281.6272
 Red. masses --      2.7619                 2.3037                 3.5010
 Frc consts  --      0.0444                 0.0481                 0.1636
 IR Inten    --      4.8125                 0.9534                 2.0537

                      7                      8                      9
                      A                      A                      A
 Frequencies --    314.2237               331.4939               410.6315
 Red. masses --      1.1495                 3.3421                 2.6934
 Frc consts  --      0.0669                 0.2164                 0.2676
 IR Inten    --     98.8995                 0.1329                20.0210

                     10                     11                     12
                      A                      A                      A
 Frequencies --    443.1600               543.8073               575.0871
 Red. masses --      2.0767                 3.5647                 3.8997
 Frc consts  --      0.2403                 0.6211                 0.7599
 IR Inten    --      4.1877                 5.6419                 9.2245

                     13                     14                     15
                      A                      A                      A
 Frequencies --    619.0428               696.9604               849.7062
 Red. masses --      5.8598                 3.2392                 3.4259
 Frc consts  --      1.3230                 0.9271                 1.4573
 IR Inten    --      4.5235                 1.5293                 3.4982

                     16                     17                     18
                      A                      A                      A
 Frequencies --    866.2233               885.3056               915.9545
 Red. masses --      1.6117                 2.8018                 1.2930
 Frc consts  --      0.7125                 1.2938                 0.6391
 IR Inten    --      7.4654                 6.6607                 6.5145

                     19                     20                     21
                      A                      A                      A
 Frequencies --    922.2646              1009.0467              1017.4438
 Red. masses --      2.6891                 1.5429                 1.5739
 Frc consts  --      1.3476                 0.9256                 0.9599
 IR Inten    --      7.2746                13.6573                 8.8352

                     22                     23                     24
                      A                      A                      A
 Frequencies --   1061.0944              1096.2793              1097.4246
 Red. masses --      2.2604                 2.6173                 2.1920
 Frc consts  --      1.4995                 1.8533                 1.5554
 IR Inten    --     76.6244                43.2718                 2.2035

                     25                     26                     27
                      A                      A                      A
 Frequencies --   1147.6428              1155.6541              1187.0927
 Red. masses --      1.4122                 2.0535                 1.7501
 Frc consts  --      1.0959                 1.6158                 1.4531
 IR Inten    --     22.4023                13.0261                43.7363

                     28                     29                     30
                      A                      A                      A
 Frequencies --   1215.8548              1245.0351              1299.4998
 Red. masses --      1.6338                 1.3198                 1.9008
 Frc consts  --      1.4230                 1.2054                 1.8912
 IR Inten    --     23.6519                 4.2450                33.5393

                     31                     32                     33
                      A                      A                      A
 Frequencies --   1336.5267              1348.1271              1382.5376
 Red. masses --      1.7564                 1.8056                 1.2913
 Frc consts  --      1.8486                 1.9335                 1.4542
 IR Inten    --      4.2557                 6.0087                 0.4792

                     34                     35                     36
                      A                      A                      A
 Frequencies --   1410.3229              1415.4899              1473.9829
 Red. masses --      1.3042                 1.2055                 1.0839
 Frc consts  --      1.5284                 1.4231                 1.3875
 IR Inten    --      4.8924                53.3100                 2.6852

                     37                     38                     39
                      A                      A                      A
 Frequencies --   1476.6254              1478.6963              1508.2605
 Red. masses --      1.0452                 1.0796                 1.0895
 Frc consts  --      1.3427                 1.3908                 1.4602
 IR Inten    --      8.2224                17.8911                 1.5253

                     40                     41                     42
                      A                      A                      A
 Frequencies --   1677.0519              1800.4007              3018.4862
 Red. masses --      6.4878                12.4198                 1.0601
 Frc consts  --     10.7507                23.7194                 5.6906
 IR Inten    --     80.2851               282.2855                33.4414

                     43                     44                     45
                      A                      A                      A
 Frequencies --   3022.3259              3026.3066              3034.5377
 Red. masses --      1.0462                 1.0649                 1.0715
 Frc consts  --      5.6304                 5.7465                 5.8134
 IR Inten    --      2.9906                25.3909                13.7661

                     46                     47                     48
                      A                      A                      A
 Frequencies --   3056.7546              3072.1297              3074.2959
 Red. masses --      1.1006                 1.0979                 1.1031
 Frc consts  --      6.0589                 6.1051                 6.1424
 IR Inten    --      6.6918                 7.8931                40.7694

                     49                     50                     51
                      A                      A                      A
 Frequencies --   3123.8500              3212.5731              3813.0852
 Red. masses --      1.0998                 1.0956                 1.0661
 Frc consts  --      6.3231                 6.6622                 9.1331
 IR Inten    --     15.0470                 5.4035                20.9350

 - Thermochemistry -
 -------------------
 Temperature   298.150 Kelvin.  Pressure   1.00000 Atm.
 Atom     1 has atomic number  6 and mass  12.00000

 Molecular mass:   126.06808 amu.
 Principal axes and moments of inertia in atomic units:
                           1         2         3
     Eigenvalues --   798.145301412.937322080.09944
           X            0.99930   0.03672   0.00758
           Y           -0.03663   0.99927  -0.01093
           Z           -0.00798   0.01064   0.99991
 This molecule is an asymmetric top.
 Rotational symmetry number  1.
 Warning -- assumption of classical behavior for rotation
           may cause significant error
 Rotational temperatures (Kelvin)      0.10852     0.06130     0.04164
 Rotational constants (GHZ):           2.26117     1.27730     0.86762
 Zero-point vibrational energy     416291.1 (Joules/Mol)
                                   99.49596 (Kcal/Mol)
 Warning -- explicit consideration of  13 degrees of freedom as
           vibrations may cause significant error
 Vibrational temperatures:     68.78   158.54   197.36   237.54   270.84
          (Kelvin)            405.20   452.10   476.95   590.81   637.61
                              782.42   827.42   890.66  1002.77  1222.54
                             1246.30  1273.76  1317.85  1326.93  1451.79
                             1463.87  1526.68  1577.30  1578.95  1651.20
                             1662.73  1707.96  1749.34  1791.33  1869.69
                             1922.96  1939.65  1989.16  2029.14  2036.57
                             2120.73  2124.53  2127.51  2170.05  2412.90
                             2590.37  4342.92  4348.45  4354.17  4366.02
                             4397.98  4420.10  4423.22  4494.52  4622.17
                             5486.17

 Zero-point correction=                           0.158557 (Hartree/Particle)
 Thermal correction to Energy=                    0.167834
 Thermal correction to Enthalpy=                  0.168779
 Thermal correction to Gibbs Free Energy=         0.123853
 Sum of electronic and zero-point Energies=           -423.069910
 Sum of electronic and thermal Energies=              -423.060632
 Sum of electronic and thermal Enthalpies=            -423.059688
 Sum of electronic and thermal Free Energies=         -423.104614

                     E (Thermal)             CV                S
                      KCal/Mol        Cal/Mol-Kelvin    Cal/Mol-Kelvin
 Total                  105.318             33.756             94.554
 Electronic               0.000              0.000              0.000
 Translational            0.889              2.981             40.409
 Rotational               0.889              2.981             29.241
 Vibrational            103.540             27.794             24.904
 Vibration     1          0.595              1.978              4.906
 Vibration     2          0.606              1.941              3.266
 Vibration     3          0.614              1.916              2.843
 Vibration     4          0.623              1.885              2.491
 Vibration     5          0.633              1.856              2.245
 Vibration     6          0.681              1.708              1.524
 Vibration     7          0.702              1.647              1.340
 Vibration     8          0.714              1.613              1.253
 Vibration     9          0.775              1.447              0.924
 Vibration    10          0.803              1.376              0.817
 Vibration    11          0.899              1.153              0.557
 Vibration    12          0.931              1.085              0.495
 Vibration    13          0.979              0.992              0.418

 Normal termination of Gaussian 09 at Tue Jan 28 14:06:43 2020.
