 Gaussian 09, Revision D.01,
 Gaussian 09:  ES64L-G09RevD.01 24-Apr-2013

 -----------------------------
 # b3lyp 6-31G(2df,p) opt Freq
 -----------------------------

 -----
 titel
 -----
 Symbolic Z-matrix:
 Charge =  0 Multiplicity = 1

 SCF Done:  E(RB3LYP) =  -423.191318826     A.U. after   14 cycles
 Optimization completed.
    -- Stationary point found.
 Normal termination of Gaussian 09 at Mon Jan 27 23:04:19 2020.

 ----------------------------------------------------------------------
 #N Geom=AllCheck Guess=TCheck SCRF=Check GenChk RB3LYP/6-31G(2df,p) Fr
 eq
 ----------------------------------------------------------------------

 Structure from the checkpoint file:  "/scratch/puck/g09_87170cb9-a9a9-4b40-a484-c4440f4f88a0/Gau-101753.chk"
 -----
 titel
 -----
 Charge =  0 Multiplicity = 1

                         Standard orientation:
 ---------------------------------------------------------------------
 Center     Atomic      Atomic             Coordinates (Angstroms)
 Number     Number       Type             X           Y           Z
 ---------------------------------------------------------------------
      1          6           0       -1.867530    1.533866   -0.293432
      2          6           0       -1.045818    0.546663    0.535467
      3          6           0        0.469121    0.804556    0.703152
      4          6           0        0.949460   -0.542870    1.318767
      5          6           0        0.567065   -1.109548   -0.091048
      6          6           0        1.053750    0.292218   -0.639809
      7          8           0        2.448904    0.466714   -0.682668
      8          6           0       -0.928927   -0.860240   -0.106527
      9          8           0       -1.815753   -1.542708   -0.548177
     10          1           0       -1.408566    1.738431   -1.265486
     11          1           0       -2.863945    1.122334   -0.477548
     12          1           0       -1.979698    2.487494    0.231316
     13          1           0       -1.513414    0.437074    1.522602
     14          1           0        0.780781    1.767479    1.107363
     15          1           0        2.024735   -0.570376    1.482214
     16          1           0        0.410504   -0.931811    2.186695
     17          1           0        0.925329   -2.058383   -0.487039
     18          1           0        0.587108    0.642407   -1.569222
     19          1           0        2.789235   -0.014563   -1.443555
 ---------------------------------------------------------------------

 SCF Done:  E(RB3LYP) =  -423.191318826     A.U. after    1 cycles

 The electronic state is 1-A.
 Alpha  occ. eigenvalues --  -19.15301 -19.12770 -10.26229 -10.24974 -10.19990
 Alpha  occ. eigenvalues --  -10.19810 -10.19623 -10.19478 -10.18138  -1.04069
 Alpha  occ. eigenvalues --   -1.03579  -0.89202  -0.76212  -0.67914  -0.66746
 Alpha  occ. eigenvalues --   -0.65443  -0.55536  -0.52500  -0.51558  -0.50439
 Alpha  occ. eigenvalues --   -0.46550  -0.44208  -0.42112  -0.40864  -0.39874
 Alpha  occ. eigenvalues --   -0.38096  -0.37160  -0.37100  -0.35119  -0.34246
 Alpha  occ. eigenvalues --   -0.32218  -0.30965  -0.27614  -0.23144
 Alpha virt. eigenvalues --   -0.00901   0.06868   0.09592   0.11208   0.12507
 Alpha virt. eigenvalues --    0.12864   0.13957   0.14664   0.16522   0.17211
 Alpha virt. eigenvalues --    0.17974   0.18392   0.19989   0.21147   0.22423

 Mulliken charges:
               1
     1  C   -0.422579
     2  C   -0.093236
     3  C   -0.050667
     4  C   -0.250242
     5  C   -0.178834
     6  C    0.138437
     7  O   -0.441531
     8  C    0.427006
     9  O   -0.348045
    10  H    0.120703
    11  H    0.139789
    12  H    0.117794
    13  H    0.099716
    14  H    0.075553
    15  H    0.126991
    16  H    0.099566
    17  H    0.075893
    18  H    0.074840
    19  H    0.288847
 Sum of Mulliken charges =   0.00000

 Dipole moment (field-independent basis, Debye):
    X=              1.7136    Y=              1.0375    Z=              0.0411  Tot=              2.0036
 Quadrupole moment (field-independent basis, Debye-Ang):
   XX=            -57.2361   YY=            -56.1013   ZZ=            -49.4896
   XY=             -7.5030   XZ=             -5.1271   YZ=             -0.6224

  Exact polarizability:  84.102  -1.615  73.456   0.640   1.528  68.199
 Approx polarizability: 120.953   6.414 109.952   2.646   5.293 104.900

                      1                      2                      3
                      A                      A                      A
 Frequencies --    124.7826               192.7204               197.9374
 Red. masses --      4.9501                 1.1194                 2.7416
 Frc consts  --      0.0454                 0.0245                 0.0633
 IR Inten    --      4.8246                 0.0627                 0.5642

                      4                      5                      6
                      A                      A                      A
 Frequencies --    226.4472               298.9818               310.7016
 Red. masses --      3.0374                 1.5021                 2.0784
 Frc consts  --      0.0918                 0.0791                 0.1182
 IR Inten    --      1.0233                52.0330                50.3725

                      7                      8                      9
                      A                      A                      A
 Frequencies --    350.7681               454.3709               472.1441
 Red. masses --      3.4665                 3.8630                 2.6774
 Frc consts  --      0.2513                 0.4699                 0.3517
 IR Inten    --     16.5372                 1.8563                 0.0497

                     10                     11                     12
                      A                      A                      A
 Frequencies --    537.6811               593.6256               695.4559
 Red. masses --      5.1042                 4.2229                 3.1441
 Frc consts  --      0.8694                 0.8768                 0.8959
 IR Inten    --      8.7999                 6.5187                 1.3709

                     13                     14                     15
                      A                      A                      A
 Frequencies --    750.3003               809.5611               856.9528
 Red. masses --      3.6475                 2.9308                 2.0542
 Frc consts  --      1.2098                 1.1317                 0.8888
 IR Inten    --      3.8626                16.1033                 8.6402

                     16                     17                     18
                      A                      A                      A
 Frequencies --    874.4787               892.9089               917.6797
 Red. masses --      2.7092                 2.4895                 2.4378
 Frc consts  --      1.2206                 1.1694                 1.2096
 IR Inten    --      5.0254                 7.6496                 6.6526

                     19                     20                     21
                      A                      A                      A
 Frequencies --    984.1580              1001.3672              1037.2133
 Red. masses --      2.3936                 1.7967                 1.4753
 Frc consts  --      1.3659                 1.0615                 0.9351
 IR Inten    --     10.8262                20.3324                 4.7196

                     22                     23                     24
                      A                      A                      A
 Frequencies --   1044.0841              1078.3912              1093.8462
 Red. masses --      1.5157                 1.4878                 1.2567
 Frc consts  --      0.9735                 1.0194                 0.8859
 IR Inten    --     28.0281                 8.9159                 6.8088

                     25                     26                     27
                      A                      A                      A
 Frequencies --   1126.5954              1136.1033              1169.0071
 Red. masses --      2.9611                 1.8318                 2.1600
 Frc consts  --      2.2143                 1.3930                 1.7391
 IR Inten    --     33.1778                 7.1700                12.8126

                     28                     29                     30
                      A                      A                      A
 Frequencies --   1188.3854              1217.3831              1231.8663
 Red. masses --      1.5105                 1.5656                 2.0197
 Frc consts  --      1.2569                 1.3671                 1.8058
 IR Inten    --     45.8527                 7.7962                31.3766

                     31                     32                     33
                      A                      A                      A
 Frequencies --   1251.3303              1267.2861              1306.3295
 Red. masses --      1.5015                 1.6123                 1.5739
 Frc consts  --      1.3852                 1.5256                 1.5825
 IR Inten    --     15.4889                 4.3263                 7.4486

                     34                     35                     36
                      A                      A                      A
 Frequencies --   1318.0277              1351.9828              1407.1906
 Red. masses --      1.3582                 1.5700                 1.2246
 Frc consts  --      1.3901                 1.6908                 1.4287
 IR Inten    --     27.5314                11.1719                 4.1933

                     37                     38                     39
                      A                      A                      A
 Frequencies --   1435.1178              1496.6426              1498.7744
 Red. masses --      1.3484                 1.0743                 1.0489
 Frc consts  --      1.6363                 1.4177                 1.3882
 IR Inten    --      4.1499                 3.3226                 5.6107

                     40                     41                     42
                      A                      A                      A
 Frequencies --   1500.1923              1859.5365              3018.6293
 Red. masses --      1.0928                12.3648                 1.0841
 Frc consts  --      1.4491                25.1910                 5.8200
 IR Inten    --      4.3665               239.7451                46.6956

                     43                     44                     45
                      A                      A                      A
 Frequencies --   3025.2283              3041.9963              3071.2465
 Red. masses --      1.0826                 1.0357                 1.0633
 Frc consts  --      5.8373                 5.6468                 5.9092
 IR Inten    --      9.7516                30.7329                35.6321

                     46                     47                     48
                      A                      A                      A
 Frequencies --   3109.5656              3117.8687              3119.4403
 Red. masses --      1.1015                 1.1010                 1.0909
 Frc consts  --      6.2752                 6.3060                 6.2542
 IR Inten    --     23.2965                11.8039                34.2947

                     49                     50                     51
                      A                      A                      A
 Frequencies --   3135.9909              3161.8023              3818.1857
 Red. masses --      1.0912                 1.1022                 1.0663
 Frc consts  --      6.3230                 6.4921                 9.1587
 IR Inten    --     24.3818                 9.8918                32.7092

 - Thermochemistry -
 -------------------
 Temperature   298.150 Kelvin.  Pressure   1.00000 Atm.
 Atom     1 has atomic number  6 and mass  12.00000

 Molecular mass:   126.06808 amu.
 Principal axes and moments of inertia in atomic units:
                           1         2         3
     Eigenvalues --   692.215351221.862871443.34206
           X            0.99620  -0.08705   0.00109
           Y            0.08703   0.99551  -0.03727
           Z            0.00216   0.03722   0.99930
 This molecule is an asymmetric top.
 Rotational symmetry number  1.
 Warning -- assumption of classical behavior for rotation
           may cause significant error
 Rotational temperatures (Kelvin)      0.12513     0.07089     0.06001
 Rotational constants (GHZ):           2.60720     1.47704     1.25039
 Zero-point vibrational energy     419759.2 (Joules/Mol)
                                  100.32486 (Kcal/Mol)
 Warning -- explicit consideration of  11 degrees of freedom as
           vibrations may cause significant error
 Vibrational temperatures:    179.53   277.28   284.79   325.81   430.17
          (Kelvin)            447.03   504.68   653.74   679.31   773.60
                              854.09  1000.60  1079.51  1164.78  1232.96
                             1258.18  1284.70  1320.33  1415.98  1440.74
                             1492.32  1502.20  1551.56  1573.80  1620.92
                             1634.60  1681.94  1709.82  1751.54  1772.38
                             1800.38  1823.34  1879.51  1896.35  1945.20
                             2024.63  2064.81  2153.33  2156.40  2158.44
                             2675.45  4343.13  4352.62  4376.75  4418.83
                             4473.97  4485.91  4488.17  4511.99  4549.12
                             5493.51

 Zero-point correction=                           0.159878 (Hartree/Particle)
 Thermal correction to Energy=                    0.168013
 Thermal correction to Enthalpy=                  0.168957
 Thermal correction to Gibbs Free Energy=         0.127573
 Sum of electronic and zero-point Energies=           -423.031441
 Sum of electronic and thermal Energies=              -423.023306
 Sum of electronic and thermal Enthalpies=            -423.022362
 Sum of electronic and thermal Free Energies=         -423.063746

                     E (Thermal)             CV                S
                      KCal/Mol        Cal/Mol-Kelvin    Cal/Mol-Kelvin
 Total                  105.430             31.996             87.100
 Electronic               0.000              0.000              0.000
 Translational            0.889              2.981             40.409
 Rotational               0.889              2.981             28.592
 Vibrational            103.652             26.034             18.100
 Vibration     1          0.610              1.928              3.025
 Vibration     2          0.635              1.850              2.202
 Vibration     3          0.637              1.843              2.152
 Vibration     4          0.650              1.801              1.907
 Vibration     5          0.692              1.676              1.423
 Vibration     6          0.700              1.653              1.359
 Vibration     7          0.728              1.574              1.163
 Vibration     8          0.813              1.351              0.783
 Vibration     9          0.829              1.312              0.732
 Vibration    10          0.893              1.167              0.570
 Vibration    11          0.951              1.045              0.461

 Normal termination of Gaussian 09 at Mon Jan 27 23:52:39 2020.
