 Gaussian 09, Revision D.01,
 Gaussian 09:  ES64L-G09RevD.01 24-Apr-2013

 -----------------------------
 # b3lyp 6-31G(2df,p) opt Freq
 -----------------------------

 -----
 titel
 -----
 Symbolic Z-matrix:
 Charge =  0 Multiplicity = 1

 SCF Done:  E(RB3LYP) =  -423.141565146     A.U. after   14 cycles
 Optimization completed.
    -- Stationary point found.
 Normal termination of Gaussian 09 at Mon Jan 27 13:59:40 2020.

 ----------------------------------------------------------------------
 #N Geom=AllCheck Guess=TCheck SCRF=Check GenChk RB3LYP/6-31G(2df,p) Fr
 eq
 ----------------------------------------------------------------------

 Structure from the checkpoint file:  "/scratch/puck/g09_0b82e02c-b1d0-48cb-8a55-f717b10a2f3e/Gau-3921.chk"
 -----
 titel
 -----
 Charge =  0 Multiplicity = 1

                         Standard orientation:
 ---------------------------------------------------------------------
 Center     Atomic      Atomic             Coordinates (Angstroms)
 Number     Number       Type             X           Y           Z
 ---------------------------------------------------------------------
      1          8           0       -4.161890    0.010423   -0.283935
      2          6           0       -3.141872   -0.080508    0.348278
      3          6           0       -1.794098   -0.458140   -0.221349
      4          6           0       -0.727950    0.617411    0.066199
      5          6           0        0.653982    0.201656   -0.393607
      6          6           0        1.834664    0.898885    0.258778
      7          6           0        3.130109    0.344062   -0.322851
      8          8           0        2.709174   -1.024667   -0.059346
      9          6           0        1.522644   -0.546226    0.574142
     10          1           0       -3.130259    0.125145    1.445946
     11          1           0       -1.484064   -1.401029    0.251222
     12          1           0       -1.903997   -0.636439   -1.294791
     13          1           0       -1.016492    1.554839   -0.425331
     14          1           0       -0.705446    0.831854    1.143469
     15          1           0        0.734875   -0.075613   -1.444119
     16          1           0        1.731870    1.793570    0.858467
     17          1           0        3.330338    0.521141   -1.386278
     18          1           0        4.019159    0.589259    0.268771
     19          1           0        1.180868   -1.051612    1.471356
 ---------------------------------------------------------------------

 SCF Done:  E(RB3LYP) =  -423.141565146     A.U. after    1 cycles

 The electronic state is 1-A.
 Alpha  occ. eigenvalues --  -19.14202 -19.14161 -10.27376 -10.24528 -10.24070
 Alpha  occ. eigenvalues --  -10.20790 -10.20370 -10.20273 -10.19947  -1.05583
 Alpha  occ. eigenvalues --   -1.04837  -0.85345  -0.78855  -0.70780  -0.67404
 Alpha  occ. eigenvalues --   -0.58924  -0.57854  -0.55676  -0.51362  -0.49760
 Alpha  occ. eigenvalues --   -0.48103  -0.46382  -0.43592  -0.43420  -0.41574
 Alpha  occ. eigenvalues --   -0.40739  -0.37423  -0.36707  -0.36262  -0.34164
 Alpha  occ. eigenvalues --   -0.32696  -0.27911  -0.25220  -0.23889
 Alpha virt. eigenvalues --   -0.02373   0.07279   0.08992   0.09942   0.11172
 Alpha virt. eigenvalues --    0.12122   0.12291   0.13135   0.14664   0.15477
 Alpha virt. eigenvalues --    0.15789   0.17247   0.18189   0.20563   0.20873

 Mulliken charges:
               1
     1  O   -0.234070
     2  C    0.158881
     3  C   -0.269383
     4  C   -0.243072
     5  C   -0.030448
     6  C   -0.154085
     7  C   -0.096306
     8  O   -0.288342
     9  C    0.103148
    10  H    0.068190
    11  H    0.123323
    12  H    0.125189
    13  H    0.118771
    14  H    0.102002
    15  H    0.091948
    16  H    0.100916
    17  H    0.107774
    18  H    0.112444
    19  H    0.103122
 Sum of Mulliken charges =   0.00000

 Dipole moment (field-independent basis, Debye):
    X=              1.9133    Y=              1.2880    Z=              1.2320  Tot=              2.6149
 Quadrupole moment (field-independent basis, Debye-Ang):
   XX=            -70.2524   YY=            -53.8052   ZZ=            -51.1532
   XY=              5.7700   XZ=             -3.3794   YZ=             -0.5900

  Exact polarizability: 101.581   1.441  62.791   0.319   0.039  67.528
 Approx polarizability: 126.229  -0.344 100.721   5.889  -1.450 105.156

                      1                      2                      3
                      A                      A                      A
 Frequencies --     48.9318                58.3932                92.8006
 Red. masses --      5.2424                 3.5872                 2.5582
 Frc consts  --      0.0074                 0.0072                 0.0130
 IR Inten    --      5.1784                 4.9688                 1.0547

                      4                      5                      6
                      A                      A                      A
 Frequencies --    116.4338               249.0650               279.2037
 Red. masses --      3.5860                 2.4960                 2.8062
 Frc consts  --      0.0286                 0.0912                 0.1289
 IR Inten    --      0.6717                 0.1963                 2.2457

                      7                      8                      9
                      A                      A                      A
 Frequencies --    330.2942               346.8816               513.7715
 Red. masses --      3.6588                 2.6270                 2.8036
 Frc consts  --      0.2352                 0.1862                 0.4360
 IR Inten    --      2.1691                 3.7436                 8.9827

                     10                     11                     12
                      A                      A                      A
 Frequencies --    529.6734               747.5107               759.1422
 Red. masses --      3.0149                 1.5753                 2.6345
 Frc consts  --      0.4984                 0.5186                 0.8945
 IR Inten    --      8.7963                 4.2097                10.6286

                     13                     14                     15
                      A                      A                      A
 Frequencies --    806.1074               826.7085               906.9623
 Red. masses --      1.5077                 1.6015                 1.9380
 Frc consts  --      0.5772                 0.6449                 0.9393
 IR Inten    --      6.5584                 1.4799                 7.9949

                     16                     17                     18
                      A                      A                      A
 Frequencies --    924.8071               950.4409               989.0140
 Red. masses --      2.6640                 3.7290                 2.2366
 Frc consts  --      1.3424                 1.9847                 1.2890
 IR Inten    --      8.0004                18.3727                52.9688

                     19                     20                     21
                      A                      A                      A
 Frequencies --    996.6371              1000.7387              1041.4662
 Red. masses --      2.3474                 1.7690                 1.7996
 Frc consts  --      1.3738                 1.0438                 1.1500
 IR Inten    --     34.2048                 6.4354                 3.1691

                     22                     23                     24
                      A                      A                      A
 Frequencies --   1052.1429              1076.0033              1098.5879
 Red. masses --      2.0576                 2.5419                 2.1598
 Frc consts  --      1.3420                 1.7340                 1.5358
 IR Inten    --     24.6533                 1.4134                 3.9856

                     25                     26                     27
                      A                      A                      A
 Frequencies --   1114.7336              1135.7738              1158.6334
 Red. masses --      1.6786                 2.1739                 1.1878
 Frc consts  --      1.2290                 1.6523                 0.9395
 IR Inten    --      2.1802                19.3150                 2.6998

                     28                     29                     30
                      A                      A                      A
 Frequencies --   1181.0819              1224.7406              1247.0514
 Red. masses --      1.6453                 1.7636                 1.4161
 Frc consts  --      1.3522                 1.5586                 1.2975
 IR Inten    --     16.4948                 3.5692                 4.0170

                     31                     32                     33
                      A                      A                      A
 Frequencies --   1258.1114              1289.4782              1311.6774
 Red. masses --      1.3128                 1.4369                 1.1981
 Frc consts  --      1.2243                 1.4077                 1.2145
 IR Inten    --      1.5636                 5.6819                 2.4448

                     34                     35                     36
                      A                      A                      A
 Frequencies --   1344.2621              1372.6243              1427.4573
 Red. masses --      1.4109                 1.5018                 1.4476
 Frc consts  --      1.5021                 1.6671                 1.7379
 IR Inten    --     12.3785                 4.4935                11.7490

                     37                     38                     39
                      A                      A                      A
 Frequencies --   1436.4128              1463.7356              1494.3547
 Red. masses --      1.7965                 1.0861                 1.0909
 Frc consts  --      2.1840                 1.3711                 1.4353
 IR Inten    --      2.4650                 2.3881                 4.3451

                     40                     41                     42
                      A                      A                      A
 Frequencies --   1514.4227              1838.0438              2842.3040
 Red. masses --      1.1055                10.1394                 1.0812
 Frc consts  --      1.4938                20.1825                 5.1465
 IR Inten    --      1.1914               198.4742               112.7249

                     43                     44                     45
                      A                      A                      A
 Frequencies --   3012.9423              3019.2593              3023.9671
 Red. masses --      1.0599                 1.0661                 1.0547
 Frc consts  --      5.6691                 5.7260                 5.6826
 IR Inten    --     11.0081                17.4785                79.6937

                     46                     47                     48
                      A                      A                      A
 Frequencies --   3052.4685              3073.8089              3101.9785
 Red. masses --      1.0983                 1.1115                 1.0971
 Frc consts  --      6.0296                 6.1877                 6.2197
 IR Inten    --     19.0426                35.1780                10.0997

                     49                     50                     51
                      A                      A                      A
 Frequencies --   3113.6348              3166.1796              3199.7810
 Red. masses --      1.0888                 1.0912                 1.0958
 Frc consts  --      6.2193                 6.4451                 6.6102
 IR Inten    --     22.8100                19.6858                 9.1596

 - Thermochemistry -
 -------------------
 Temperature   298.150 Kelvin.  Pressure   1.00000 Atm.
 Atom     1 has atomic number  8 and mass  15.99491

 Molecular mass:   126.06808 amu.
 Principal axes and moments of inertia in atomic units:
                           1         2         3
     Eigenvalues --   261.596862936.207273028.74055
           X            0.99995   0.00894  -0.00517
           Y           -0.00885   0.99981   0.01765
           Z            0.00533  -0.01760   0.99983
 This molecule is an asymmetric top.
 Rotational symmetry number  1.
 Rotational temperatures (Kelvin)      0.33110     0.02950     0.02860
 Rotational constants (GHZ):           6.89894     0.61465     0.59587
 Zero-point vibrational energy     413672.5 (Joules/Mol)
                                   98.87009 (Kcal/Mol)
 Warning -- explicit consideration of  10 degrees of freedom as
           vibrations may cause significant error
 Vibrational temperatures:     70.40    84.01   133.52   167.52   358.35
          (Kelvin)            401.71   475.22   499.08   739.20   762.08
                             1075.50  1092.23  1159.81  1189.45  1304.91
                             1330.59  1367.47  1422.97  1433.94  1439.84
                             1498.44  1513.80  1548.13  1580.62  1603.85
                             1634.12  1667.01  1699.31  1762.13  1794.23
                             1810.14  1855.27  1887.21  1934.09  1974.90
                             2053.79  2066.68  2105.99  2150.04  2178.91
                             2644.53  4089.44  4334.95  4344.04  4350.81
                             4391.82  4422.52  4463.05  4479.82  4555.42
                             4603.77

 Zero-point correction=                           0.157560 (Hartree/Particle)
 Thermal correction to Energy=                    0.166500
 Thermal correction to Enthalpy=                  0.167444
 Thermal correction to Gibbs Free Energy=         0.122301
 Sum of electronic and zero-point Energies=           -422.984006
 Sum of electronic and thermal Energies=              -422.975065
 Sum of electronic and thermal Enthalpies=            -422.974121
 Sum of electronic and thermal Free Energies=         -423.019264

                     E (Thermal)             CV                S
                      KCal/Mol        Cal/Mol-Kelvin    Cal/Mol-Kelvin
 Total                  104.481             31.860             95.012
 Electronic               0.000              0.000              0.000
 Translational            0.889              2.981             40.409
 Rotational               0.889              2.981             29.233
 Vibrational            102.703             25.898             25.371
 Vibration     1          0.595              1.978              4.860
 Vibration     2          0.596              1.974              4.511
 Vibration     3          0.602              1.954              3.600
 Vibration     4          0.608              1.936              3.159
 Vibration     5          0.662              1.764              1.737
 Vibration     6          0.680              1.712              1.539
 Vibration     7          0.713              1.615              1.259
 Vibration     8          0.725              1.582              1.180
 Vibration     9          0.869              1.219              0.625
 Vibration    10          0.885              1.184              0.588

 Optimization completed.
    -- Stationary point found.
 Normal termination of Gaussian 09 at Mon Jan 27 15:31:50 2020.
