 Gaussian 09, Revision D.01,
 Gaussian 09:  ES64L-G09RevD.01 24-Apr-2013

 -----------------------------
 # b3lyp 6-31G(2df,p) opt Freq
 -----------------------------

 -----
 titel
 -----
 Symbolic Z-matrix:
 Charge =  0 Multiplicity = 1

 SCF Done:  E(RB3LYP) =  -423.202283020     A.U. after   14 cycles
 Optimization completed.
    -- Stationary point found.
 Normal termination of Gaussian 09 at Mon Jan 27 13:02:36 2020.

 ----------------------------------------------------------------------
 #N Geom=AllCheck Guess=TCheck SCRF=Check GenChk RB3LYP/6-31G(2df,p) Fr
 eq
 ----------------------------------------------------------------------

 Structure from the checkpoint file:  "/scratch/puck/g09_1938bac1-1a3d-4b5a-8489-c54da4977f40/Gau-27689.chk"
 -----
 titel
 -----
 Charge =  0 Multiplicity = 1

                         Standard orientation:
 ---------------------------------------------------------------------
 Center     Atomic      Atomic             Coordinates (Angstroms)
 Number     Number       Type             X           Y           Z
 ---------------------------------------------------------------------
      1          8           0        1.667684    1.742458    0.328765
      2          6           0        1.399811    0.589085    0.164884
      3          6           0        2.222887   -0.704756    0.017778
      4          6           0        0.948567   -1.380536   -0.567136
      5          6           0        0.070630   -0.172693   -0.102935
      6          6           0       -0.796700   -0.372263    1.162268
      7          6           0       -2.220917   -0.401315    0.585266
      8          6           0       -2.087909    0.584806   -0.574330
      9          8           0       -0.773943    0.373041   -1.093190
     10          1           0        3.102595   -0.635156   -0.625718
     11          1           0        2.534799   -1.099530    0.990244
     12          1           0        0.970616   -1.432428   -1.657315
     13          1           0        0.677549   -2.357120   -0.162005
     14          1           0       -0.527556   -1.271950    1.719620
     15          1           0       -0.679843    0.488585    1.829382
     16          1           0       -2.465903   -1.399634    0.208345
     17          1           0       -2.983701   -0.110506    1.311364
     18          1           0       -2.801234    0.416974   -1.386304
     19          1           0       -2.195472    1.622805   -0.226984
 ---------------------------------------------------------------------

 SCF Done:  E(RB3LYP) =  -423.202283020     A.U. after    1 cycles

 The electronic state is 1-A.
 Alpha  occ. eigenvalues --  -19.14397 -19.13656 -10.26227 -10.24034 -10.23116
 Alpha  occ. eigenvalues --  -10.19749 -10.19435 -10.19191 -10.18909  -1.05005
 Alpha  occ. eigenvalues --   -1.03590  -0.84007  -0.78908  -0.71938  -0.63674
 Alpha  occ. eigenvalues --   -0.61133  -0.60554  -0.52093  -0.50365  -0.47480
 Alpha  occ. eigenvalues --   -0.46835  -0.45669  -0.43735  -0.42358  -0.38938
 Alpha  occ. eigenvalues --   -0.38550  -0.37606  -0.36198  -0.34913  -0.34272
 Alpha  occ. eigenvalues --   -0.33481  -0.31734  -0.27212  -0.22613
 Alpha virt. eigenvalues --   -0.02300   0.08013   0.09992   0.10827   0.12686
 Alpha virt. eigenvalues --    0.13369   0.14280   0.15035   0.16273   0.16571
 Alpha virt. eigenvalues --    0.18011   0.18274   0.19652   0.20244   0.21651

 Mulliken charges:
               1
     1  O   -0.298915
     2  C    0.339473
     3  C   -0.347472
     4  C   -0.300472
     5  C    0.349658
     6  C   -0.297889
     7  C   -0.225842
     8  C   -0.075189
     9  O   -0.301169
    10  H    0.133932
    11  H    0.130279
    12  H    0.123494
    13  H    0.101995
    14  H    0.110226
    15  H    0.123869
    16  H    0.111448
    17  H    0.108144
    18  H    0.109972
    19  H    0.104458
 Sum of Mulliken charges =   0.00000

 Dipole moment (field-independent basis, Debye):
    X=             -1.5183    Y=             -2.7695    Z=              0.9500  Tot=              3.2981
 Quadrupole moment (field-independent basis, Debye-Ang):
   XX=            -49.9784   YY=            -57.1718   ZZ=            -53.0963
   XY=             -4.9502   XZ=             -1.4360   YZ=             -0.5118

  Exact polarizability:  89.256  -2.794  74.150   0.345   1.122  64.820
 Approx polarizability: 113.043  -0.110 116.630   1.767   2.452  98.738

                      1                      2                      3
                      A                      A                      A
 Frequencies --     46.1013                76.8948               154.9047
 Red. masses --      3.2826                 2.5801                 3.5819
 Frc consts  --      0.0041                 0.0090                 0.0506
 IR Inten    --      2.5573                 2.2889                 0.8216

                      4                      5                      6
                      A                      A                      A
 Frequencies --    238.3835               266.2547               334.7570
 Red. masses --      1.9776                 8.0239                 2.0550
 Frc consts  --      0.0662                 0.3351                 0.1357
 IR Inten    --      1.1208                 3.0404                 0.6835

                      7                      8                      9
                      A                      A                      A
 Frequencies --    420.4316               510.6438               584.8060
 Red. masses --      3.3986                 2.0947                 3.6325
 Frc consts  --      0.3539                 0.3218                 0.7319
 IR Inten    --      0.0963                 1.0284                 5.9923

                     10                     11                     12
                      A                      A                      A
 Frequencies --    599.9614               695.5081               746.1583
 Red. masses --      2.0532                 3.3779                 1.9896
 Frc consts  --      0.4354                 0.9627                 0.6526
 IR Inten    --      2.6658                 2.3000                 6.4270

                     13                     14                     15
                      A                      A                      A
 Frequencies --    757.8203               844.1707               888.7639
 Red. masses --      2.1302                 2.6071                 1.6979
 Frc consts  --      0.7208                 1.0946                 0.7902
 IR Inten    --      2.2659                11.8580                 2.2905

                     16                     17                     18
                      A                      A                      A
 Frequencies --    900.9253               923.8148               932.6151
 Red. masses --      2.1049                 2.6334                 2.8401
 Frc consts  --      1.0066                 1.3242                 1.4554
 IR Inten    --      3.2385                17.0532                 0.7657

                     19                     20                     21
                      A                      A                      A
 Frequencies --    957.8427              1008.3839              1018.8631
 Red. masses --      2.1215                 1.8529                 2.3602
 Frc consts  --      1.1468                 1.1101                 1.4435
 IR Inten    --      4.5766                13.2349                 4.3878

                     22                     23                     24
                      A                      A                      A
 Frequencies --   1037.5468              1061.6430              1132.6996
 Red. masses --      2.2169                 2.5335                 2.4592
 Frc consts  --      1.4061                 1.6824                 1.8590
 IR Inten    --     45.4930               118.0868                25.8904

                     25                     26                     27
                      A                      A                      A
 Frequencies --   1157.9658              1163.9149              1198.0354
 Red. masses --      2.1263                 2.5294                 1.5078
 Frc consts  --      1.6798                 2.0189                 1.2751
 IR Inten    --     35.8001                17.4730                 4.0483

                     28                     29                     30
                      A                      A                      A
 Frequencies --   1209.3167              1217.7177              1230.5751
 Red. masses --      1.4635                 1.5026                 1.2850
 Frc consts  --      1.2610                 1.3128                 1.1464
 IR Inten    --      2.6425                14.3138                 1.5434

                     31                     32                     33
                      A                      A                      A
 Frequencies --   1263.9825              1283.3164              1320.9893
 Red. masses --      1.2676                 2.1471                 1.4221
 Frc consts  --      1.1932                 2.0833                 1.4621
 IR Inten    --      5.8847                 7.3172                 0.3517

                     34                     35                     36
                      A                      A                      A
 Frequencies --   1337.7783              1389.4342              1440.5895
 Red. masses --      1.2989                 1.3543                 1.0920
 Frc consts  --      1.3696                 1.5404                 1.3352
 IR Inten    --      0.9692                 3.5001                 9.2033

                     37                     38                     39
                      A                      A                      A
 Frequencies --   1478.6844              1487.5279              1496.0748
 Red. masses --      1.0959                 1.0952                 1.1007
 Frc consts  --      1.4118                 1.4278                 1.4515
 IR Inten    --      4.8118                 1.9839                 2.6971

                     40                     41                     42
                      A                      A                      A
 Frequencies --   1525.5908              1892.1122              2999.4516
 Red. masses --      1.0977                12.8194                 1.0695
 Frc consts  --      1.5052                27.0403                 5.6690
 IR Inten    --      1.2313               221.8480                61.7350

                     43                     44                     45
                      A                      A                      A
 Frequencies --   3049.0209              3054.2820              3059.4429
 Red. masses --      1.0657                 1.0614                 1.0610
 Frc consts  --      5.8370                 5.8340                 5.8511
 IR Inten    --     13.7499                16.7265                10.1801

                     46                     47                     48
                      A                      A                      A
 Frequencies --   3077.5481              3086.1941              3106.8031
 Red. masses --      1.0590                 1.0940                 1.0990
 Frc consts  --      5.9098                 6.1390                 6.2497
 IR Inten    --     14.8924                41.3255                11.3315

                     49                     50                     51
                      A                      A                      A
 Frequencies --   3116.0145              3116.8143              3138.1761
 Red. masses --      1.1047                 1.1042                 1.1081
 Frc consts  --      6.3195                 6.3201                 6.4295
 IR Inten    --     12.7362                22.5932                18.2669

 - Thermochemistry -
 -------------------
 Temperature   298.150 Kelvin.  Pressure   1.00000 Atm.
 Atom     1 has atomic number  8 and mass  15.99491

 Molecular mass:   126.06808 amu.
 Principal axes and moments of inertia in atomic units:
                           1         2         3
     Eigenvalues --   610.302421345.998801501.69638
           X            0.99913  -0.03947  -0.01312
           Y            0.03930   0.99914  -0.01344
           Z            0.01364   0.01291   0.99982
 This molecule is an asymmetric top.
 Rotational symmetry number  1.
 Warning -- assumption of classical behavior for rotation
           may cause significant error
 Rotational temperatures (Kelvin)      0.14192     0.06435     0.05768
 Rotational constants (GHZ):           2.95713     1.34082     1.20180
 Zero-point vibrational energy     418915.8 (Joules/Mol)
                                  100.12327 (Kcal/Mol)
 Warning -- explicit consideration of  10 degrees of freedom as
           vibrations may cause significant error
 Vibrational temperatures:     66.33   110.63   222.87   342.98   383.08
          (Kelvin)            481.64   604.91   734.70   841.40   863.21
                             1000.68  1073.55  1090.33  1214.57  1278.73
                             1296.23  1329.16  1341.82  1378.12  1450.84
                             1465.91  1492.80  1527.47  1629.70  1666.05
                             1674.61  1723.70  1739.93  1752.02  1770.52
                             1818.59  1846.40  1900.61  1924.76  1999.08
                             2072.68  2127.49  2140.22  2152.52  2194.98
                             2722.32  4315.54  4386.86  4394.43  4401.85
                             4427.90  4440.34  4469.99  4483.24  4484.39
                             4515.13

 Zero-point correction=                           0.159557 (Hartree/Particle)
 Thermal correction to Energy=                    0.167781
 Thermal correction to Enthalpy=                  0.168725
 Thermal correction to Gibbs Free Energy=         0.125890
 Sum of electronic and zero-point Energies=           -423.042726
 Sum of electronic and thermal Energies=              -423.034502
 Sum of electronic and thermal Enthalpies=            -423.033558
 Sum of electronic and thermal Free Energies=         -423.076393

                     E (Thermal)             CV                S
                      KCal/Mol        Cal/Mol-Kelvin    Cal/Mol-Kelvin
 Total                  105.284             30.919             90.153
 Electronic               0.000              0.000              0.000
 Translational            0.889              2.981             40.409
 Rotational               0.889              2.981             28.602
 Vibrational            103.507             24.957             21.142
 Vibration     1          0.595              1.979              4.978
 Vibration     2          0.599              1.965              3.969
 Vibration     3          0.620              1.897              2.611
 Vibration     4          0.656              1.782              1.815
 Vibration     5          0.672              1.735              1.620
 Vibration     6          0.716              1.606              1.237
 Vibration     7          0.783              1.426              0.891
 Vibration     8          0.866              1.226              0.632
 Vibration     9          0.942              1.064              0.477
 Vibration    10          0.958              1.032              0.450

 Optimization completed.
    -- Stationary point found.
 Normal termination of Gaussian 09 at Mon Jan 27 13:49:25 2020.
