 Gaussian 09, Revision D.01,
 Gaussian 09:  ES64L-G09RevD.01 24-Apr-2013

 -----------------------------
 # b3lyp 6-31G(2df,p) opt Freq
 -----------------------------

 -----
 titel
 -----
 Symbolic Z-matrix:
 Charge =  0 Multiplicity = 1

 SCF Done:  E(RB3LYP) =  -423.192582785     A.U. after   14 cycles
 Optimization completed.
    -- Stationary point found.
 Normal termination of Gaussian 09 at Mon Jan 27 12:46:21 2020.

 ----------------------------------------------------------------------
 #N Geom=AllCheck Guess=TCheck SCRF=Check GenChk RB3LYP/6-31G(2df,p) Fr
 eq
 ----------------------------------------------------------------------

 Structure from the checkpoint file:  "/scratch/puck/g09_606827d7-9e4a-4d22-8c2c-f489dd55fd38/Gau-73834.chk"
 -----
 titel
 -----
 Charge =  0 Multiplicity = 1

                         Standard orientation:
 ---------------------------------------------------------------------
 Center     Atomic      Atomic             Coordinates (Angstroms)
 Number     Number       Type             X           Y           Z
 ---------------------------------------------------------------------
      1          6           0       -1.601495   -1.118145    0.256574
      2          8           0       -2.463252   -0.024210   -0.049398
      3          6           0       -1.696939    1.181009   -0.050040
      4          6           0       -0.252586    0.745605   -0.133696
      5          6           0        0.864049    1.414637    0.124813
      6          6           0        2.202307    0.720865    0.115302
      7          8           0        2.148179   -0.633432   -0.292498
      8          6           0        1.023111   -1.341741    0.208749
      9          6           0       -0.253892   -0.746473   -0.375914
     10          1           0       -1.496051   -1.245073    1.347589
     11          1           0       -2.058211   -2.021907   -0.154854
     12          1           0       -2.017945    1.782878   -0.909630
     13          1           0       -1.889370    1.768148    0.860667
     14          1           0        0.860634    2.466924    0.399246
     15          1           0        2.895321    1.214154   -0.577435
     16          1           0        2.652218    0.802297    1.122462
     17          1           0        1.171915   -2.384352   -0.085594
     18          1           0        0.988405   -1.295852    1.310022
     19          1           0       -0.293668   -0.960630   -1.452034
 ---------------------------------------------------------------------

 SCF Done:  E(RB3LYP) =  -423.192582785     A.U. after    1 cycles

 The electronic state is 1-A.
 Alpha  occ. eigenvalues --  -19.14050 -19.13643 -10.23389 -10.23116 -10.23065
 Alpha  occ. eigenvalues --  -10.22953 -10.19092 -10.19057 -10.18459  -1.03631
 Alpha  occ. eigenvalues --   -1.03144  -0.81416  -0.77585  -0.72765  -0.66126
 Alpha  occ. eigenvalues --   -0.63041  -0.59784  -0.53085  -0.50736  -0.48446
 Alpha  occ. eigenvalues --   -0.47404  -0.46236  -0.44663  -0.43051  -0.40940
 Alpha  occ. eigenvalues --   -0.39122  -0.38330  -0.37764  -0.35011  -0.31429
 Alpha  occ. eigenvalues --   -0.30512  -0.26277  -0.25056  -0.24053
 Alpha virt. eigenvalues --    0.01141   0.09594   0.10313   0.11644   0.12516
 Alpha virt. eigenvalues --    0.12995   0.13474   0.15591   0.16388   0.16898
 Alpha virt. eigenvalues --    0.17064   0.18396   0.19051   0.19732   0.21864

 Mulliken charges:
               1
     1  C   -0.102377
     2  O   -0.260913
     3  C   -0.162241
     4  C    0.307018
     5  C   -0.242141
     6  C   -0.106316
     7  O   -0.251397
     8  C   -0.112449
     9  C   -0.093296
    10  H    0.088241
    11  H    0.110943
    12  H    0.117161
    13  H    0.105645
    14  H    0.090179
    15  H    0.119934
    16  H    0.098108
    17  H    0.109275
    18  H    0.088285
    19  H    0.096340
 Sum of Mulliken charges =   0.00000

 Dipole moment (field-independent basis, Debye):
    X=              0.5061    Y=              0.5306    Z=              0.7047  Tot=              1.0170
 Quadrupole moment (field-independent basis, Debye-Ang):
   XX=            -60.9672   YY=            -48.2666   ZZ=            -53.0076
   XY=              2.4825   XZ=              1.3124   YZ=             -0.0648

  Exact polarizability:  90.073   6.421  82.679   3.154   1.702  59.501
 Approx polarizability: 127.045  12.620 117.309   6.150   4.947  93.976

                      1                      2                      3
                      A                      A                      A
 Frequencies --    102.8488               170.4231               230.1389
 Red. masses --      2.5591                 3.7059                 2.2869
 Frc consts  --      0.0159                 0.0634                 0.0714
 IR Inten    --      1.1169                 7.2176                 2.1212

                      4                      5                      6
                      A                      A                      A
 Frequencies --    284.6618               327.3837               345.0768
 Red. masses --      2.1629                 2.2137                 3.6801
 Frc consts  --      0.1033                 0.1398                 0.2582
 IR Inten    --      5.7113                 1.9771                 1.9676

                      7                      8                      9
                      A                      A                      A
 Frequencies --    455.1054               534.5081               591.4779
 Red. masses --      6.8210                 4.2230                 2.8949
 Frc consts  --      0.8324                 0.7109                 0.5967
 IR Inten    --      0.8987                 0.4011                 0.9418

                     10                     11                     12
                      A                      A                      A
 Frequencies --    663.9869               755.8889               794.2918
 Red. masses --      3.8168                 3.9193                 3.0808
 Frc consts  --      0.9914                 1.3194                 1.1452
 IR Inten    --     13.0495                 6.2913                 4.2726

                     13                     14                     15
                      A                      A                      A
 Frequencies --    819.7980               900.1214               941.6844
 Red. masses --      1.2596                 3.1851                 3.6939
 Frc consts  --      0.4987                 1.5204                 1.9300
 IR Inten    --      8.0784                11.9834                28.6555

                     16                     17                     18
                      A                      A                      A
 Frequencies --    963.4198               985.1218              1023.9314
 Red. masses --      1.5227                 2.9728                 1.5070
 Frc consts  --      0.8327                 1.6998                 0.9309
 IR Inten    --      1.2473                10.8207                 2.0354

                     19                     20                     21
                      A                      A                      A
 Frequencies --   1026.2944              1065.8424              1079.3795
 Red. masses --      1.8349                 2.6442                 3.4320
 Frc consts  --      1.1387                 1.7698                 2.3558
 IR Inten    --      9.4001                14.2712                 7.3087

                     22                     23                     24
                      A                      A                      A
 Frequencies --   1093.1332              1118.3388              1150.2586
 Red. masses --      5.0620                 2.8045                 3.9686
 Frc consts  --      3.5638                 2.0666                 3.0937
 IR Inten    --     80.7310                 7.0772                36.4334

                     25                     26                     27
                      A                      A                      A
 Frequencies --   1181.7048              1210.8953              1233.0665
 Red. masses --      2.6479                 1.1398                 1.2727
 Frc consts  --      2.1785                 0.9847                 1.1401
 IR Inten    --     42.1274                 3.1988                 2.9979

                     28                     29                     30
                      A                      A                      A
 Frequencies --   1242.4504              1286.4033              1295.2285
 Red. masses --      1.1734                 1.2798                 1.2643
 Frc consts  --      1.0672                 1.2478                 1.2496
 IR Inten    --     13.8705                 2.6841                 0.6642

                     31                     32                     33
                      A                      A                      A
 Frequencies --   1316.7718              1341.4922              1353.2053
 Red. masses --      1.3523                 1.4060                 1.3136
 Frc consts  --      1.3815                 1.4908                 1.4172
 IR Inten    --      4.4522                 1.7318                 6.3464

                     34                     35                     36
                      A                      A                      A
 Frequencies --   1375.4273              1406.8724              1419.0434
 Red. masses --      1.3083                 1.5988                 1.3538
 Frc consts  --      1.4582                 1.8644                 1.6062
 IR Inten    --      1.4211                26.5894                 4.4989

                     37                     38                     39
                      A                      A                      A
 Frequencies --   1488.6742              1499.5013              1506.4520
 Red. masses --      1.0834                 1.0930                 1.0830
 Frc consts  --      1.4146                 1.4480                 1.4481
 IR Inten    --      0.7348                 2.2160                 0.4477

                     40                     41                     42
                      A                      A                      A
 Frequencies --   1519.8495              1764.5304              2932.0942
 Red. masses --      1.0936                 8.4082                 1.0731
 Frc consts  --      1.4884                15.4245                 5.4357
 IR Inten    --      1.5398                 0.4219                67.4449

                     43                     44                     45
                      A                      A                      A
 Frequencies --   2957.5637              2970.0333              2988.2256
 Red. masses --      1.0709                 1.0703                 1.0667
 Frc consts  --      5.5190                 5.5625                 5.6120
 IR Inten    --     27.4149                81.9413                54.5511

                     46                     47                     48
                      A                      A                      A
 Frequencies --   3021.3683              3034.3022              3042.4600
 Red. masses --      1.0816                 1.0962                 1.0863
 Frc consts  --      5.8171                 5.9463                 5.9247
 IR Inten    --     25.1580                36.0976                31.6674

                     49                     50                     51
                      A                      A                      A
 Frequencies --   3086.7917              3094.3236              3155.6961
 Red. masses --      1.0934                 1.0928                 1.0908
 Frc consts  --      6.1383                 6.1650                 6.3999
 IR Inten    --     20.6279                54.3981                15.2146

 - Thermochemistry -
 -------------------
 Temperature   298.150 Kelvin.  Pressure   1.00000 Atm.
 Atom     1 has atomic number  6 and mass  12.00000

 Molecular mass:   126.06808 amu.
 Principal axes and moments of inertia in atomic units:
                           1         2         3
     Eigenvalues --   521.471541301.659151722.90651
           X            0.99989   0.01389   0.00526
           Y           -0.01388   0.99990  -0.00303
           Z           -0.00530   0.00296   0.99998
 This molecule is an asymmetric top.
 Rotational symmetry number  1.
 Warning -- assumption of classical behavior for rotation
           may cause significant error
 Rotational temperatures (Kelvin)      0.16609     0.06654     0.05027
 Rotational constants (GHZ):           3.46086     1.38649     1.04750
 Zero-point vibrational energy     425556.8 (Joules/Mol)
                                  101.71052 (Kcal/Mol)
 Warning -- explicit consideration of   9 degrees of freedom as
           vibrations may cause significant error
 Vibrational temperatures:    147.98   245.20   331.12   409.56   471.03
          (Kelvin)            496.49   654.79   769.04   851.00   955.33
                             1087.55  1142.81  1179.50  1295.07  1354.87
                             1386.14  1417.37  1473.21  1476.61  1533.51
                             1552.98  1572.77  1609.04  1654.96  1700.21
                             1742.21  1774.11  1787.61  1850.85  1863.54
                             1894.54  1930.11  1946.96  1978.93  2024.17
                             2041.68  2141.87  2157.45  2167.45  2186.72
                             2538.76  4218.62  4255.27  4273.21  4299.38
                             4347.07  4365.68  4377.42  4441.20  4452.04
                             4540.34

 Zero-point correction=                           0.162086 (Hartree/Particle)
 Thermal correction to Energy=                    0.169493
 Thermal correction to Enthalpy=                  0.170438
 Thermal correction to Gibbs Free Energy=         0.130151
 Sum of electronic and zero-point Energies=           -423.030497
 Sum of electronic and thermal Energies=              -423.023089
 Sum of electronic and thermal Enthalpies=            -423.022145
 Sum of electronic and thermal Free Energies=         -423.062432

                     E (Thermal)             CV                S
                      KCal/Mol        Cal/Mol-Kelvin    Cal/Mol-Kelvin
 Total                  106.359             28.947             84.790
 Electronic               0.000              0.000              0.000
 Translational            0.889              2.981             40.409
 Rotational               0.889              2.981             28.549
 Vibrational            104.581             22.986             15.832
 Vibration     1          0.605              1.947              3.400
 Vibration     2          0.626              1.879              2.431
 Vibration     3          0.652              1.795              1.878
 Vibration     4          0.683              1.702              1.505
 Vibration     5          0.711              1.621              1.273
 Vibration     6          0.723              1.585              1.189
 Vibration     7          0.813              1.350              0.780
 Vibration     8          0.889              1.174              0.577
 Vibration     9          0.949              1.050              0.465

 Optimization completed.
    -- Stationary point found.
 Normal termination of Gaussian 09 at Mon Jan 27 13:28:18 2020.
