 Gaussian 09, Revision D.01,
 Gaussian 09:  ES64L-G09RevD.01 24-Apr-2013

 -----------------------------
 # b3lyp 6-31G(2df,p) opt Freq
 -----------------------------

 -----
 titel
 -----
 Symbolic Z-matrix:
 Charge =  0 Multiplicity = 1

 SCF Done:  E(RB3LYP) =  -423.179247607     A.U. after   14 cycles
 Optimization completed.
    -- Stationary point found.
 Normal termination of Gaussian 09 at Tue Jan 28 00:07:39 2020.

 ----------------------------------------------------------------------
 #N Geom=AllCheck Guess=TCheck SCRF=Check GenChk RB3LYP/6-31G(2df,p) Fr
 eq
 ----------------------------------------------------------------------

 Structure from the checkpoint file:  "/scratch/puck/g09_cf0a0cc4-92d2-418f-a90d-01a718109e5d/Gau-56845.chk"
 -----
 titel
 -----
 Charge =  0 Multiplicity = 1

                         Standard orientation:
 ---------------------------------------------------------------------
 Center     Atomic      Atomic             Coordinates (Angstroms)
 Number     Number       Type             X           Y           Z
 ---------------------------------------------------------------------
      1          6           0       -2.243527   -1.285869   -0.203596
      2          6           0       -1.333399   -0.123457    0.132700
      3          8           0       -1.787659    0.917779    0.601149
      4          6           0        0.096474   -0.272226   -0.136483
      5          6           0        0.909449   -1.525331   -0.473369
      6          6           0        2.079490   -0.994729    0.421981
      7          6           0        1.286198    0.279544    0.726182
      8          6           0        0.912258    0.995060   -0.515001
      9          8           0        0.292239    2.220374   -0.455461
     10          1           0       -3.282425   -0.991914   -0.051153
     11          1           0       -2.092995   -1.609314   -1.239276
     12          1           0       -2.012022   -2.145895    0.435257
     13          1           0        0.472680   -2.448747   -0.086243
     14          1           0        1.139800   -1.671124   -1.534066
     15          1           0        2.238783   -1.617169    1.304032
     16          1           0        3.041947   -0.839313   -0.075498
     17          1           0        1.189075    0.768087    1.688994
     18          1           0        1.550184    0.908006   -1.394645
     19          1           0       -0.523325    2.104211    0.072611
 ---------------------------------------------------------------------

 SCF Done:  E(RB3LYP) =  -423.179247607     A.U. after    1 cycles

 The electronic state is 1-A.
 Alpha  occ. eigenvalues --  -19.13178 -19.13085 -10.27532 -10.25019 -10.20535
 Alpha  occ. eigenvalues --  -10.20433 -10.20119 -10.19992 -10.19333  -1.04672
 Alpha  occ. eigenvalues --   -1.01951  -0.89672  -0.75722  -0.73078  -0.67703
 Alpha  occ. eigenvalues --   -0.62332  -0.58623  -0.53906  -0.50004  -0.48682
 Alpha  occ. eigenvalues --   -0.46662  -0.44434  -0.43280  -0.42981  -0.41466
 Alpha  occ. eigenvalues --   -0.39088  -0.37657  -0.36699  -0.35218  -0.34719
 Alpha  occ. eigenvalues --   -0.34592  -0.26363  -0.25833  -0.23709
 Alpha virt. eigenvalues --   -0.02405   0.07935   0.09178   0.10463   0.11576
 Alpha virt. eigenvalues --    0.12835   0.13647   0.15285   0.16011   0.16485
 Alpha virt. eigenvalues --    0.17314   0.18767   0.19597   0.20774   0.23060

 Mulliken charges:
               1
     1  C   -0.486476
     2  C    0.302783
     3  O   -0.371826
     4  C    0.179826
     5  C   -0.320372
     6  C   -0.230880
     7  C   -0.144701
     8  C    0.122086
     9  O   -0.438584
    10  H    0.145068
    11  H    0.142681
    12  H    0.143154
    13  H    0.110087
    14  H    0.104357
    15  H    0.114819
    16  H    0.108019
    17  H    0.109552
    18  H    0.103197
    19  H    0.307212
 Sum of Mulliken charges =   0.00000

 Dipole moment (field-independent basis, Debye):
    X=              0.8819    Y=             -3.5368    Z=             -0.1383  Tot=              3.6477
 Quadrupole moment (field-independent basis, Debye-Ang):
   XX=            -52.9646   YY=            -57.1950   ZZ=            -52.2850
   XY=              1.9216   XZ=              1.6751   YZ=              0.7431

  Exact polarizability:  89.957   0.381  80.295  -0.817   2.239  62.602
 Approx polarizability: 126.898  -2.314 121.612  -3.977   4.466  99.272

                      1                      2                      3
                      A                      A                      A
 Frequencies --     80.5215               130.9361               155.6691
 Red. masses --      3.4973                 1.1247                 2.5773
 Frc consts  --      0.0134                 0.0114                 0.0368
 IR Inten    --      2.4218                 0.1960                 0.3227

                      4                      5                      6
                      A                      A                      A
 Frequencies --    217.3323               272.8433               279.1451
 Red. masses --      3.3405                 2.4361                 3.0720
 Frc consts  --      0.0930                 0.1068                 0.1410
 IR Inten    --      2.4724                 3.4665                 1.3538

                      7                      8                      9
                      A                      A                      A
 Frequencies --    310.6741               432.3893               467.7353
 Red. masses --      4.2093                 3.6476                 5.6037
 Frc consts  --      0.2394                 0.4018                 0.7223
 IR Inten    --      2.7781                 5.0686                 1.6989

                     10                     11                     12
                      A                      A                      A
 Frequencies --    538.3621               587.1424               628.8546
 Red. masses --      4.4201                 1.5738                 1.6713
 Frc consts  --      0.7548                 0.3197                 0.3894
 IR Inten    --      4.4750                28.6553                85.0728

                     13                     14                     15
                      A                      A                      A
 Frequencies --    649.1206               665.5808               765.5729
 Red. masses --      3.1274                 2.9655                 1.8702
 Frc consts  --      0.7764                 0.7740                 0.6458
 IR Inten    --      5.2328                13.7351                 3.7600

                     16                     17                     18
                      A                      A                      A
 Frequencies --    800.2290               906.3581               928.8677
 Red. masses --      1.8959                 2.4310                 1.8448
 Frc consts  --      0.7153                 1.1766                 0.9378
 IR Inten    --      3.8722                15.3867                 8.7956

                     19                     20                     21
                      A                      A                      A
 Frequencies --    949.5102               973.7303              1011.0820
 Red. masses --      2.6439                 1.7703                 1.7129
 Frc consts  --      1.4044                 0.9889                 1.0317
 IR Inten    --      0.3207                 5.3471                36.0968

                     22                     23                     24
                      A                      A                      A
 Frequencies --   1023.9401              1047.1085              1085.3371
 Red. masses --      1.6296                 1.6703                 1.6590
 Frc consts  --      1.0066                 1.0790                 1.1514
 IR Inten    --     25.8822                 4.7967                24.5430

                     25                     26                     27
                      A                      A                      A
 Frequencies --   1119.0042              1148.1911              1178.2108
 Red. masses --      1.8110                 3.2937                 2.0452
 Frc consts  --      1.3361                 2.5584                 1.6728
 IR Inten    --      0.5463                54.0468                56.3349

                     28                     29                     30
                      A                      A                      A
 Frequencies --   1201.3595              1226.1787              1247.0059
 Red. masses --      1.8771                 1.1641                 1.5137
 Frc consts  --      1.5962                 1.0312                 1.3869
 IR Inten    --     43.4962                 0.8191                14.3209

                     31                     32                     33
                      A                      A                      A
 Frequencies --   1276.8240              1292.4185              1370.2367
 Red. masses --      1.5538                 1.4852                 1.5813
 Frc consts  --      1.4925                 1.4616                 1.7492
 IR Inten    --     39.6651                 5.7301                19.3726

                     34                     35                     36
                      A                      A                      A
 Frequencies --   1385.1491              1402.4520              1460.6385
 Red. masses --      2.0926                 2.7735                 1.0664
 Frc consts  --      2.3655                 3.2140                 1.3405
 IR Inten    --      5.0666               127.4176                16.8714

                     37                     38                     39
                      A                      A                      A
 Frequencies --   1473.5407              1482.0954              1486.1870
 Red. masses --      1.0543                 1.0877                 1.2313
 Frc consts  --      1.3488                 1.4077                 1.6023
 IR Inten    --      9.3420                 7.0474               100.0523

                     40                     41                     42
                      A                      A                      A
 Frequencies --   1506.7561              1717.6186              3037.0030
 Red. masses --      1.1824                 8.9570                 1.0376
 Frc consts  --      1.5816                15.5691                 5.6387
 IR Inten    --     52.4983               146.2069                 0.8539

                     43                     44                     45
                      A                      A                      A
 Frequencies --   3043.2397              3055.5400              3096.1742
 Red. masses --      1.0610                 1.0632                 1.1020
 Frc consts  --      5.7894                 5.8484                 6.2243
 IR Inten    --     37.4394                53.7744                 3.7844

                     46                     47                     48
                      A                      A                      A
 Frequencies --   3097.6632              3108.0885              3120.2666
 Red. masses --      1.0996                 1.0892                 1.1034
 Frc consts  --      6.2168                 6.1994                 6.3297
 IR Inten    --      8.5110                25.2225                33.4773

                     49                     50                     51
                      A                      A                      A
 Frequencies --   3154.3887              3186.3270              3521.1832
 Red. masses --      1.1017                 1.0921                 1.0663
 Frc consts  --      6.4588                 6.5326                 7.7893
 IR Inten    --      8.7895                 6.8545               162.3544

 - Thermochemistry -
 -------------------
 Temperature   298.150 Kelvin.  Pressure   1.00000 Atm.
 Atom     1 has atomic number  6 and mass  12.00000

 Molecular mass:   126.06808 amu.
 Principal axes and moments of inertia in atomic units:
                           1         2         3
     Eigenvalues --   809.403151072.989551632.52053
           X            0.99923   0.03745   0.01126
           Y           -0.03760   0.99920   0.01333
           Z           -0.01075  -0.01374   0.99985
 This molecule is an asymmetric top.
 Rotational symmetry number  1.
 Warning -- assumption of classical behavior for rotation
           may cause significant error
 Rotational temperatures (Kelvin)      0.10701     0.08072     0.05306
 Rotational constants (GHZ):           2.22972     1.68197     1.10549
 Zero-point vibrational energy     414516.7 (Joules/Mol)
                                   99.07187 (Kcal/Mol)
 Warning -- explicit consideration of  11 degrees of freedom as
           vibrations may cause significant error
 Vibrational temperatures:    115.85   188.39   223.97   312.69   392.56
          (Kelvin)            401.63   446.99   622.11   672.97   774.58
                              844.77   904.78   933.94   957.62  1101.49
                             1151.35  1304.05  1336.43  1366.13  1400.98
                             1454.72  1473.22  1506.55  1561.56  1610.00
                             1651.99  1695.18  1728.49  1764.20  1794.16
                             1837.06  1859.50  1971.46  1992.92  2017.81
                             2101.53  2120.09  2132.40  2138.29  2167.88
                             2471.27  4369.56  4378.54  4396.24  4454.70
                             4456.84  4471.84  4489.36  4538.46  4584.41
                             5066.19

 Zero-point correction=                           0.157881 (Hartree/Particle)
 Thermal correction to Energy=                    0.166603
 Thermal correction to Enthalpy=                  0.167547
 Thermal correction to Gibbs Free Energy=         0.124562
 Sum of electronic and zero-point Energies=           -423.021367
 Sum of electronic and thermal Energies=              -423.012644
 Sum of electronic and thermal Enthalpies=            -423.011700
 Sum of electronic and thermal Free Energies=         -423.054686

                     E (Thermal)             CV                S
                      KCal/Mol        Cal/Mol-Kelvin    Cal/Mol-Kelvin
 Total                  104.545             33.257             90.470
 Electronic               0.000              0.000              0.000
 Translational            0.889              2.981             40.409
 Rotational               0.889              2.981             28.740
 Vibrational            102.768             27.295             21.321
 Vibration     1          0.600              1.962              3.878
 Vibration     2          0.612              1.922              2.932
 Vibration     3          0.620              1.896              2.602
 Vibration     4          0.646              1.815              1.981
 Vibration     5          0.676              1.723              1.578
 Vibration     6          0.679              1.712              1.539
 Vibration     7          0.700              1.653              1.359
 Vibration     8          0.793              1.400              0.851
 Vibration     9          0.825              1.322              0.744
 Vibration    10          0.893              1.165              0.569
 Vibration    11          0.944              1.059              0.472

 Optimization completed.
    -- Stationary point found.
 Normal termination of Gaussian 09 at Tue Jan 28 01:28:59 2020.
