 Gaussian 09, Revision D.01,
 Gaussian 09:  ES64L-G09RevD.01 24-Apr-2013

 -----------------------------
 # b3lyp 6-31G(2df,p) opt Freq
 -----------------------------

 -----
 titel
 -----
 Symbolic Z-matrix:
 Charge =  0 Multiplicity = 1

 SCF Done:  E(RB3LYP) =  -423.148955846     A.U. after   13 cycles
 Optimization completed.
    -- Stationary point found.
 Normal termination of Gaussian 09 at Mon Jan 27 12:18:12 2020.

 ----------------------------------------------------------------------
 #N Geom=AllCheck Guess=TCheck SCRF=Check GenChk RB3LYP/6-31G(2df,p) Fr
 eq
 ----------------------------------------------------------------------

 Structure from the checkpoint file:  "/scratch/puck/g09_dedcdf7a-ac25-4a67-aed2-7a0c6718c96c/Gau-153445.chk"
 -----
 titel
 -----
 Charge =  0 Multiplicity = 1

                         Standard orientation:
 ---------------------------------------------------------------------
 Center     Atomic      Atomic             Coordinates (Angstroms)
 Number     Number       Type             X           Y           Z
 ---------------------------------------------------------------------
      1          6           0       -1.846191   -0.540394   -0.679575
      2          6           0       -1.919765    0.629979    0.372749
      3          6           0       -0.372060    0.548005    0.444382
      4          6           0        0.128365   -0.662221    1.286161
      5          8           0        0.951455   -1.423739    0.380111
      6          6           0        1.013031   -0.622812   -0.774199
      7          8           0        1.720596    0.602898   -0.482054
      8          6           0        0.827560    1.471187    0.300273
      9          6           0       -0.390179   -0.069841   -0.968785
     10          1           0       -1.909711   -1.527489   -0.219549
     11          1           0       -2.540705   -0.496158   -1.519676
     12          1           0       -2.266484    1.555910   -0.093703
     13          1           0       -2.479906    0.465875    1.296370
     14          1           0        0.729635   -0.327672    2.139834
     15          1           0       -0.678065   -1.299731    1.661324
     16          1           0        1.561681   -1.147683   -1.554016
     17          1           0        1.342374    1.735069    1.230384
     18          1           0        0.612326    2.383425   -0.268860
     19          1           0       -0.392122    0.701767   -1.742593
 ---------------------------------------------------------------------

 SCF Done:  E(RB3LYP) =  -423.148955846     A.U. after    1 cycles

 The electronic state is 1-A.
 Alpha  occ. eigenvalues --  -19.13728 -19.13407 -10.27396 -10.23100 -10.22846
 Alpha  occ. eigenvalues --  -10.20144 -10.19972 -10.19740 -10.18717  -1.07021
 Alpha  occ. eigenvalues --   -0.98914  -0.86258  -0.75096  -0.70308  -0.66582
 Alpha  occ. eigenvalues --   -0.64328  -0.57763  -0.55120  -0.50971  -0.50630
 Alpha  occ. eigenvalues --   -0.47222  -0.43976  -0.42619  -0.41479  -0.40484
 Alpha  occ. eigenvalues --   -0.39350  -0.37649  -0.34744  -0.33684  -0.32755
 Alpha  occ. eigenvalues --   -0.31057  -0.29460  -0.25634  -0.24508
 Alpha virt. eigenvalues --    0.07511   0.08415   0.10057   0.11386   0.12574
 Alpha virt. eigenvalues --    0.13486   0.14669   0.14976   0.16010   0.16684
 Alpha virt. eigenvalues --    0.18060   0.19124   0.19234   0.20863   0.21563

 Mulliken charges:
               1
     1  C   -0.291935
     2  C   -0.324939
     3  C    0.236133
     4  C   -0.104827
     5  O   -0.256227
     6  C    0.160630
     7  O   -0.296745
     8  C   -0.162220
     9  C    0.005652
    10  H    0.125206
    11  H    0.104258
    12  H    0.111850
    13  H    0.103502
    14  H    0.103771
    15  H    0.101375
    16  H    0.089856
    17  H    0.102735
    18  H    0.099461
    19  H    0.092466
 Sum of Mulliken charges =   0.00000

 Dipole moment (field-independent basis, Debye):
    X=             -2.4489    Y=              1.0097    Z=              0.1627  Tot=              2.6539
 Quadrupole moment (field-independent basis, Debye-Ang):
   XX=            -56.6666   YY=            -54.0965   ZZ=            -50.3351
   XY=              0.4127   XZ=              0.2184   YZ=              1.3090

  Exact polarizability:  78.205   1.370  70.508   0.123   1.063  71.511
 Approx polarizability: 111.454   0.948 106.883  -2.028   1.265 109.161

                      1                      2                      3
                      A                      A                      A
 Frequencies --    197.9839               288.9064               314.9650
 Red. masses --      3.7522                 1.9697                 2.5566
 Frc consts  --      0.0867                 0.0969                 0.1494
 IR Inten    --      2.7609                 0.2754                 0.0495

                      4                      5                      6
                      A                      A                      A
 Frequencies --    372.2245               444.9752               490.8381
 Red. masses --      2.6342                 2.5932                 4.5333
 Frc consts  --      0.2150                 0.3025                 0.6435
 IR Inten    --      1.1682                 0.0742                 9.1402

                      7                      8                      9
                      A                      A                      A
 Frequencies --    600.6493               630.1390               661.0608
 Red. masses --      3.6931                 5.0408                 2.6538
 Frc consts  --      0.7850                 1.1793                 0.6833
 IR Inten    --      0.4344                 0.2218                 3.2694

                     10                     11                     12
                      A                      A                      A
 Frequencies --    760.7542               806.2705               844.0252
 Red. masses --      3.3293                 1.8150                 3.2205
 Frc consts  --      1.1353                 0.6952                 1.3517
 IR Inten    --      0.7589                 5.7194                37.5766

                     13                     14                     15
                      A                      A                      A
 Frequencies --    859.2178               865.1790               889.0861
 Red. masses --      3.0445                 2.7152                 4.9658
 Frc consts  --      1.3243                 1.1975                 2.3128
 IR Inten    --     11.2094                54.3771                31.7547

                     16                     17                     18
                      A                      A                      A
 Frequencies --    923.8234               956.1363               984.8906
 Red. masses --      2.8223                 4.3499                 1.5660
 Frc consts  --      1.4192                 2.3430                 0.8950
 IR Inten    --      6.1450                30.3157                14.6134

                     19                     20                     21
                      A                      A                      A
 Frequencies --    991.2611              1019.5106              1027.9039
 Red. masses --      2.2165                 2.1602                 2.6976
 Frc consts  --      1.2832                 1.3229                 1.6793
 IR Inten    --     21.6174                11.4919                17.2257

                     22                     23                     24
                      A                      A                      A
 Frequencies --   1087.6878              1101.4847              1115.4919
 Red. masses --      2.1533                 2.8317                 1.9133
 Frc consts  --      1.5009                 2.0242                 1.4027
 IR Inten    --      4.6046                54.2613                19.5335

                     25                     26                     27
                      A                      A                      A
 Frequencies --   1148.1436              1175.3098              1192.0514
 Red. masses --      1.8372                 1.3439                 1.3243
 Frc consts  --      1.4269                 1.0938                 1.1088
 IR Inten    --     14.4803                 1.1035                 0.8223

                     28                     29                     30
                      A                      A                      A
 Frequencies --   1204.0009              1231.4694              1245.1090
 Red. masses --      1.3359                 1.3665                 1.3365
 Frc consts  --      1.1410                 1.2209                 1.2208
 IR Inten    --      1.1196                 0.7675                 1.3854

                     31                     32                     33
                      A                      A                      A
 Frequencies --   1260.9759              1278.3139              1295.4089
 Red. masses --      1.3940                 1.5818                 1.6988
 Frc consts  --      1.3060                 1.5229                 1.6796
 IR Inten    --      4.6610                 7.2561                 1.3768

                     34                     35                     36
                      A                      A                      A
 Frequencies --   1319.5152              1350.8088              1378.2617
 Red. masses --      1.3963                 1.5126                 1.4936
 Frc consts  --      1.4323                 1.6262                 1.6716
 IR Inten    --      5.2222                 4.3219                 4.1402

                     37                     38                     39
                      A                      A                      A
 Frequencies --   1390.5708              1484.5157              1495.9828
 Red. masses --      1.4320                 1.0857                 1.1219
 Frc consts  --      1.6314                 1.4098                 1.4793
 IR Inten    --      9.9441                 1.5460                 0.5453

                     40                     41                     42
                      A                      A                      A
 Frequencies --   1520.6555              1538.0798              3022.3094
 Red. masses --      1.0926                 1.0948                 1.0567
 Frc consts  --      1.4886                 1.5260                 5.6871
 IR Inten    --      1.7528                 1.2021                61.0957

                     43                     44                     45
                      A                      A                      A
 Frequencies --   3028.5657              3060.4966              3068.7825
 Red. masses --      1.0603                 1.0589                 1.1056
 Frc consts  --      5.7299                 5.8436                 6.1347
 IR Inten    --     51.3406                40.2510                24.8173

                     46                     47                     48
                      A                      A                      A
 Frequencies --   3073.6503              3079.6801              3085.4620
 Red. masses --      1.1047                 1.0854                 1.0633
 Frc consts  --      6.1488                 6.0655                 5.9639
 IR Inten    --     29.4845                19.6013                49.8390

                     49                     50                     51
                      A                      A                      A
 Frequencies --   3112.8197              3141.6582              3150.7387
 Red. masses --      1.1092                 1.1079                 1.0914
 Frc consts  --      6.3323                 6.4427                 6.3836
 IR Inten    --     16.7501                30.2516                32.7320

 - Thermochemistry -
 -------------------
 Temperature   298.150 Kelvin.  Pressure   1.00000 Atm.
 Atom     1 has atomic number  6 and mass  12.00000

 Molecular mass:   126.06808 amu.
 Principal axes and moments of inertia in atomic units:
                           1         2         3
     Eigenvalues --   632.72905 970.711501078.34972
           X            0.99977   0.01808   0.01156
           Y           -0.01837   0.99951   0.02541
           Z           -0.01110  -0.02562   0.99961
 This molecule is an asymmetric top.
 Rotational symmetry number  1.
 Warning -- assumption of classical behavior for rotation
           may cause significant error
 Rotational temperatures (Kelvin)      0.13689     0.08923     0.08032
 Rotational constants (GHZ):           2.85231     1.85919     1.67361
 Zero-point vibrational energy     428070.5 (Joules/Mol)
                                  102.31131 (Kcal/Mol)
 Warning -- explicit consideration of   7 degrees of freedom as
           vibrations may cause significant error
 Vibrational temperatures:    284.85   415.67   453.16   535.55   640.22
          (Kelvin)            706.21   864.20   906.63   951.12  1094.55
                             1160.04  1214.36  1236.22  1244.80  1279.20
                             1329.17  1375.67  1417.04  1426.20  1466.85
                             1478.92  1564.94  1584.79  1604.94  1651.92
                             1691.01  1715.09  1732.29  1771.81  1791.43
                             1814.26  1839.21  1863.80  1898.49  1943.51
                             1983.01  2000.72  2135.88  2152.38  2187.88
                             2212.95  4348.42  4357.43  4403.37  4415.29
                             4422.29  4430.97  4439.29  4478.65  4520.14
                             4533.20

 Zero-point correction=                           0.163043 (Hartree/Particle)
 Thermal correction to Energy=                    0.169464
 Thermal correction to Enthalpy=                  0.170408
 Thermal correction to Gibbs Free Energy=         0.132645
 Sum of electronic and zero-point Energies=           -422.985912
 Sum of electronic and thermal Energies=              -422.979492
 Sum of electronic and thermal Enthalpies=            -422.978547
 Sum of electronic and thermal Free Energies=         -423.016311

                     E (Thermal)             CV                S
                      KCal/Mol        Cal/Mol-Kelvin    Cal/Mol-Kelvin
 Total                  106.340             27.493             79.481
 Electronic               0.000              0.000              0.000
 Translational            0.889              2.981             40.409
 Rotational               0.889              2.981             27.984
 Vibrational            104.563             21.531             11.088
 Vibration     1          0.637              1.843              2.152
 Vibration     2          0.685              1.694              1.480
 Vibration     3          0.702              1.645              1.336
 Vibration     4          0.744              1.529              1.071
 Vibration     5          0.804              1.372              0.811
 Vibration     6          0.847              1.270              0.681
 Vibration     7          0.959              1.030              0.449

 Optimization completed.
    -- Stationary point found.
 Normal termination of Gaussian 09 at Mon Jan 27 13:07:21 2020.
