 Gaussian 09, Revision D.01,
 Gaussian 09:  ES64L-G09RevD.01 24-Apr-2013

 -----------------------------
 # b3lyp 6-31G(2df,p) opt Freq
 -----------------------------

 -----
 titel
 -----
 Symbolic Z-matrix:
 Charge =  0 Multiplicity = 1

 SCF Done:  E(RB3LYP) =  -423.163785425     A.U. after   13 cycles
 Optimization completed.
    -- Stationary point found.
 Normal termination of Gaussian 09 at Mon Jan 27 11:25:08 2020.

 ----------------------------------------------------------------------
 #N Geom=AllCheck Guess=TCheck SCRF=Check GenChk RB3LYP/6-31G(2df,p) Fr
 eq
 ----------------------------------------------------------------------

 Structure from the checkpoint file:  "/scratch/puck/g09_346d9239-1ea2-4b0a-a10d-4426b461bf02/Gau-22648.chk"
 -----
 titel
 -----
 Charge =  0 Multiplicity = 1

                         Standard orientation:
 ---------------------------------------------------------------------
 Center     Atomic      Atomic             Coordinates (Angstroms)
 Number     Number       Type             X           Y           Z
 ---------------------------------------------------------------------
      1          6           0        1.304001    1.102876   -0.639146
      2          6           0        1.647527   -0.315575   -0.146213
      3          8           0        0.789603   -1.319421   -0.735400
      4          6           0       -0.100248   -1.312418    0.417646
      5          6           0       -1.547655   -1.011006    0.063296
      6          6           0       -1.675376    0.364112   -0.591999
      7          8           0       -1.112741    1.395787    0.209876
      8          6           0        0.249567    1.228897    0.519889
      9          6           0        0.690312   -0.163986    1.068000
     10          1           0        2.123435    1.817466   -0.519401
     11          1           0        0.933666    1.156926   -1.664644
     12          1           0        2.691215   -0.634580   -0.100494
     13          1           0       -0.018190   -2.264025    0.958292
     14          1           0       -1.936222   -1.782091   -0.612249
     15          1           0       -2.143806   -1.043688    0.984012
     16          1           0       -1.201046    0.340768   -1.582612
     17          1           0       -2.724945    0.637425   -0.727664
     18          1           0        0.485263    2.047910    1.202445
     19          1           0        0.966963   -0.244444    2.117672
 ---------------------------------------------------------------------

 SCF Done:  E(RB3LYP) =  -423.163785425     A.U. after    1 cycles

 The electronic state is 1-A.
 Alpha  occ. eigenvalues --  -19.13893 -19.13114 -10.23524 -10.23395 -10.23255
 Alpha  occ. eigenvalues --  -10.22385 -10.18622 -10.18258 -10.17858  -1.04432
 Alpha  occ. eigenvalues --   -1.02442  -0.81689  -0.77722  -0.70849  -0.66395
 Alpha  occ. eigenvalues --   -0.60307  -0.59422  -0.52868  -0.50421  -0.48821
 Alpha  occ. eigenvalues --   -0.46717  -0.45499  -0.44736  -0.41717  -0.40987
 Alpha  occ. eigenvalues --   -0.37595  -0.37261  -0.35931  -0.34546  -0.31668
 Alpha  occ. eigenvalues --   -0.30309  -0.27570  -0.25096  -0.23793
 Alpha virt. eigenvalues --    0.07107   0.08929   0.10294   0.11511   0.12318
 Alpha virt. eigenvalues --    0.14247   0.15038   0.15762   0.16404   0.16749
 Alpha virt. eigenvalues --    0.18309   0.19000   0.19818   0.21016   0.21978

 Mulliken charges:
               1
     1  C   -0.281127
     2  C    0.115075
     3  O   -0.320143
     4  C    0.126411
     5  C   -0.230199
     6  C   -0.083650
     7  O   -0.259805
     8  C    0.112404
     9  C   -0.129716
    10  H    0.102253
    11  H    0.115541
    12  H    0.076209
    13  H    0.072885
    14  H    0.107812
    15  H    0.105536
    16  H    0.105700
    17  H    0.105900
    18  H    0.087774
    19  H    0.071140
 Sum of Mulliken charges =   0.00000

 Dipole moment (field-independent basis, Debye):
    X=              0.3354    Y=             -0.1287    Z=              0.9543  Tot=              1.0197
 Quadrupole moment (field-independent basis, Debye-Ang):
   XX=            -50.4516   YY=            -55.8995   ZZ=            -52.6865
   XY=              4.3835   XZ=              2.2957   YZ=             -2.4203

  Exact polarizability:  80.919   5.002  72.623   0.820  -2.150  66.258
 Approx polarizability: 110.910   4.166 104.924  -1.025   1.113 103.433

                      1                      2                      3
                      A                      A                      A
 Frequencies --    157.8836               252.9125               323.1696
 Red. masses --      3.2901                 2.6148                 2.5300
 Frc consts  --      0.0483                 0.0985                 0.1557
 IR Inten    --      3.6815                 4.2200                 2.0778

                      4                      5                      6
                      A                      A                      A
 Frequencies --    380.2358               417.7574               474.2652
 Red. masses --      2.4279                 2.7656                 3.6390
 Frc consts  --      0.2068                 0.2844                 0.4823
 IR Inten    --      1.4360                 4.5764                 1.3079

                      7                      8                      9
                      A                      A                      A
 Frequencies --    537.5820               636.2263               669.8541
 Red. masses --      4.5471                 3.4328                 2.6330
 Frc consts  --      0.7742                 0.8187                 0.6961
 IR Inten    --      5.9969                 1.1746                 4.3299

                     10                     11                     12
                      A                      A                      A
 Frequencies --    746.7337               778.6938               831.8635
 Red. masses --      2.2294                 2.3941                 2.1294
 Frc consts  --      0.7324                 0.8553                 0.8682
 IR Inten    --      2.2929                 3.6546                15.6923

                     13                     14                     15
                      A                      A                      A
 Frequencies --    870.3270               893.9231               911.8203
 Red. masses --      2.6540                 2.6240                 2.5084
 Frc consts  --      1.1845                 1.2354                 1.2288
 IR Inten    --      3.2768                11.7620                 4.9454

                     16                     17                     18
                      A                      A                      A
 Frequencies --    937.5280               965.3888               976.8803
 Red. masses --      2.6520                 2.1678                 2.6263
 Frc consts  --      1.3734                 1.1903                 1.4767
 IR Inten    --      5.3736                15.8465                26.5842

                     19                     20                     21
                      A                      A                      A
 Frequencies --    993.4177              1030.1801              1055.3982
 Red. masses --      2.8630                 2.1511                 2.7495
 Frc consts  --      1.6647                 1.3450                 1.8044
 IR Inten    --     23.3607                 0.7488                16.0565

                     22                     23                     24
                      A                      A                      A
 Frequencies --   1081.5393              1106.1681              1123.1690
 Red. masses --      1.5869                 2.0140                 2.3075
 Frc consts  --      1.0936                 1.4520                 1.7151
 IR Inten    --     39.4424                16.6732                39.2417

                     25                     26                     27
                      A                      A                      A
 Frequencies --   1160.0397              1176.4260              1206.6271
 Red. masses --      2.2370                 1.8440                 1.4848
 Frc consts  --      1.7737                 1.5036                 1.2737
 IR Inten    --     21.1950                 4.2757                 4.3642

                     28                     29                     30
                      A                      A                      A
 Frequencies --   1228.3802              1247.0814              1268.8025
 Red. masses --      1.5706                 1.6721                 1.4933
 Frc consts  --      1.3963                 1.5322                 1.4164
 IR Inten    --     46.3963                21.0334                 6.8158

                     31                     32                     33
                      A                      A                      A
 Frequencies --   1283.1066              1304.2811              1311.2780
 Red. masses --      1.3241                 1.4643                 1.3583
 Frc consts  --      1.2843                 1.4677                 1.3760
 IR Inten    --     16.3573                14.7355                 4.3173

                     34                     35                     36
                      A                      A                      A
 Frequencies --   1338.7007              1361.6281              1378.7510
 Red. masses --      1.4277                 1.4594                 1.3662
 Frc consts  --      1.5075                 1.5942                 1.5301
 IR Inten    --     11.7339                 0.9461                 2.2444

                     37                     38                     39
                      A                      A                      A
 Frequencies --   1403.3117              1419.2548              1456.7746
 Red. masses --      1.3753                 1.3635                 1.1057
 Frc consts  --      1.5957                 1.6181                 1.3825
 IR Inten    --     13.9136                 8.3701                 0.4563

                     40                     41                     42
                      A                      A                      A
 Frequencies --   1458.5331              1505.2983              3010.6361
 Red. masses --      1.1129                 1.0882                 1.0818
 Frc consts  --      1.3949                 1.4529                 5.7773
 IR Inten    --     11.5634                 4.0627                45.1510

                     43                     44                     45
                      A                      A                      A
 Frequencies --   3016.0771              3032.5424              3060.1559
 Red. masses --      1.0676                 1.0637                 1.0636
 Frc consts  --      5.7221                 5.7636                 5.8683
 IR Inten    --     24.2658                47.6947                16.1109

                     46                     47                     48
                      A                      A                      A
 Frequencies --   3076.1306              3082.1567              3085.6841
 Red. masses --      1.1009                 1.0885                 1.0869
 Frc consts  --      6.1377                 6.0923                 6.0976
 IR Inten    --     28.4684                58.5545                36.5708

                     49                     50                     51
                      A                      A                      A
 Frequencies --   3094.9481              3125.6507              3127.0616
 Red. masses --      1.0980                 1.0983                 1.0974
 Frc consts  --      6.1967                 6.3221                 6.3224
 IR Inten    --     34.8969                 4.5305                49.2111

 - Thermochemistry -
 -------------------
 Temperature   298.150 Kelvin.  Pressure   1.00000 Atm.
 Atom     1 has atomic number  6 and mass  12.00000

 Molecular mass:   126.06808 amu.
 Principal axes and moments of inertia in atomic units:
                           1         2         3
     Eigenvalues --   706.07503 844.826811179.68041
           X            0.97972   0.19956   0.01770
           Y           -0.19874   0.97924  -0.03989
           Z           -0.02529   0.03557   0.99905
 This molecule is an asymmetric top.
 Rotational symmetry number  1.
 Warning -- assumption of classical behavior for rotation
           may cause significant error
 Rotational temperatures (Kelvin)      0.12267     0.10252     0.07342
 Rotational constants (GHZ):           2.55602     2.13623     1.52986
 Zero-point vibrational energy     426900.8 (Joules/Mol)
                                  102.03173 (Kcal/Mol)
 Warning -- explicit consideration of   7 degrees of freedom as
           vibrations may cause significant error
 Vibrational temperatures:    227.16   363.88   464.97   547.07   601.06
          (Kelvin)            682.36   773.46   915.39   963.77  1074.38
                             1120.37  1196.86  1252.20  1286.15  1311.90
                             1348.89  1388.98  1405.51  1429.30  1482.20
                             1518.48  1556.09  1591.53  1615.99  1669.04
                             1692.61  1736.07  1767.36  1794.27  1825.52
                             1846.10  1876.57  1886.63  1926.09  1959.08
                             1983.71  2019.05  2041.99  2095.97  2098.50
                             2165.79  4331.63  4339.46  4363.15  4402.88
                             4425.86  4434.53  4439.61  4452.93  4497.11
                             4499.14

 Zero-point correction=                           0.162598 (Hartree/Particle)
 Thermal correction to Energy=                    0.169171
 Thermal correction to Enthalpy=                  0.170115
 Thermal correction to Gibbs Free Energy=         0.131951
 Sum of electronic and zero-point Energies=           -423.001188
 Sum of electronic and thermal Energies=              -422.994614
 Sum of electronic and thermal Enthalpies=            -422.993670
 Sum of electronic and thermal Free Energies=         -423.031834

                     E (Thermal)             CV                S
                      KCal/Mol        Cal/Mol-Kelvin    Cal/Mol-Kelvin
 Total                  106.157             27.663             80.324
 Electronic               0.000              0.000              0.000
 Translational            0.889              2.981             40.409
 Rotational               0.889              2.981             28.044
 Vibrational            104.379             21.701             11.871
 Vibration     1          0.621              1.894              2.575
 Vibration     2          0.664              1.758              1.710
 Vibration     3          0.708              1.629              1.294
 Vibration     4          0.750              1.512              1.038
 Vibration     5          0.781              1.432              0.900
 Vibration     6          0.831              1.307              0.726
 Vibration     7          0.893              1.167              0.571

 Optimization completed.
    -- Stationary point found.
 Normal termination of Gaussian 09 at Mon Jan 27 13:00:53 2020.
