 Gaussian 09, Revision D.01,
 Gaussian 09:  ES64L-G09RevD.01 24-Apr-2013

 -----------------------------
 # b3lyp 6-31G(2df,p) opt Freq
 -----------------------------

 -----
 titel
 -----
 Symbolic Z-matrix:
 Charge =  0 Multiplicity = 1

 SCF Done:  E(RB3LYP) =  -423.130105807     A.U. after   12 cycles
 Optimization completed.
    -- Stationary point found.
 Normal termination of Gaussian 09 at Mon Jan 27 18:05:11 2020.

 ----------------------------------------------------------------------
 #N Geom=AllCheck Guess=TCheck SCRF=Check GenChk RB3LYP/6-31G(2df,p) Fr
 eq
 ----------------------------------------------------------------------

 Structure from the checkpoint file:  "/scratch/puck/g09_6fc27918-7fcf-4ef2-b47b-4114f5c5cde2/Gau-40835.chk"
 -----
 titel
 -----
 Charge =  0 Multiplicity = 1

                         Standard orientation:
 ---------------------------------------------------------------------
 Center     Atomic      Atomic             Coordinates (Angstroms)
 Number     Number       Type             X           Y           Z
 ---------------------------------------------------------------------
      1          6           0        2.495881   -0.455435   -0.367517
      2          6           0        1.017311   -0.420596   -0.123342
      3          6           0       -0.074097   -1.194112   -0.870421
      4          6           0       -1.082292   -0.241488   -0.165816
      5          8           0       -2.274717    0.149552   -0.753629
      6          6           0       -0.990286   -0.639167    1.336662
      7          6           0        0.430386   -0.081368    1.287690
      8          6           0        0.132424    0.769772    0.073509
      9          8           0        0.360963    2.075445   -0.264858
     10          1           0        3.006712    0.320023    0.212694
     11          1           0        2.926714   -1.423206   -0.085646
     12          1           0        2.726213   -0.281493   -1.424535
     13          1           0       -0.030117   -0.994163   -1.945208
     14          1           0       -0.181244   -2.271281   -0.689005
     15          1           0       -2.831148   -0.629320   -0.867955
     16          1           0       -1.650398   -0.018647    1.950031
     17          1           0       -1.132420   -1.697789    1.584745
     18          1           0        1.102159    0.131840    2.109516
     19          1           0       -0.202393    2.638426    0.278671
 ---------------------------------------------------------------------

 SCF Done:  E(RB3LYP) =  -423.130105807     A.U. after    1 cycles

 The electronic state is 1-A.
 Alpha  occ. eigenvalues --  -19.15377 -19.14347 -10.23640 -10.22862 -10.19127
 Alpha  occ. eigenvalues --  -10.18333 -10.17789 -10.17580 -10.17532  -1.04066
 Alpha  occ. eigenvalues --   -1.02630  -0.91445  -0.74215  -0.70909  -0.67672
 Alpha  occ. eigenvalues --   -0.61457  -0.56369  -0.53757  -0.50789  -0.47283
 Alpha  occ. eigenvalues --   -0.44893  -0.44245  -0.42031  -0.40940  -0.39670
 Alpha  occ. eigenvalues --   -0.38883  -0.36998  -0.35403  -0.34595  -0.33873
 Alpha  occ. eigenvalues --   -0.29105  -0.26326  -0.23856  -0.22550
 Alpha virt. eigenvalues --    0.06731   0.08618   0.11428   0.12194   0.12823
 Alpha virt. eigenvalues --    0.13459   0.14780   0.15656   0.15995   0.18006
 Alpha virt. eigenvalues --    0.18866   0.18946   0.19379   0.21226   0.23002

 Mulliken charges:
               1
     1  C   -0.504612
     2  C    0.296939
     3  C   -0.346739
     4  C    0.307656
     5  O   -0.482445
     6  C   -0.295627
     7  C   -0.197368
     8  C    0.291742
     9  O   -0.449857
    10  H    0.123253
    11  H    0.116634
    12  H    0.121651
    13  H    0.102293
    14  H    0.078631
    15  H    0.280435
    16  H    0.095764
    17  H    0.083076
    18  H    0.085709
    19  H    0.292866
 Sum of Mulliken charges =   0.00000

 Dipole moment (field-independent basis, Debye):
    X=             -0.6213    Y=             -0.9962    Z=              1.0438  Tot=              1.5710
 Quadrupole moment (field-independent basis, Debye-Ang):
   XX=            -51.1928   YY=            -50.7696   ZZ=            -53.2524
   XY=              1.5899   XZ=              0.1481   YZ=              4.2603

  Exact polarizability:  82.537   0.428  73.176  -1.849   1.994  71.420
 Approx polarizability: 111.478  -0.737 112.198  -0.624   0.256 107.772

                      1                      2                      3
                      A                      A                      A
 Frequencies --    160.3763               175.3518               188.9426
 Red. masses --      1.1533                 3.0583                 1.2333
 Frc consts  --      0.0175                 0.0554                 0.0259
 IR Inten    --     73.7471                 4.4610                 7.1303

                      4                      5                      6
                      A                      A                      A
 Frequencies --    195.0916               211.8845               287.2467
 Red. masses --      1.9483                 3.5664                 1.7938
 Frc consts  --      0.0437                 0.0943                 0.0872
 IR Inten    --     25.0883                 2.0012                18.1192

                      7                      8                      9
                      A                      A                      A
 Frequencies --    335.2145               384.4417               400.3515
 Red. masses --      1.5127                 2.1495                 3.6223
 Frc consts  --      0.1002                 0.1872                 0.3421
 IR Inten    --     56.9978                18.4560                 9.6098

                     10                     11                     12
                      A                      A                      A
 Frequencies --    486.8386               541.1181               565.6985
 Red. masses --      2.7302                 2.8932                 4.2642
 Frc consts  --      0.3813                 0.4991                 0.8040
 IR Inten    --     13.5288                 5.8776                 2.4061

                     13                     14                     15
                      A                      A                      A
 Frequencies --    621.5007               684.4719               744.9350
 Red. masses --      3.7817                 4.4441                 3.6979
 Frc consts  --      0.8606                 1.2267                 1.2090
 IR Inten    --      1.3122                10.7088                 5.3480

                     16                     17                     18
                      A                      A                      A
 Frequencies --    785.2895               865.8515               901.2303
 Red. masses --      2.8796                 2.7704                 2.5142
 Frc consts  --      1.0463                 1.2237                 1.2031
 IR Inten    --      9.1420                 2.3898                11.3205

                     19                     20                     21
                      A                      A                      A
 Frequencies --    922.6075               930.2415               974.0916
 Red. masses --      1.5104                 1.9050                 1.5116
 Frc consts  --      0.7575                 0.9712                 0.8451
 IR Inten    --      1.1261                 1.3468                 3.4793

                     22                     23                     24
                      A                      A                      A
 Frequencies --   1008.8420              1057.9117              1074.9183
 Red. masses --      1.5474                 2.1777                 1.8555
 Frc consts  --      0.9279                 1.4360                 1.2632
 IR Inten    --      6.8983                25.4605                 7.7687

                     25                     26                     27
                      A                      A                      A
 Frequencies --   1096.5832              1133.3246              1157.3181
 Red. masses --      1.5823                 1.7981                 1.5557
 Frc consts  --      1.1210                 1.3607                 1.2276
 IR Inten    --     10.4239                 7.9571                 0.9011

                     28                     29                     30
                      A                      A                      A
 Frequencies --   1178.6599              1203.2453              1234.7148
 Red. masses --      1.6425                 2.0721                 2.0612
 Frc consts  --      1.3444                 1.7675                 1.8514
 IR Inten    --      7.6923                16.7518                43.3712

                     31                     32                     33
                      A                      A                      A
 Frequencies --   1242.8141              1282.3554              1293.9375
 Red. masses --      2.0262                 1.8981                 1.4045
 Frc consts  --      1.8439                 1.8390                 1.3855
 IR Inten    --      7.0700               198.7539                65.1177

                     34                     35                     36
                      A                      A                      A
 Frequencies --   1348.7741              1379.9193              1418.1873
 Red. masses --      4.0677                 2.3888                 1.3512
 Frc consts  --      4.3599                 2.6801                 1.6012
 IR Inten    --     34.4218                31.7388                 0.4919

                     37                     38                     39
                      A                      A                      A
 Frequencies --   1478.2089              1486.0533              1491.9737
 Red. masses --      1.3203                 1.0617                 1.2050
 Frc consts  --      1.6998                 1.3814                 1.5804
 IR Inten    --      4.2632                 5.7161                 0.9205

                     40                     41                     42
                      A                      A                      A
 Frequencies --   1498.8202              1532.7671              3015.5721
 Red. masses --      1.1158                 2.3145                 1.0608
 Frc consts  --      1.4768                 3.2037                 5.6835
 IR Inten    --      7.4427                28.3340                34.7622

                     43                     44                     45
                      A                      A                      A
 Frequencies --   3023.7370              3028.8095              3083.2349
 Red. masses --      1.0374                 1.0580                 1.1010
 Frc consts  --      5.5882                 5.7183                 6.1666
 IR Inten    --     56.2328                59.4799                20.6077

                     46                     47                     48
                      A                      A                      A
 Frequencies --   3091.3999              3094.2121              3097.0677
 Red. masses --      1.1024                 1.1045                 1.1000
 Frc consts  --      6.2072                 6.2305                 6.2167
 IR Inten    --     20.3682                34.1486                20.3075

                     49                     50                     51
                      A                      A                      A
 Frequencies --   3196.4335              3782.9411              3793.2452
 Red. masses --      1.0932                 1.0660                 1.0657
 Frc consts  --      6.5809                 8.9882                 9.0349
 IR Inten    --     12.1630                23.4255                20.3640

 - Thermochemistry -
 -------------------
 Temperature   298.150 Kelvin.  Pressure   1.00000 Atm.
 Atom     1 has atomic number  6 and mass  12.00000

 Molecular mass:   126.06808 amu.
 Principal axes and moments of inertia in atomic units:
                           1         2         3
     Eigenvalues --   725.675611141.267911291.11174
           X            0.99975  -0.00051  -0.02237
           Y            0.00204   0.99765   0.06845
           Z            0.02229  -0.06848   0.99740
 This molecule is an asymmetric top.
 Rotational symmetry number  1.
 Warning -- assumption of classical behavior for rotation
           may cause significant error
 Rotational temperatures (Kelvin)      0.11936     0.07589     0.06708
 Rotational constants (GHZ):           2.48698     1.58135     1.39782
 Zero-point vibrational energy     413721.0 (Joules/Mol)
                                   98.88170 (Kcal/Mol)
 Warning -- explicit consideration of  12 degrees of freedom as
           vibrations may cause significant error
 Vibrational temperatures:    230.75   252.29   271.85   280.69   304.85
          (Kelvin)            413.28   482.30   553.13   576.02   700.45
                              778.55   813.91   894.20   984.80  1071.79
                             1129.85  1245.77  1296.67  1327.42  1338.41
                             1401.50  1451.50  1522.10  1546.57  1577.74
                             1630.60  1665.12  1695.83  1731.20  1776.48
                             1788.13  1845.02  1861.69  1940.58  1985.39
                             2040.45  2126.81  2138.10  2146.61  2156.47
                             2205.31  4338.73  4350.48  4357.78  4436.08
                             4447.83  4451.88  4455.98  4598.95  5442.80
                             5457.63

 Zero-point correction=                           0.157578 (Hartree/Particle)
 Thermal correction to Energy=                    0.166378
 Thermal correction to Enthalpy=                  0.167322
 Thermal correction to Gibbs Free Energy=         0.124887
 Sum of electronic and zero-point Energies=           -422.972528
 Sum of electronic and thermal Energies=              -422.963728
 Sum of electronic and thermal Enthalpies=            -422.962783
 Sum of electronic and thermal Free Energies=         -423.005219

                     E (Thermal)             CV                S
                      KCal/Mol        Cal/Mol-Kelvin    Cal/Mol-Kelvin
 Total                  104.404             34.287             89.313
 Electronic               0.000              0.000              0.000
 Translational            0.889              2.981             40.409
 Rotational               0.889              2.981             28.460
 Vibrational            102.626             28.325             20.445
 Vibration     1          0.622              1.891              2.545
 Vibration     2          0.627              1.873              2.377
 Vibration     3          0.633              1.855              2.238
 Vibration     4          0.636              1.847              2.179
 Vibration     5          0.643              1.823              2.027
 Vibration     6          0.684              1.697              1.490
 Vibration     7          0.716              1.605              1.235
 Vibration     8          0.753              1.503              1.022
 Vibration     9          0.766              1.469              0.961
 Vibration    10          0.843              1.279              0.692
 Vibration    11          0.896              1.159              0.563
 Vibration    12          0.922              1.105              0.513

 Optimization completed.
    -- Stationary point found.
 Normal termination of Gaussian 09 at Mon Jan 27 19:06:21 2020.
