 Gaussian 09, Revision D.01,
 Gaussian 09:  ES64L-G09RevD.01 24-Apr-2013

 -----------------------------
 # b3lyp 6-31G(2df,p) opt Freq
 -----------------------------

 -----
 titel
 -----
 Symbolic Z-matrix:
 Charge =  0 Multiplicity = 1

 SCF Done:  E(RB3LYP) =  -423.197421401     A.U. after   14 cycles
 Optimization completed.
    -- Stationary point found.
 Normal termination of Gaussian 09 at Mon Jan 27 16:34:55 2020.

 ----------------------------------------------------------------------
 #N Geom=AllCheck Guess=TCheck SCRF=Check GenChk RB3LYP/6-31G(2df,p) Fr
 eq
 ----------------------------------------------------------------------

 Structure from the checkpoint file:  "/scratch/puck/g09_b6d3dd47-ed88-4a85-a46a-dfd5f0782ead/Gau-70412.chk"
 -----
 titel
 -----
 Charge =  0 Multiplicity = 1

                         Standard orientation:
 ---------------------------------------------------------------------
 Center     Atomic      Atomic             Coordinates (Angstroms)
 Number     Number       Type             X           Y           Z
 ---------------------------------------------------------------------
      1          6           0        0.892395    1.825024   -0.616959
      2          6           0        0.130592    0.605596   -0.130927
      3          6           0        0.615380   -0.716241   -0.692321
      4          6           0        1.975594   -1.145966   -0.188445
      5          8           0        2.638335   -0.562290    0.631455
      6          6           0       -0.425277    0.625792    1.247641
      7          6           0       -1.391916    0.816608    0.082850
      8          6           0       -2.379841   -0.238819   -0.216316
      9          8           0       -2.250497   -1.417175    0.040855
     10          1           0        0.839811    1.916133   -1.707854
     11          1           0        0.490589    2.745150   -0.182591
     12          1           0        1.943828    1.745289   -0.327447
     13          1           0       -0.083446   -1.528079   -0.452516
     14          1           0        0.666284   -0.694304   -1.791396
     15          1           0        2.339410   -2.096204   -0.643273
     16          1           0       -0.522605   -0.319802    1.770018
     17          1           0       -0.234131    1.486695    1.878179
     18          1           0       -1.740782    1.824660   -0.115978
     19          1           0       -3.303218    0.124224   -0.718767
 ---------------------------------------------------------------------

 SCF Done:  E(RB3LYP) =  -423.197421401     A.U. after    1 cycles

 The electronic state is 1-A.
 Alpha  occ. eigenvalues --  -19.14264 -19.13853 -10.27514 -10.27297 -10.22392
 Alpha  occ. eigenvalues --  -10.20619 -10.20081 -10.19842 -10.18617  -1.04935
 Alpha  occ. eigenvalues --   -1.04475  -0.88583  -0.76416  -0.71976  -0.67644
 Alpha  occ. eigenvalues --   -0.60255  -0.56786  -0.53039  -0.51120  -0.48327
 Alpha  occ. eigenvalues --   -0.46834  -0.45179  -0.43516  -0.43197  -0.41470
 Alpha  occ. eigenvalues --   -0.39882  -0.39553  -0.38636  -0.36531  -0.35317
 Alpha  occ. eigenvalues --   -0.30726  -0.29558  -0.25694  -0.25021
 Alpha virt. eigenvalues --   -0.03090  -0.01988   0.08164   0.09627   0.11707
 Alpha virt. eigenvalues --    0.13178   0.14451   0.14722   0.15220   0.16239
 Alpha virt. eigenvalues --    0.17250   0.18511   0.19102   0.19572   0.22379

 Mulliken charges:
               1
     1  C   -0.467887
     2  C    0.367163
     3  C   -0.397630
     4  C    0.162000
     5  O   -0.240891
     6  C   -0.296633
     7  C   -0.178399
     8  C    0.141036
     9  O   -0.279050
    10  H    0.115979
    11  H    0.116120
    12  H    0.151246
    13  H    0.168633
    14  H    0.119254
    15  H    0.082462
    16  H    0.138626
    17  H    0.123712
    18  H    0.092672
    19  H    0.081584
 Sum of Mulliken charges =   0.00000

 Dipole moment (field-independent basis, Debye):
    X=             -0.8154    Y=              1.7820    Z=             -1.6443  Tot=              2.5582
 Quadrupole moment (field-independent basis, Debye-Ang):
   XX=            -60.5826   YY=            -52.9345   ZZ=            -52.0835
   XY=             -5.8119   XZ=             -3.0921   YZ=              1.4640

  Exact polarizability:  89.517   0.484  78.312   3.618   2.541  66.169
 Approx polarizability: 123.303   6.284 120.502  10.512   4.474 105.413

                      1                      2                      3
                      A                      A                      A
 Frequencies --     67.2932               125.2640               154.0614
 Red. masses --      5.6248                 3.8746                 5.1990
 Frc consts  --      0.0150                 0.0358                 0.0727
 IR Inten    --      3.0434                 8.1293                16.6764

                      4                      5                      6
                      A                      A                      A
 Frequencies --    171.2181               196.5122               210.0829
 Red. masses --      2.0749                 2.7578                 2.6350
 Frc consts  --      0.0358                 0.0627                 0.0685
 IR Inten    --      1.6162                 3.4389                 2.2647

                      7                      8                      9
                      A                      A                      A
 Frequencies --    241.3401               308.7535               348.7391
 Red. masses --      1.2209                 3.7496                 2.1901
 Frc consts  --      0.0419                 0.2106                 0.1569
 IR Inten    --      1.1917                 2.9308                 0.7037

                     10                     11                     12
                      A                      A                      A
 Frequencies --    388.3161               432.3007               608.0670
 Red. masses --      2.2294                 2.6712                 4.8166
 Frc consts  --      0.1981                 0.2941                 1.0493
 IR Inten    --      8.2386                 0.9255                 8.2924

                     13                     14                     15
                      A                      A                      A
 Frequencies --    709.9756               726.3319               772.2218
 Red. masses --      2.9719                 1.4456                 2.6648
 Frc consts  --      0.8826                 0.4493                 0.9363
 IR Inten    --      4.6328                 4.2471                10.6060

                     16                     17                     18
                      A                      A                      A
 Frequencies --    813.3026               856.2580               897.1880
 Red. masses --      3.0822                 3.6286                 2.0771
 Frc consts  --      1.2012                 1.5675                 0.9851
 IR Inten    --      6.4457                10.6554                45.3838

                     19                     20                     21
                      A                      A                      A
 Frequencies --    940.7063               982.1078              1017.5803
 Red. masses --      1.4751                 1.4707                 1.9309
 Frc consts  --      0.7691                 0.8358                 1.1780
 IR Inten    --      1.6903                15.7954                56.3013

                     22                     23                     24
                      A                      A                      A
 Frequencies --   1022.9662              1055.7989              1074.0968
 Red. masses --      1.7510                 1.7110                 1.4275
 Frc consts  --      1.0796                 1.1237                 0.9703
 IR Inten    --      5.3127                 0.4010                11.3620

                     25                     26                     27
                      A                      A                      A
 Frequencies --   1103.8412              1112.3705              1125.5455
 Red. masses --      1.6302                 1.6924                 1.3605
 Frc consts  --      1.1703                 1.2338                 1.0155
 IR Inten    --      0.6713                34.8153                 3.9203

                     28                     29                     30
                      A                      A                      A
 Frequencies --   1207.4184              1300.5328              1322.4602
 Red. masses --      1.5620                 1.9684                 1.5539
 Frc consts  --      1.3417                 1.9616                 1.6011
 IR Inten    --      1.2785                 1.7931                 9.3452

                     31                     32                     33
                      A                      A                      A
 Frequencies --   1366.5871              1410.4693              1416.6182
 Red. masses --      1.9542                 1.2950                 1.5952
 Frc consts  --      2.1503                 1.5179                 1.8862
 IR Inten    --     37.5708                11.3452                31.3286

                     34                     35                     36
                      A                      A                      A
 Frequencies --   1423.6788              1433.8498              1450.5806
 Red. masses --      1.1626                 1.3036                 1.1728
 Frc consts  --      1.3884                 1.5791                 1.4539
 IR Inten    --     12.8290                22.7776                 3.0477

                     37                     38                     39
                      A                      A                      A
 Frequencies --   1480.9072              1490.9219              1509.3464
 Red. masses --      1.3030                 1.0557                 1.1064
 Frc consts  --      1.6836                 1.3827                 1.4851
 IR Inten    --     17.9001                 4.8797                 6.9203

                     40                     41                     42
                      A                      A                      A
 Frequencies --   1788.1796              1827.5075              2866.7636
 Red. masses --      9.0383                 9.8166                 1.0828
 Frc consts  --     17.0278                19.3166                 5.2431
 IR Inten    --    145.6232               134.8736               151.5206

                     43                     44                     45
                      A                      A                      A
 Frequencies --   2888.1351              3009.2276              3033.1245
 Red. masses --      1.0829                 1.0663                 1.0373
 Frc consts  --      5.3221                 5.6888                 5.6223
 IR Inten    --    146.2055                29.2067                26.4207

                     46                     47                     48
                      A                      A                      A
 Frequencies --   3056.1531              3099.6986              3120.3344
 Red. masses --      1.0923                 1.0996                 1.1008
 Frc consts  --      6.0107                 6.2245                 6.3148
 IR Inten    --     12.7099                20.8675                 8.7776

                     49                     50                     51
                      A                      A                      A
 Frequencies --   3137.1677              3165.4609              3229.5298
 Red. masses --      1.0540                 1.0891                 1.1177
 Frc consts  --      6.1117                 6.4299                 6.8686
 IR Inten    --      7.0538                11.7400                 2.8796

 - Thermochemistry -
 -------------------
 Temperature   298.150 Kelvin.  Pressure   1.00000 Atm.
 Atom     1 has atomic number  6 and mass  12.00000

 Molecular mass:   126.06808 amu.
 Principal axes and moments of inertia in atomic units:
                           1         2         3
     Eigenvalues --   695.389921509.953441842.68705
           X            0.99987  -0.01132  -0.01122
           Y            0.01142   0.99990   0.00849
           Z            0.01112  -0.00862   0.99990
 This molecule is an asymmetric top.
 Rotational symmetry number  1.
 Warning -- assumption of classical behavior for rotation
           may cause significant error
 Rotational temperatures (Kelvin)      0.12455     0.05736     0.04700
 Rotational constants (GHZ):           2.59529     1.19523     0.97941
 Zero-point vibrational energy     409702.4 (Joules/Mol)
                                   97.92122 (Kcal/Mol)
 Warning -- explicit consideration of  12 degrees of freedom as
           vibrations may cause significant error
 Vibrational temperatures:     96.82   180.23   221.66   246.34   282.74
          (Kelvin)            302.26   347.23   444.23   501.76   558.70
                              621.98   874.87  1021.50  1045.03  1111.05
                             1170.16  1231.96  1290.85  1353.46  1413.03
                             1464.07  1471.82  1519.06  1545.38  1588.18
                             1600.45  1619.41  1737.20  1871.17  1902.72
                             1966.21  2029.35  2038.20  2048.35  2062.99
                             2087.06  2130.69  2145.10  2171.61  2572.79
                             2629.37  4124.63  4155.38  4329.60  4363.98
                             4397.12  4459.77  4489.46  4513.68  4554.39
                             4646.57

 Zero-point correction=                           0.156047 (Hartree/Particle)
 Thermal correction to Energy=                    0.165618
 Thermal correction to Enthalpy=                  0.166562
 Thermal correction to Gibbs Free Energy=         0.121501
 Sum of electronic and zero-point Energies=           -423.041374
 Sum of electronic and thermal Energies=              -423.031803
 Sum of electronic and thermal Enthalpies=            -423.030859
 Sum of electronic and thermal Free Energies=         -423.075921

                     E (Thermal)             CV                S
                      KCal/Mol        Cal/Mol-Kelvin    Cal/Mol-Kelvin
 Total                  103.927             34.561             94.840
 Electronic               0.000              0.000              0.000
 Translational            0.889              2.981             40.409
 Rotational               0.889              2.981             29.049
 Vibrational            102.149             28.599             25.382
 Vibration     1          0.598              1.970              4.231
 Vibration     2          0.610              1.928              3.018
 Vibration     3          0.620              1.898              2.621
 Vibration     4          0.626              1.878              2.422
 Vibration     5          0.636              1.845              2.166
 Vibration     6          0.642              1.825              2.043
 Vibration     7          0.658              1.777              1.793
 Vibration     8          0.698              1.657              1.369
 Vibration     9          0.726              1.578              1.172
 Vibration    10          0.756              1.495              1.007
 Vibration    11          0.793              1.400              0.851
 Vibration    12          0.967              1.015              0.436

 Normal termination of Gaussian 09 at Mon Jan 27 17:27:35 2020.
