 Gaussian 09, Revision D.01,
 Gaussian 09:  ES64L-G09RevD.01 24-Apr-2013

 -----------------------------
 # b3lyp 6-31G(2df,p) opt Freq
 -----------------------------

 -----
 titel
 -----
 Symbolic Z-matrix:
 Charge =  0 Multiplicity = 1

 SCF Done:  E(RB3LYP) =  -423.088396650     A.U. after   13 cycles
 Optimization completed.
    -- Stationary point found.
 Normal termination of Gaussian 09 at Mon Jan 27 22:14:45 2020.

 ----------------------------------------------------------------------
 #N Geom=AllCheck Guess=TCheck SCRF=Check GenChk RB3LYP/6-31G(2df,p) Fr
 eq
 ----------------------------------------------------------------------

 Structure from the checkpoint file:  "/scratch/puck/g09_2ef9d21b-6aee-45f4-93c9-acab2b65fa6e/Gau-28844.chk"
 -----
 titel
 -----
 Charge =  0 Multiplicity = 1

                         Standard orientation:
 ---------------------------------------------------------------------
 Center     Atomic      Atomic             Coordinates (Angstroms)
 Number     Number       Type             X           Y           Z
 ---------------------------------------------------------------------
      1          6           0        2.217722    1.164848   -0.626178
      2          6           0        1.918162   -0.228659   -0.074461
      3          6           0        1.031617   -0.655792    1.073903
      4          6           0        0.753514   -1.151410   -0.345790
      5          6           0       -0.664528   -0.528485   -0.255666
      6          8           0       -1.796043   -1.211982   -0.690841
      7          6           0       -0.767728    0.943974    0.052564
      8          8           0       -2.085212    1.405449    0.112002
      9          6           0       -0.393263   -0.043682    1.152583
     10          1           0        1.644177    1.387083   -1.530003
     11          1           0        2.017524    1.951124    0.106648
     12          1           0        3.276724    1.235260   -0.892218
     13          1           0        2.821251   -0.838469   -0.038216
     14          1           0        1.432888   -1.226497    1.902971
     15          1           0        0.882151   -2.153475   -0.738607
     16          1           0       -1.823129   -1.157197   -1.655434
     17          1           0       -0.104204    1.713128   -0.318174
     18          1           0       -2.651110    0.649944   -0.100702
     19          1           0       -1.019217   -0.113393    2.032707
 ---------------------------------------------------------------------

 SCF Done:  E(RB3LYP) =  -423.088396650     A.U. after    1 cycles

 The electronic state is 1-A.
 Alpha  occ. eigenvalues --  -19.16551 -19.13321 -10.24080 -10.23080 -10.20158
 Alpha  occ. eigenvalues --  -10.19551 -10.19357 -10.18454 -10.17907  -1.05325
 Alpha  occ. eigenvalues --   -1.01451  -0.90708  -0.79589  -0.71749  -0.63206
 Alpha  occ. eigenvalues --   -0.61801  -0.57500  -0.54778  -0.53131  -0.48773
 Alpha  occ. eigenvalues --   -0.46566  -0.45366  -0.43279  -0.41420  -0.40020
 Alpha  occ. eigenvalues --   -0.38909  -0.36471  -0.35243  -0.33963  -0.31170
 Alpha  occ. eigenvalues --   -0.30753  -0.28625  -0.23383  -0.20976
 Alpha virt. eigenvalues --    0.06018   0.07436   0.08662   0.10585   0.12596
 Alpha virt. eigenvalues --    0.14057   0.14562   0.15872   0.16362   0.16983
 Alpha virt. eigenvalues --    0.18173   0.19677   0.19982   0.21831   0.24013

 Mulliken charges:
               1
     1  C   -0.432095
     2  C   -0.018138
     3  C   -0.087662
     4  C   -0.169680
     5  C    0.323049
     6  O   -0.462571
     7  C    0.047022
     8  O   -0.450761
     9  C   -0.169630
    10  H    0.128046
    11  H    0.135246
    12  H    0.112084
    13  H    0.094095
    14  H    0.091850
    15  H    0.090902
    16  H    0.289429
    17  H    0.092022
    18  H    0.285285
    19  H    0.101507
 Sum of Mulliken charges =   0.00000

 Dipole moment (field-independent basis, Debye):
    X=              1.2722    Y=             -1.2557    Z=             -1.3358  Tot=              2.2315
 Quadrupole moment (field-independent basis, Debye-Ang):
   XX=            -52.3592   YY=            -56.6830   ZZ=            -49.4179
   XY=              1.9431   XZ=              2.6549   YZ=              0.2955

  Exact polarizability:  85.243  -0.400  71.007   0.641  -0.068  68.237
 Approx polarizability: 115.083  -0.540 106.766   3.355   3.117 110.132

                      1                      2                      3
                      A                      A                      A
 Frequencies --     71.3492               191.4324               209.7833
 Red. masses --      1.7865                 1.4963                 4.3414
 Frc consts  --      0.0054                 0.0323                 0.1126
 IR Inten    --      0.4488                 1.4592                 5.8721

                      4                      5                      6
                      A                      A                      A
 Frequencies --    260.5444               271.8119               279.4567
 Red. masses --      3.5103                 1.1994                 3.4218
 Frc consts  --      0.1404                 0.0522                 0.1574
 IR Inten    --     13.3834                53.0250                15.3633

                      7                      8                      9
                      A                      A                      A
 Frequencies --    322.6356               370.0944               462.0818
 Red. masses --      3.0839                 4.0796                 2.8286
 Frc consts  --      0.1891                 0.3292                 0.3558
 IR Inten    --      6.8340                 6.0342                 0.5084

                     10                     11                     12
                      A                      A                      A
 Frequencies --    485.2588               515.6081               634.3277
 Red. masses --      1.2929                 2.6139                 3.9844
 Frc consts  --      0.1794                 0.4094                 0.9446
 IR Inten    --     58.0472                23.5697                 4.0084

                     13                     14                     15
                      A                      A                      A
 Frequencies --    675.3674               682.1586               718.1189
 Red. masses --      4.4865                 3.2043                 2.5183
 Frc consts  --      1.2057                 0.8785                 0.7652
 IR Inten    --      1.3026                 6.1450                16.0253

                     16                     17                     18
                      A                      A                      A
 Frequencies --    837.6060               875.3144               880.4317
 Red. masses --      1.7909                 1.8988                 2.6082
 Frc consts  --      0.7403                 0.8572                 1.1912
 IR Inten    --      9.2426                25.8217                14.2879

                     19                     20                     21
                      A                      A                      A
 Frequencies --    907.1248               932.6757               968.3008
 Red. masses --      1.6461                 1.6490                 2.7434
 Frc consts  --      0.7980                 0.8451                 1.5155
 IR Inten    --      6.6457                 3.6133                 3.5380

                     22                     23                     24
                      A                      A                      A
 Frequencies --    986.1274              1057.7820              1069.7347
 Red. masses --      2.3626                 1.3590                 1.8834
 Frc consts  --      1.3537                 0.8959                 1.2699
 IR Inten    --      1.3332                10.8941                 8.9504

                     25                     26                     27
                      A                      A                      A
 Frequencies --   1074.8276              1078.6640              1116.7805
 Red. masses --      1.4491                 1.4742                 1.8256
 Frc consts  --      0.9863                 1.0106                 1.3415
 IR Inten    --      3.2991                13.8257                 2.2719

                     28                     29                     30
                      A                      A                      A
 Frequencies --   1130.0717              1174.9772              1194.7804
 Red. masses --      3.2302                 2.0100                 1.7058
 Frc consts  --      2.4305                 1.6349                 1.4347
 IR Inten    --     96.1981                11.6021                36.5692

                     31                     32                     33
                      A                      A                      A
 Frequencies --   1229.1098              1261.5494              1298.5582
 Red. masses --      1.8401                 1.4499                 1.8661
 Frc consts  --      1.6379                 1.3595                 1.8540
 IR Inten    --     16.2688                32.8555                76.8283

                     34                     35                     36
                      A                      A                      A
 Frequencies --   1306.3208              1337.4822              1393.9505
 Red. masses --      1.5019                 2.0176                 1.4612
 Frc consts  --      1.5100                 2.1265                 1.6728
 IR Inten    --      6.8169                 7.6126                27.7981

                     37                     38                     39
                      A                      A                      A
 Frequencies --   1415.7807              1436.7263              1464.9707
 Red. masses --      1.2853                 1.6648                 2.1995
 Frc consts  --      1.5179                 2.0247                 2.7812
 IR Inten    --      6.6901                16.4380                44.9505

                     40                     41                     42
                      A                      A                      A
 Frequencies --   1501.3224              1509.7334              3041.3853
 Red. masses --      1.0442                 1.0528                 1.0360
 Frc consts  --      1.3867                 1.4139                 5.6462
 IR Inten    --      6.6247                10.7488                25.5635

                     43                     44                     45
                      A                      A                      A
 Frequencies --   3092.2719              3111.4737              3115.2709
 Red. masses --      1.0918                 1.0942                 1.1021
 Frc consts  --      6.1510                 6.2412                 6.3017
 IR Inten    --      1.9777                37.8998                14.0474

                     46                     47                     48
                      A                      A                      A
 Frequencies --   3169.6778              3179.9811              3202.4680
 Red. masses --      1.0883                 1.0948                 1.0929
 Frc consts  --      6.4419                 6.5230                 6.6040
 IR Inten    --     16.2641                20.8452                 6.7926

                     49                     50                     51
                      A                      A                      A
 Frequencies --   3207.5484              3734.4715              3749.8072
 Red. masses --      1.0886                 1.0652                 1.0655
 Frc consts  --      6.5986                 8.7525                 8.8274
 IR Inten    --     17.4350                49.4589                13.0834

 - Thermochemistry -
 -------------------
 Temperature   298.150 Kelvin.  Pressure   1.00000 Atm.
 Atom     1 has atomic number  6 and mass  12.00000

 Molecular mass:   126.06808 amu.
 Principal axes and moments of inertia in atomic units:
                           1         2         3
     Eigenvalues --   660.568741274.405481514.19767
           X            0.99961   0.02627  -0.00935
           Y           -0.02662   0.99885  -0.03993
           Z            0.00829   0.04016   0.99916
 This molecule is an asymmetric top.
 Rotational symmetry number  1.
 Warning -- assumption of classical behavior for rotation
           may cause significant error
 Rotational temperatures (Kelvin)      0.13112     0.06796     0.05720
 Rotational constants (GHZ):           2.73210     1.41614     1.19188
 Zero-point vibrational energy     413878.5 (Joules/Mol)
                                   98.91934 (Kcal/Mol)
 Warning -- explicit consideration of  11 degrees of freedom as
           vibrations may cause significant error
 Vibrational temperatures:    102.66   275.43   301.83   374.86   391.08
          (Kelvin)            402.08   464.20   532.48   664.83   698.18
                              741.84   912.65   971.70   981.47  1033.21
                             1205.13  1259.38  1266.74  1305.15  1341.91
                             1393.17  1418.82  1521.91  1539.11  1546.44
                             1551.96  1606.80  1625.92  1690.53  1719.02
                             1768.41  1815.09  1868.33  1879.50  1924.34
                             2005.58  2036.99  2067.13  2107.76  2160.07
                             2172.17  4375.87  4449.08  4476.71  4482.17
                             4560.45  4575.28  4607.63  4614.94  5373.06
                             5395.13

 Zero-point correction=                           0.157638 (Hartree/Particle)
 Thermal correction to Energy=                    0.166337
 Thermal correction to Enthalpy=                  0.167281
 Thermal correction to Gibbs Free Energy=         0.124681
 Sum of electronic and zero-point Energies=           -422.930759
 Sum of electronic and thermal Energies=              -422.922060
 Sum of electronic and thermal Enthalpies=            -422.921116
 Sum of electronic and thermal Free Energies=         -422.963716

                     E (Thermal)             CV                S
                      KCal/Mol        Cal/Mol-Kelvin    Cal/Mol-Kelvin
 Total                  104.378             34.177             89.659
 Electronic               0.000              0.000              0.000
 Translational            0.889              2.981             40.409
 Rotational               0.889              2.981             28.635
 Vibrational            102.600             28.215             20.615
 Vibration     1          0.598              1.968              4.116
 Vibration     2          0.634              1.852              2.214
 Vibration     3          0.642              1.826              2.046
 Vibration     4          0.669              1.745              1.658
 Vibration     5          0.675              1.725              1.585
 Vibration     6          0.680              1.712              1.537
 Vibration     7          0.708              1.630              1.297
 Vibration     8          0.742              1.534              1.079
 Vibration     9          0.820              1.334              0.760
 Vibration    10          0.841              1.283              0.696
 Vibration    11          0.871              1.215              0.620

 Optimization completed.
    -- Stationary point found.
 Normal termination of Gaussian 09 at Tue Jan 28 00:30:16 2020.
