 Gaussian 09, Revision D.01,
 Gaussian 09:  ES64L-G09RevD.01 24-Apr-2013

 -----------------------------
 # b3lyp 6-31G(2df,p) opt Freq
 -----------------------------

 -----
 titel
 -----
 Symbolic Z-matrix:
 Charge =  0 Multiplicity = 1

 SCF Done:  E(RB3LYP) =  -423.204838586     A.U. after   14 cycles
 Optimization completed.
    -- Stationary point found.
 Normal termination of Gaussian 09 at Mon Jan 27 14:12:48 2020.

 ----------------------------------------------------------------------
 #N Geom=AllCheck Guess=TCheck SCRF=Check GenChk RB3LYP/6-31G(2df,p) Fr
 eq
 ----------------------------------------------------------------------

 Structure from the checkpoint file:  "/scratch/puck/g09_932ab4b1-0f84-494f-b109-a4cb07427936/Gau-171156.chk"
 -----
 titel
 -----
 Charge =  0 Multiplicity = 1

                         Standard orientation:
 ---------------------------------------------------------------------
 Center     Atomic      Atomic             Coordinates (Angstroms)
 Number     Number       Type             X           Y           Z
 ---------------------------------------------------------------------
      1          6           0       -2.586082   -0.885622   -0.912028
      2          6           0       -1.932838   -0.070391    0.186842
      3          8           0       -2.069650   -0.335029    1.358869
      4          6           0       -1.052375    1.100805   -0.253358
      5          6           0        0.368095    0.632643   -0.526085
      6          6           0        1.539728    1.483734   -0.185557
      7          6           0        1.254523    0.245583    0.658804
      8          6           0        2.145725   -0.924589    0.482211
      9          8           0        2.686332   -1.211091   -0.562096
     10          1           0       -1.846914   -1.190836   -1.661101
     11          1           0       -3.074797   -1.764286   -0.490014
     12          1           0       -3.328092   -0.270093   -1.434717
     13          1           0       -1.457417    1.575967   -1.154640
     14          1           0       -1.052519    1.835543    0.556710
     15          1           0        0.501113   -0.013362   -1.389483
     16          1           0        2.411781    1.419967   -0.826501
     17          1           0        1.365818    2.445996    0.283333
     18          1           0        0.834902    0.387412    1.648168
     19          1           0        2.292011   -1.550329    1.389085
 ---------------------------------------------------------------------

 SCF Done:  E(RB3LYP) =  -423.204838586     A.U. after    1 cycles

 The electronic state is 1-A.
 Alpha  occ. eigenvalues --  -19.13412 -19.13338 -10.27604 -10.26942 -10.21889
 Alpha  occ. eigenvalues --  -10.20602 -10.20507 -10.20316 -10.19444  -1.04414
 Alpha  occ. eigenvalues --   -1.04140  -0.88248  -0.77543  -0.72490  -0.67407
 Alpha  occ. eigenvalues --   -0.60027  -0.55630  -0.54433  -0.50931  -0.48118
 Alpha  occ. eigenvalues --   -0.46728  -0.45423  -0.44331  -0.42987  -0.40478
 Alpha  occ. eigenvalues --   -0.40269  -0.39622  -0.38201  -0.37588  -0.34862
 Alpha  occ. eigenvalues --   -0.32381  -0.29621  -0.25421  -0.24574
 Alpha virt. eigenvalues --   -0.02521  -0.01837   0.07730   0.09388   0.11539
 Alpha virt. eigenvalues --    0.13141   0.13742   0.14589   0.14985   0.15417
 Alpha virt. eigenvalues --    0.16657   0.17187   0.19334   0.20497   0.22229

 Mulliken charges:
               1
     1  C   -0.478471
     2  C    0.392793
     3  O   -0.300627
     4  C   -0.324589
     5  C    0.007255
     6  C   -0.293288
     7  C   -0.101439
     8  C    0.131221
     9  O   -0.273262
    10  H    0.143488
    11  H    0.145167
    12  H    0.143116
    13  H    0.111271
    14  H    0.120928
    15  H    0.115706
    16  H    0.141602
    17  H    0.122691
    18  H    0.113146
    19  H    0.083292
 Sum of Mulliken charges =   0.00000

 Dipole moment (field-independent basis, Debye):
    X=             -1.2267    Y=              1.8626    Z=             -0.9192  Tot=              2.4122
 Quadrupole moment (field-independent basis, Debye-Ang):
   XX=            -58.5659   YY=            -52.3508   ZZ=            -55.1061
   XY=              2.9169   XZ=              9.7680   YZ=             -0.5802

  Exact polarizability:  83.593  -1.238  74.725   1.159  -2.534  73.696
 Approx polarizability: 108.259  -4.959 108.147  -5.167  -3.566 125.519

                      1                      2                      3
                      A                      A                      A
 Frequencies --     26.8192                64.4788                73.8348
 Red. masses --      4.2214                 3.3576                 7.9530
 Frc consts  --      0.0018                 0.0082                 0.0255
 IR Inten    --      5.5424                 8.6565                 3.1474

                      4                      5                      6
                      A                      A                      A
 Frequencies --    126.1000               140.9018               222.0996
 Red. masses --      2.0835                 1.1874                 3.1435
 Frc consts  --      0.0195                 0.0139                 0.0914
 IR Inten    --      5.3220                 0.6262                 5.2483

                      7                      8                      9
                      A                      A                      A
 Frequencies --    241.5671               332.3750               357.4329
 Red. masses --      3.7926                 3.6776                 2.3362
 Frc consts  --      0.1304                 0.2394                 0.1758
 IR Inten    --      1.5518                 0.9531                 2.2493

                     10                     11                     12
                      A                      A                      A
 Frequencies --    413.8921               527.4082               588.3157
 Red. masses --      2.0566                 3.1789                 2.4832
 Frc consts  --      0.2076                 0.5210                 0.5064
 IR Inten    --      0.6710                13.7214                 3.5844

                     13                     14                     15
                      A                      A                      A
 Frequencies --    698.2825               759.8699               791.5303
 Red. masses --      3.2752                 3.2135                 3.2491
 Frc consts  --      0.9409                 1.0932                 1.1994
 IR Inten    --     10.5772                 0.2126                 0.3706

                     16                     17                     18
                      A                      A                      A
 Frequencies --    818.2892               875.0987               906.4867
 Red. masses --      1.9156                 1.8264                 1.9299
 Frc consts  --      0.7557                 0.8241                 0.9343
 IR Inten    --      3.1949                 5.1930                19.1141

                     19                     20                     21
                      A                      A                      A
 Frequencies --    926.4093               980.6590              1036.1298
 Red. masses --      1.7105                 1.6303                 2.4803
 Frc consts  --      0.8649                 0.9237                 1.5688
 IR Inten    --     10.0183                36.1876                74.2438

                     22                     23                     24
                      A                      A                      A
 Frequencies --   1055.9066              1058.4937              1086.2991
 Red. masses --      2.0030                 1.6334                 1.4059
 Frc consts  --      1.3158                 1.0782                 0.9775
 IR Inten    --      1.2411                 3.7081                 4.5611

                     25                     26                     27
                      A                      A                      A
 Frequencies --   1104.2158              1121.6200              1132.6183
 Red. masses --      1.2757                 1.5873                 1.2667
 Frc consts  --      0.9164                 1.1766                 0.9574
 IR Inten    --      5.9130                15.1074                 2.6481

                     28                     29                     30
                      A                      A                      A
 Frequencies --   1201.3068              1227.9627              1256.8042
 Red. masses --      1.7871                 1.9435                 1.4681
 Frc consts  --      1.5195                 1.7266                 1.3663
 IR Inten    --     16.9999                21.9479                41.0882

                     31                     32                     33
                      A                      A                      A
 Frequencies --   1310.6982              1346.5594              1381.2925
 Red. masses --      1.5600                 1.3602                 1.3280
 Frc consts  --      1.5790                 1.4532                 1.4929
 IR Inten    --     21.7348                12.3121                40.4643

                     34                     35                     36
                      A                      A                      A
 Frequencies --   1420.5086              1429.5128              1459.5907
 Red. masses --      1.4580                 1.3915                 1.0557
 Frc consts  --      1.7334                 1.6754                 1.3251
 IR Inten    --     14.5951                28.5942                 9.3335

                     37                     38                     39
                      A                      A                      A
 Frequencies --   1472.2574              1475.5622              1478.8302
 Red. masses --      1.1077                 1.2904                 1.1389
 Frc consts  --      1.4146                 1.6554                 1.4675
 IR Inten    --      1.5782                22.4310                 6.3574

                     40                     41                     42
                      A                      A                      A
 Frequencies --   1801.0682              1813.3817              2897.4418
 Red. masses --      9.2415                10.5014                 1.0838
 Frc consts  --     17.6626                20.3459                 5.3608
 IR Inten    --    157.5592               122.4867               131.3275

                     43                     44                     45
                      A                      A                      A
 Frequencies --   3032.5296              3038.1050              3093.3564
 Red. masses --      1.0432                 1.0547                 1.0975
 Frc consts  --      5.6522                 5.7356                 6.1876
 IR Inten    --      3.0404                15.9792                 8.3098

                     46                     47                     48
                      A                      A                      A
 Frequencies --   3098.4060              3136.9291              3153.3891
 Red. masses --      1.1019                 1.0536                 1.0929
 Frc consts  --      6.2326                 6.1085                 6.4033
 IR Inten    --      9.1103                 9.2818                 8.3490

                     49                     50                     51
                      A                      A                      A
 Frequencies --   3154.6358              3184.8370              3232.9161
 Red. masses --      1.0965                 1.0899                 1.1176
 Frc consts  --      6.4291                 6.5135                 6.8820
 IR Inten    --      6.6284                 3.4615                 2.0862

 - Thermochemistry -
 -------------------
 Temperature   298.150 Kelvin.  Pressure   1.00000 Atm.
 Atom     1 has atomic number  6 and mass  12.00000

 Molecular mass:   126.06808 amu.
 Principal axes and moments of inertia in atomic units:
                           1         2         3
     Eigenvalues --   655.579831926.728452074.10607
           X            0.99926   0.02102   0.03220
           Y           -0.02152   0.99965   0.01523
           Z           -0.03187  -0.01591   0.99937
 This molecule is an asymmetric top.
 Rotational symmetry number  1.
 Warning -- assumption of classical behavior for rotation
           may cause significant error
 Rotational temperatures (Kelvin)      0.13212     0.04495     0.04176
 Rotational constants (GHZ):           2.75289     0.93669     0.87013
 Zero-point vibrational energy     410109.9 (Joules/Mol)
                                   98.01861 (Kcal/Mol)
 Warning -- explicit consideration of  12 degrees of freedom as
           vibrations may cause significant error
 Vibrational temperatures:     38.59    92.77   106.23   181.43   202.73
          (Kelvin)            319.55   347.56   478.21   514.27   595.50
                              758.82   846.45  1004.67  1093.28  1138.83
                             1177.33  1259.07  1304.23  1332.89  1410.95
                             1490.76  1519.21  1522.93  1562.94  1588.72
                             1613.76  1629.58  1728.41  1766.76  1808.26
                             1885.80  1937.40  1987.37  2043.79  2056.75
                             2100.02  2118.25  2123.00  2127.70  2591.33
                             2609.05  4168.77  4363.13  4371.15  4450.64
                             4457.91  4513.34  4537.02  4538.81  4582.26
                             4651.44

 Zero-point correction=                           0.156203 (Hartree/Particle)
 Thermal correction to Energy=                    0.166139
 Thermal correction to Enthalpy=                  0.167083
 Thermal correction to Gibbs Free Energy=         0.119439
 Sum of electronic and zero-point Energies=           -423.048636
 Sum of electronic and thermal Energies=              -423.038699
 Sum of electronic and thermal Enthalpies=            -423.037755
 Sum of electronic and thermal Free Energies=         -423.085399

                     E (Thermal)             CV                S
                      KCal/Mol        Cal/Mol-Kelvin    Cal/Mol-Kelvin
 Total                  104.254             34.472            100.276
 Electronic               0.000              0.000              0.000
 Translational            0.889              2.981             40.409
 Rotational               0.889              2.981             29.351
 Vibrational            102.476             28.511             30.517
 Vibration     1          0.593              1.984              6.052
 Vibration     2          0.597              1.971              4.315
 Vibration     3          0.599              1.966              4.048
 Vibration     4          0.611              1.927              3.005
 Vibration     5          0.615              1.912              2.792
 Vibration     6          0.648              1.807              1.942
 Vibration     7          0.658              1.777              1.791
 Vibration     8          0.714              1.611              1.249
 Vibration     9          0.733              1.560              1.133
 Vibration    10          0.777              1.440              0.913
 Vibration    11          0.882              1.189              0.593
 Vibration    12          0.946              1.057              0.470

 Normal termination of Gaussian 09 at Mon Jan 27 14:54:44 2020.
