 Gaussian 09, Revision D.01,
 Gaussian 09:  ES64L-G09RevD.01 24-Apr-2013

 -----------------------------
 # b3lyp 6-31G(2df,p) opt Freq
 -----------------------------

 -----
 titel
 -----
 Symbolic Z-matrix:
 Charge =  0 Multiplicity = 1

 SCF Done:  E(RB3LYP) =  -423.149009914     A.U. after   13 cycles
 Optimization completed.
    -- Stationary point found.
 Normal termination of Gaussian 09 at Mon Jan 27 11:19:23 2020.

 ----------------------------------------------------------------------
 #N Geom=AllCheck Guess=TCheck SCRF=Check GenChk RB3LYP/6-31G(2df,p) Fr
 eq
 ----------------------------------------------------------------------

 Structure from the checkpoint file:  "/scratch/puck/g09_cd75c159-0c6e-4da7-8f0c-0b4e9b27b102/Gau-164692.chk"
 -----
 titel
 -----
 Charge =  0 Multiplicity = 1

                         Standard orientation:
 ---------------------------------------------------------------------
 Center     Atomic      Atomic             Coordinates (Angstroms)
 Number     Number       Type             X           Y           Z
 ---------------------------------------------------------------------
      1          6           0        2.131308    0.446537   -0.047137
      2          6           0        1.002557   -0.148642   -0.856902
      3          8           0        0.453852   -1.444004   -0.734454
      4          6           0       -0.565391   -1.271494    0.275632
      5          6           0        0.188697   -0.487592    1.346876
      6          6           0        0.694066    0.615517    0.401333
      7          6           0       -0.388717    1.641099    0.190900
      8          8           0       -1.465947    0.976814   -0.497150
      9          6           0       -1.758021   -0.385323   -0.166914
     10          1           0        2.756954   -0.173266    0.587266
     11          1           0        2.654748    1.270139   -0.525548
     12          1           0        0.797464    0.318317   -1.815078
     13          1           0       -0.930946   -2.266339    0.547030
     14          1           0       -0.444029   -0.094237    2.146892
     15          1           0        0.991705   -1.082454    1.787498
     16          1           0       -0.745597    2.072220    1.138370
     17          1           0       -0.086867    2.461800   -0.467070
     18          1           0       -2.494616   -0.427415    0.653444
     19          1           0       -2.229047   -0.801860   -1.062703
 ---------------------------------------------------------------------

 SCF Done:  E(RB3LYP) =  -423.149009914     A.U. after    1 cycles

 The electronic state is 1-A.
 Alpha  occ. eigenvalues --  -19.14113 -19.13590 -10.23635 -10.23413 -10.22907
 Alpha  occ. eigenvalues --  -10.22575 -10.20056 -10.19407 -10.18716  -1.04739
 Alpha  occ. eigenvalues --   -1.01448  -0.85787  -0.77739  -0.73120  -0.65255
 Alpha  occ. eigenvalues --   -0.62225  -0.57459  -0.55960  -0.50439  -0.49920
 Alpha  occ. eigenvalues --   -0.46750  -0.45303  -0.43149  -0.42453  -0.40883
 Alpha  occ. eigenvalues --   -0.39289  -0.38310  -0.37447  -0.35354  -0.31301
 Alpha  occ. eigenvalues --   -0.29077  -0.27385  -0.25769  -0.23287
 Alpha virt. eigenvalues --    0.08205   0.09422   0.09929   0.11540   0.12174
 Alpha virt. eigenvalues --    0.12888   0.14176   0.15843   0.16203   0.16652
 Alpha virt. eigenvalues --    0.16800   0.18898   0.19986   0.21035   0.22457

 Mulliken charges:
               1
     1  C   -0.405692
     2  C    0.106863
     3  O   -0.278126
     4  C    0.085632
     5  C   -0.273639
     6  C    0.240204
     7  C   -0.160874
     8  O   -0.270993
     9  C   -0.075372
    10  H    0.120879
    11  H    0.117495
    12  H    0.102904
    13  H    0.079048
    14  H    0.100961
    15  H    0.102834
    16  H    0.091513
    17  H    0.109003
    18  H    0.090741
    19  H    0.116619
 Sum of Mulliken charges =   0.00000

 Dipole moment (field-independent basis, Debye):
    X=              0.3373    Y=              0.4972    Z=              1.4916  Tot=              1.6080
 Quadrupole moment (field-independent basis, Debye-Ang):
   XX=            -52.7917   YY=            -54.1069   ZZ=            -53.0056
   XY=              4.4248   XZ=             -1.1672   YZ=             -2.1143

  Exact polarizability:  81.334   5.452  72.884  -1.871  -2.177  67.296
 Approx polarizability: 112.830   5.449 108.496  -2.942   0.162 106.017

                      1                      2                      3
                      A                      A                      A
 Frequencies --    177.1306               242.2014               334.9148
 Red. masses --      3.4107                 2.8593                 2.4793
 Frc consts  --      0.0631                 0.0988                 0.1638
 IR Inten    --      5.6310                 1.3315                 0.8442

                      4                      5                      6
                      A                      A                      A
 Frequencies --    348.6147               400.5046               460.5360
 Red. masses --      2.3407                 2.2523                 2.5990
 Frc consts  --      0.1676                 0.2129                 0.3248
 IR Inten    --      0.6679                 2.9383                 0.6073

                      7                      8                      9
                      A                      A                      A
 Frequencies --    487.8410               605.2582               643.8980
 Red. masses --      4.5228                 3.7046                 3.2093
 Frc consts  --      0.6342                 0.7996                 0.7840
 IR Inten    --      5.1236                13.4606                 1.9882

                     10                     11                     12
                      A                      A                      A
 Frequencies --    764.0323               780.2938               820.1042
 Red. masses --      3.9968                 3.6006                 2.5872
 Frc consts  --      1.3746                 1.2916                 1.0252
 IR Inten    --      4.6945                11.0603                 2.7567

                     13                     14                     15
                      A                      A                      A
 Frequencies --    840.6581               870.4646               915.5981
 Red. masses --      3.1929                 2.9306                 2.4203
 Frc consts  --      1.3294                 1.3083                 1.1954
 IR Inten    --     30.8159                18.3661                 3.2631

                     16                     17                     18
                      A                      A                      A
 Frequencies --    939.3082               946.7300               970.8636
 Red. masses --      2.4291                 1.7835                 2.2740
 Frc consts  --      1.2627                 0.9418                 1.2629
 IR Inten    --     24.7828                10.0293                16.8108

                     19                     20                     21
                      A                      A                      A
 Frequencies --    987.3904              1016.7227              1032.7851
 Red. masses --      1.7728                 2.3105                 2.2450
 Frc consts  --      1.0183                 1.4072                 1.4108
 IR Inten    --      8.5549                 1.0513                 1.5455

                     22                     23                     24
                      A                      A                      A
 Frequencies --   1049.9866              1075.2295              1084.2942
 Red. masses --      1.5803                 1.3979                 2.8864
 Frc consts  --      1.0265                 0.9522                 1.9994
 IR Inten    --     40.3953                14.8436                39.8116

                     25                     26                     27
                      A                      A                      A
 Frequencies --   1106.5277              1141.8127              1171.4251
 Red. masses --      1.8584                 2.3430                 1.7356
 Frc consts  --      1.3407                 1.7997                 1.4032
 IR Inten    --      2.2402                21.3388                88.5070

                     28                     29                     30
                      A                      A                      A
 Frequencies --   1215.7758              1255.4448              1276.3388
 Red. masses --      1.4919                 1.4325                 1.6742
 Frc consts  --      1.2993                 1.3303                 1.6069
 IR Inten    --      0.8258                 3.6048                 8.6613

                     31                     32                     33
                      A                      A                      A
 Frequencies --   1287.1798              1314.7035              1329.3714
 Red. masses --      1.3295                 1.3736                 1.5120
 Frc consts  --      1.2978                 1.3988                 1.5743
 IR Inten    --      1.4880                 0.8672                 1.4152

                     34                     35                     36
                      A                      A                      A
 Frequencies --   1342.6695              1371.4472              1398.2328
 Red. masses --      1.5080                 1.3449                 1.3743
 Frc consts  --      1.6018                 1.4904                 1.5831
 IR Inten    --      2.0512                 5.3326                 2.0078

                     37                     38                     39
                      A                      A                      A
 Frequencies --   1420.2812              1473.1393              1489.0687
 Red. masses --      1.6766                 1.3072                 1.1060
 Frc consts  --      1.9927                 1.6715                 1.4449
 IR Inten    --     10.6731                 3.2739                 4.3114

                     40                     41                     42
                      A                      A                      A
 Frequencies --   1495.2532              1512.6598              2962.9058
 Red. masses --      1.0962                 1.0990                 1.0710
 Frc consts  --      1.4439                 1.4815                 5.5394
 IR Inten    --      2.5213                 1.0893                61.2447

                     43                     44                     45
                      A                      A                      A
 Frequencies --   2989.6823              3061.3944              3076.0290
 Red. masses --      1.0686                 1.0606                 1.0929
 Frc consts  --      5.6275                 5.8567                 6.0928
 IR Inten    --     78.1734                19.1239                 8.4013

                     46                     47                     48
                      A                      A                      A
 Frequencies --   3078.4018              3082.5508              3114.3144
 Red. masses --      1.0922                 1.0871                 1.0951
 Frc consts  --      6.0981                 6.0863                 6.2580
 IR Inten    --     57.3606                47.8423                 9.3069

                     49                     50                     51
                      A                      A                      A
 Frequencies --   3116.9705              3155.1587              3206.4951
 Red. masses --      1.0664                 1.0893                 1.1158
 Frc consts  --      6.1044                 6.3893                 6.7595
 IR Inten    --     30.7040                13.6425                 9.4601

 - Thermochemistry -
 -------------------
 Temperature   298.150 Kelvin.  Pressure   1.00000 Atm.
 Atom     1 has atomic number  6 and mass  12.00000

 Molecular mass:   126.06808 amu.
 Principal axes and moments of inertia in atomic units:
                           1         2         3
     Eigenvalues --   689.03644 874.383851121.95606
           X            0.99482   0.10121  -0.00984
           Y           -0.10154   0.99394  -0.04209
           Z            0.00552   0.04287   0.99907
 This molecule is an asymmetric top.
 Rotational symmetry number  1.
 Warning -- assumption of classical behavior for rotation
           may cause significant error
 Rotational temperatures (Kelvin)      0.12570     0.09906     0.07720
 Rotational constants (GHZ):           2.61922     2.06401     1.60857
 Zero-point vibrational energy     426113.4 (Joules/Mol)
                                  101.84354 (Kcal/Mol)
 Warning -- explicit consideration of   8 degrees of freedom as
           vibrations may cause significant error
 Vibrational temperatures:    254.85   348.47   481.87   501.58   576.24
          (Kelvin)            662.61   701.89   870.83   926.42  1099.27
                             1122.67  1179.95  1209.52  1252.40  1317.34
                             1351.45  1362.13  1396.85  1420.63  1462.84
                             1485.95  1510.69  1547.01  1560.06  1592.04
                             1642.81  1685.42  1749.23  1806.30  1836.36
                             1851.96  1891.56  1912.67  1931.80  1973.20
                             2011.74  2043.47  2119.52  2142.44  2151.33
                             2176.38  4262.96  4301.48  4404.66  4425.71
                             4429.13  4435.10  4480.80  4484.62  4539.56
                             4613.43

 Zero-point correction=                           0.162298 (Hartree/Particle)
 Thermal correction to Energy=                    0.168997
 Thermal correction to Enthalpy=                  0.169941
 Thermal correction to Gibbs Free Energy=         0.131642
 Sum of electronic and zero-point Energies=           -422.986712
 Sum of electronic and thermal Energies=              -422.980013
 Sum of electronic and thermal Enthalpies=            -422.979069
 Sum of electronic and thermal Free Energies=         -423.017368

                     E (Thermal)             CV                S
                      KCal/Mol        Cal/Mol-Kelvin    Cal/Mol-Kelvin
 Total                  106.047             28.230             80.608
 Electronic               0.000              0.000              0.000
 Translational            0.889              2.981             40.409
 Rotational               0.889              2.981             28.004
 Vibrational            104.270             22.268             12.195
 Vibration     1          0.628              1.871              2.358
 Vibration     2          0.658              1.776              1.787
 Vibration     3          0.716              1.606              1.236
 Vibration     4          0.726              1.578              1.172
 Vibration     5          0.766              1.469              0.961
 Vibration     6          0.818              1.338              0.765
 Vibration     7          0.844              1.277              0.689
 Vibration     8          0.964              1.021              0.441

 Normal termination of Gaussian 09 at Mon Jan 27 12:10:36 2020.
