 Gaussian 09, Revision D.01,
 Gaussian 09:  ES64L-G09RevD.01 24-Apr-2013

 -----------------------------
 # b3lyp 6-31G(2df,p) opt Freq
 -----------------------------

 -----
 titel
 -----
 Symbolic Z-matrix:
 Charge =  0 Multiplicity = 1

 SCF Done:  E(RB3LYP) =  -423.162744281     A.U. after   13 cycles
 Optimization completed.
    -- Stationary point found.
 Normal termination of Gaussian 09 at Mon Jan 27 17:14:51 2020.

 ----------------------------------------------------------------------
 #N Geom=AllCheck Guess=TCheck SCRF=Check GenChk RB3LYP/6-31G(2df,p) Fr
 eq
 ----------------------------------------------------------------------

 Structure from the checkpoint file:  "/scratch/puck/g09_be602eaa-5359-45ce-9572-8b7a66daa8b7/Gau-32516.chk"
 -----
 titel
 -----
 Charge =  0 Multiplicity = 1

                         Standard orientation:
 ---------------------------------------------------------------------
 Center     Atomic      Atomic             Coordinates (Angstroms)
 Number     Number       Type             X           Y           Z
 ---------------------------------------------------------------------
      1          6           0        1.402806    1.734618   -0.511179
      2          6           0        0.393337    0.763260    0.047848
      3          6           0        0.629744    0.063568    1.379282
      4          6           0        0.635027   -0.735849    0.104364
      5          8           0        1.848968   -1.249157   -0.362058
      6          6           0       -0.641884   -1.466964   -0.337704
      7          6           0       -1.683970   -0.381891   -0.556122
      8          8           0       -2.010875    0.390573    0.607628
      9          6           0       -1.066434    0.936004   -0.325582
     10          1           0        2.414582    1.339254   -0.392449
     11          1           0        1.240434    1.902147   -1.582267
     12          1           0        1.348951    2.706534   -0.008087
     13          1           0        1.601682    0.232954    1.833069
     14          1           0       -0.203866   -0.030409    2.064309
     15          1           0        2.191183   -1.859661    0.299254
     16          1           0       -0.433549   -1.969269   -1.288705
     17          1           0       -0.979505   -2.226059    0.376549
     18          1           0       -2.511005   -0.548158   -1.242236
     19          1           0       -1.385409    1.844861   -0.829441
 ---------------------------------------------------------------------

 SCF Done:  E(RB3LYP) =  -423.162744281     A.U. after    1 cycles

 The electronic state is 1-A.
 Alpha  occ. eigenvalues --  -19.14686 -19.14550 -10.23625 -10.23263 -10.23231
 Alpha  occ. eigenvalues --  -10.19366 -10.18576 -10.17916 -10.17662  -1.06887
 Alpha  occ. eigenvalues --   -1.03031  -0.86082  -0.75141  -0.71325  -0.66181
 Alpha  occ. eigenvalues --   -0.61030  -0.58026  -0.54804  -0.51243  -0.48260
 Alpha  occ. eigenvalues --   -0.45979  -0.43728  -0.42287  -0.41830  -0.40838
 Alpha  occ. eigenvalues --   -0.39431  -0.38095  -0.35497  -0.34924  -0.32566
 Alpha  occ. eigenvalues --   -0.29145  -0.27515  -0.25607  -0.24738
 Alpha virt. eigenvalues --    0.06953   0.09351   0.10313   0.11718   0.13343
 Alpha virt. eigenvalues --    0.13688   0.14419   0.14799   0.16635   0.16996
 Alpha virt. eigenvalues --    0.17454   0.18415   0.20233   0.21067   0.22348

 Mulliken charges:
               1
     1  C   -0.493731
     2  C    0.280081
     3  C   -0.394478
     4  C    0.343305
     5  O   -0.465346
     6  C   -0.325455
     7  C    0.043422
     8  O   -0.257013
     9  C   -0.030313
    10  H    0.131749
    11  H    0.117041
    12  H    0.117493
    13  H    0.104086
    14  H    0.131800
    15  H    0.284517
    16  H    0.115488
    17  H    0.109302
    18  H    0.096399
    19  H    0.091653
 Sum of Mulliken charges =   0.00000

 Dipole moment (field-independent basis, Debye):
    X=              0.7840    Y=             -0.7267    Z=             -0.2512  Tot=              1.0981
 Quadrupole moment (field-independent basis, Debye-Ang):
   XX=            -55.1199   YY=            -49.1698   ZZ=            -53.2168
   XY=              0.0349   XZ=              6.2616   YZ=             -2.6463

  Exact polarizability:  76.991   2.196  78.678   4.158  -1.009  66.677
 Approx polarizability: 107.447   0.019 113.943   1.121   0.103 105.220

                      1                      2                      3
                      A                      A                      A
 Frequencies --    176.3145               179.8397               210.0309
 Red. masses --      1.7919                 1.3144                 3.6474
 Frc consts  --      0.0328                 0.0250                 0.0948
 IR Inten    --      1.7738                 2.1232                 8.5743

                      4                      5                      6
                      A                      A                      A
 Frequencies --    256.9800               280.1837               318.4773
 Red. masses --      2.9488                 1.1321                 3.4285
 Frc consts  --      0.1147                 0.0524                 0.2049
 IR Inten    --      1.4230                79.2898                 1.3710

                      7                      8                      9
                      A                      A                      A
 Frequencies --    398.6997               412.7450               449.8021
 Red. masses --      2.2443                 4.9861                 2.5670
 Frc consts  --      0.2102                 0.5005                 0.3060
 IR Inten    --      4.7586                 2.4126                 0.6297

                     10                     11                     12
                      A                      A                      A
 Frequencies --    547.1176               563.4769               670.9734
 Red. masses --      3.5091                 2.9738                 4.7194
 Frc consts  --      0.6189                 0.5563                 1.2518
 IR Inten    --      2.3843                14.0489                 3.1573

                     13                     14                     15
                      A                      A                      A
 Frequencies --    721.3074               753.9738               814.8224
 Red. masses --      4.1059                 3.8009                 3.5040
 Frc consts  --      1.2586                 1.2731                 1.3707
 IR Inten    --      2.5811                 1.7272                 4.4694

                     16                     17                     18
                      A                      A                      A
 Frequencies --    854.3788               890.8278               912.7190
 Red. masses --      2.5369                 2.2027                 2.1496
 Frc consts  --      1.0911                 1.0299                 1.0551
 IR Inten    --     36.9235                 4.5498                 7.7521

                     19                     20                     21
                      A                      A                      A
 Frequencies --    941.2268               958.5842               973.9582
 Red. masses --      1.5569                 2.3690                 1.5309
 Frc consts  --      0.8126                 1.2826                 0.8556
 IR Inten    --      9.0423                12.1776                 3.1412

                     22                     23                     24
                      A                      A                      A
 Frequencies --    999.1026              1046.7422              1064.9206
 Red. masses --      1.6741                 1.7583                 1.2785
 Frc consts  --      0.9846                 1.1351                 0.8543
 IR Inten    --     15.2340                 0.5921                 5.9428

                     25                     26                     27
                      A                      A                      A
 Frequencies --   1095.5780              1117.8907              1157.7621
 Red. masses --      1.4131                 1.5428                 2.6687
 Frc consts  --      0.9993                 1.1360                 2.1076
 IR Inten    --     13.7481                 0.7591                10.3027

                     28                     29                     30
                      A                      A                      A
 Frequencies --   1186.3215              1232.8025              1252.2439
 Red. masses --      1.9712                 1.8392                 1.6169
 Frc consts  --      1.6345                 1.6469                 1.4939
 IR Inten    --     45.5787                10.0887                 0.3746

                     31                     32                     33
                      A                      A                      A
 Frequencies --   1264.4261              1291.5921              1321.5843
 Red. masses --      1.6410                 1.6229                 1.9686
 Frc consts  --      1.5458                 1.5951                 2.0258
 IR Inten    --     19.6304                24.0861                36.3562

                     34                     35                     36
                      A                      A                      A
 Frequencies --   1361.0641              1388.0708              1413.5869
 Red. masses --      1.8828                 1.9408                 1.4471
 Frc consts  --      2.0550                 2.2032                 1.7038
 IR Inten    --     10.6452                12.9502                 8.7608

                     37                     38                     39
                      A                      A                      A
 Frequencies --   1418.2634              1467.7683              1480.0863
 Red. masses --      1.9193                 1.3212                 1.3673
 Frc consts  --      2.2746                 1.6770                 1.7647
 IR Inten    --      8.7701                 4.5753                 1.9261

                     40                     41                     42
                      A                      A                      A
 Frequencies --   1491.5214              1500.1056              3027.4553
 Red. masses --      1.0487                 1.0899                 1.0374
 Frc consts  --      1.3746                 1.4451                 5.6019
 IR Inten    --      2.7441                 6.5642                36.9803

                     43                     44                     45
                      A                      A                      A
 Frequencies --   3042.7115              3083.7778              3087.2774
 Red. masses --      1.0593                 1.1011                 1.1036
 Frc consts  --      5.7784                 6.1695                 6.1974
 IR Inten    --     24.7364                22.7533                14.3500

                     46                     47                     48
                      A                      A                      A
 Frequencies --   3119.3439              3128.5618              3138.4621
 Red. masses --      1.0967                 1.0563                 1.0873
 Frc consts  --      6.2871                 6.0915                 6.3098
 IR Inten    --      6.9614                17.6082                21.6196

                     49                     50                     51
                      A                      A                      A
 Frequencies --   3151.2852              3229.1860              3802.1889
 Red. masses --      1.0949                 1.1156                 1.0665
 Frc consts  --      6.4064                 6.8541                 9.0839
 IR Inten    --     35.0803                 1.9639                22.0269

 - Thermochemistry -
 -------------------
 Temperature   298.150 Kelvin.  Pressure   1.00000 Atm.
 Atom     1 has atomic number  6 and mass  12.00000

 Molecular mass:   126.06808 amu.
 Principal axes and moments of inertia in atomic units:
                           1         2         3
     Eigenvalues --   708.418051030.820321347.95458
           X            0.99621   0.08339   0.02476
           Y           -0.08263   0.99612  -0.03018
           Z           -0.02718   0.02802   0.99924
 This molecule is an asymmetric top.
 Rotational symmetry number  1.
 Warning -- assumption of classical behavior for rotation
           may cause significant error
 Rotational temperatures (Kelvin)      0.12226     0.08402     0.06426
 Rotational constants (GHZ):           2.54757     1.75078     1.33887
 Zero-point vibrational energy     416588.3 (Joules/Mol)
                                   99.56699 (Kcal/Mol)
 Warning -- explicit consideration of  11 degrees of freedom as
           vibrations may cause significant error
 Vibrational temperatures:    253.68   258.75   302.19   369.74   403.12
          (Kelvin)            458.22   573.64   593.85   647.16   787.18
                              810.72   965.38  1037.80  1084.80  1172.35
                             1229.26  1281.70  1313.20  1354.21  1379.19
                             1401.31  1437.48  1506.03  1532.18  1576.29
                             1608.39  1665.76  1706.85  1773.73  1801.70
                             1819.22  1858.31  1901.46  1958.27  1997.12
                             2033.83  2040.56  2111.79  2129.51  2145.96
                             2158.31  4355.83  4377.78  4436.86  4441.90
                             4488.03  4501.30  4515.54  4533.99  4646.07
                             5470.49

 Zero-point correction=                           0.158670 (Hartree/Particle)
 Thermal correction to Energy=                    0.166799
 Thermal correction to Enthalpy=                  0.167743
 Thermal correction to Gibbs Free Energy=         0.126697
 Sum of electronic and zero-point Energies=           -423.004074
 Sum of electronic and thermal Energies=              -422.995946
 Sum of electronic and thermal Enthalpies=            -422.995001
 Sum of electronic and thermal Free Energies=         -423.036048

                     E (Thermal)             CV                S
                      KCal/Mol        Cal/Mol-Kelvin    Cal/Mol-Kelvin
 Total                  104.668             32.606             86.389
 Electronic               0.000              0.000              0.000
 Translational            0.889              2.981             40.409
 Rotational               0.889              2.981             28.378
 Vibrational            102.890             26.644             17.603
 Vibration     1          0.628              1.872              2.367
 Vibration     2          0.629              1.867              2.330
 Vibration     3          0.642              1.825              2.043
 Vibration     4          0.667              1.751              1.682
 Vibration     5          0.680              1.710              1.533
 Vibration     6          0.705              1.638              1.318
 Vibration     7          0.765              1.473              0.967
 Vibration     8          0.777              1.443              0.917
 Vibration     9          0.809              1.361              0.796
 Vibration    10          0.902              1.146              0.550
 Vibration    11          0.919              1.110              0.517

 Optimization completed.
    -- Stationary point found.
 Normal termination of Gaussian 09 at Mon Jan 27 18:03:22 2020.
