 Gaussian 09, Revision D.01,
 Gaussian 09:  ES64L-G09RevD.01 24-Apr-2013

 -----------------------------
 # b3lyp 6-31G(2df,p) opt Freq
 -----------------------------

 -----
 titel
 -----
 Symbolic Z-matrix:
 Charge =  0 Multiplicity = 1

 SCF Done:  E(RB3LYP) =  -423.159934962     A.U. after   13 cycles
 Optimization completed.
    -- Stationary point found.
 Normal termination of Gaussian 09 at Mon Jan 27 12:14:35 2020.

 ----------------------------------------------------------------------
 #N Geom=AllCheck Guess=TCheck SCRF=Check GenChk RB3LYP/6-31G(2df,p) Fr
 eq
 ----------------------------------------------------------------------

 Structure from the checkpoint file:  "/scratch/puck/g09_3b971162-369d-4dad-99c4-644e968f6624/Gau-42908.chk"
 -----
 titel
 -----
 Charge =  0 Multiplicity = 1

                         Standard orientation:
 ---------------------------------------------------------------------
 Center     Atomic      Atomic             Coordinates (Angstroms)
 Number     Number       Type             X           Y           Z
 ---------------------------------------------------------------------
      1          6           0        1.869702   -0.799980    0.194574
      2          8           0        1.992590    0.620831   -0.107463
      3          6           0        0.658022    0.602593   -0.690334
      4          6           0       -0.447205    1.604922   -0.306987
      5          6           0       -1.382631    0.633050    0.463756
      6          6           0       -0.379996   -0.111392    1.341256
      7          6           0        0.345343   -0.680213    0.100433
      8          6           0       -0.807972   -1.409252   -0.561804
      9          8           0       -1.853031   -0.405205   -0.436807
     10          1           0        2.329051   -1.412306   -0.593397
     11          1           0        2.306851   -1.055636    1.164467
     12          1           0        0.737690    0.456889   -1.775460
     13          1           0       -0.086636    2.410582    0.340007
     14          1           0       -0.930587    2.043737   -1.182399
     15          1           0       -2.258373    1.086299    0.929122
     16          1           0        0.247852    0.544803    1.945660
     17          1           0       -0.831067   -0.885409    1.967417
     18          1           0       -0.644508   -1.616232   -1.625180
     19          1           0       -1.118310   -2.336096   -0.061449
 ---------------------------------------------------------------------

 SCF Done:  E(RB3LYP) =  -423.159934962     A.U. after    1 cycles

 The electronic state is 1-A.
 Alpha  occ. eigenvalues --  -19.13677 -19.13574 -10.23801 -10.23522 -10.23122
 Alpha  occ. eigenvalues --  -10.23034 -10.19812 -10.18479 -10.18297  -1.04332
 Alpha  occ. eigenvalues --   -1.02350  -0.81984  -0.76130  -0.71392  -0.67244
 Alpha  occ. eigenvalues --   -0.62812  -0.57700  -0.53850  -0.51267  -0.49855
 Alpha  occ. eigenvalues --   -0.46740  -0.45792  -0.43394  -0.41934  -0.39583
 Alpha  occ. eigenvalues --   -0.38676  -0.37074  -0.35537  -0.35165  -0.32819
 Alpha  occ. eigenvalues --   -0.30644  -0.28684  -0.25665  -0.24376
 Alpha virt. eigenvalues --    0.07578   0.08725   0.09842   0.11354   0.13155
 Alpha virt. eigenvalues --    0.13583   0.14601   0.14960   0.15992   0.16470
 Alpha virt. eigenvalues --    0.17736   0.18547   0.19341   0.19575   0.20974

 Mulliken charges:
               1
     1  C   -0.207032
     2  O   -0.311388
     3  C    0.149414
     4  C   -0.273062
     5  C    0.116477
     6  C   -0.265865
     7  C    0.254657
     8  C   -0.162304
     9  O   -0.299556
    10  H    0.102252
    11  H    0.109458
    12  H    0.074689
    13  H    0.112564
    14  H    0.107553
    15  H    0.077024
    16  H    0.114326
    17  H    0.101508
    18  H    0.103420
    19  H    0.095864
 Sum of Mulliken charges =   0.00000

 Dipole moment (field-independent basis, Debye):
    X=              0.0178    Y=             -0.8653    Z=              0.6269  Tot=              1.0687
 Quadrupole moment (field-independent basis, Debye-Ang):
   XX=            -60.2673   YY=            -50.7376   ZZ=            -51.0875
   XY=             -4.5750   XZ=             -1.3939   YZ=              0.1683

  Exact polarizability:  75.600  -4.414  75.438  -0.313   0.435  69.565
 Approx polarizability: 109.461  -2.958 109.964   1.856   1.068 105.156

                      1                      2                      3
                      A                      A                      A
 Frequencies --    193.8446               284.8234               315.4414
 Red. masses --      3.8397                 2.4615                 3.0541
 Frc consts  --      0.0850                 0.1177                 0.1791
 IR Inten    --      8.0768                 0.4074                 3.2516

                      4                      5                      6
                      A                      A                      A
 Frequencies --    378.8625               411.1543               453.0695
 Red. masses --      2.4289                 2.3934                 2.4101
 Frc consts  --      0.2054                 0.2384                 0.2915
 IR Inten    --      0.5269                 4.4511                 1.4910

                      7                      8                      9
                      A                      A                      A
 Frequencies --    516.9897               654.2410               714.3784
 Red. masses --      2.9139                 3.4284                 3.9374
 Frc consts  --      0.4589                 0.8646                 1.1839
 IR Inten    --      0.7909                 1.1408                 1.4388

                     10                     11                     12
                      A                      A                      A
 Frequencies --    773.2761               829.5920               836.9288
 Red. masses --      4.1183                 2.4683                 3.9605
 Frc consts  --      1.4509                 1.0009                 1.6345
 IR Inten    --      9.8809                13.2587                11.8162

                     13                     14                     15
                      A                      A                      A
 Frequencies --    860.0546               892.1063               903.7681
 Red. masses --      3.1578                 2.6147                 2.3551
 Frc consts  --      1.3762                 1.2261                 1.1334
 IR Inten    --      1.6997                23.3785                 0.9529

                     16                     17                     18
                      A                      A                      A
 Frequencies --    945.4836               958.4408               979.5524
 Red. masses --      3.4042                 3.9198                 2.0995
 Frc consts  --      1.7930                 2.1215                 1.1869
 IR Inten    --     13.8357                76.9340                12.8592

                     19                     20                     21
                      A                      A                      A
 Frequencies --    994.7592              1011.6785              1034.0661
 Red. masses --      1.4871                 2.3426                 1.8367
 Frc consts  --      0.8670                 1.4127                 1.1572
 IR Inten    --      4.6276                23.8191                23.4621

                     22                     23                     24
                      A                      A                      A
 Frequencies --   1064.0630              1097.9891              1138.2341
 Red. masses --      2.3673                 1.9036                 1.3953
 Frc consts  --      1.5792                 1.3522                 1.0651
 IR Inten    --     14.9270                 4.9779                 4.8286

                     25                     26                     27
                      A                      A                      A
 Frequencies --   1145.7299              1176.8993              1183.2864
 Red. masses --      1.6333                 1.2668                 1.3332
 Frc consts  --      1.2632                 1.0338                 1.0999
 IR Inten    --     13.3986                 1.5340                 9.5299

                     28                     29                     30
                      A                      A                      A
 Frequencies --   1210.2882              1227.5357              1256.0821
 Red. masses --      1.8569                 2.2307                 1.4462
 Frc consts  --      1.6025                 1.9804                 1.3444
 IR Inten    --      3.6599                 3.3047                 1.1214

                     31                     32                     33
                      A                      A                      A
 Frequencies --   1278.1910              1294.3866              1316.4329
 Red. masses --      1.5831                 1.4784                 1.6113
 Frc consts  --      1.5238                 1.4594                 1.6452
 IR Inten    --      6.0649                 1.9994                10.6400

                     34                     35                     36
                      A                      A                      A
 Frequencies --   1321.5565              1357.5586              1376.6250
 Red. masses --      1.3416                 1.6790                 1.2953
 Frc consts  --      1.3805                 1.8231                 1.4463
 IR Inten    --      2.2779                 0.5574                11.7711

                     37                     38                     39
                      A                      A                      A
 Frequencies --   1385.1612              1467.5298              1494.4681
 Red. masses --      1.8756                 1.0993                 1.1115
 Frc consts  --      2.1203                 1.3948                 1.4626
 IR Inten    --      2.2716                 4.2999                 4.3539

                     40                     41                     42
                      A                      A                      A
 Frequencies --   1516.6297              1530.0700              3006.9649
 Red. masses --      1.1094                 1.1016                 1.0632
 Frc consts  --      1.5034                 1.5195                 5.6639
 IR Inten    --      0.4581                 0.2297                30.8844

                     43                     44                     45
                      A                      A                      A
 Frequencies --   3008.6381              3016.9514              3061.8438
 Red. masses --      1.0674                 1.0787                 1.0642
 Frc consts  --      5.6928                 5.7847                 5.8779
 IR Inten    --     76.4626                81.7252                17.4145

                     46                     47                     48
                      A                      A                      A
 Frequencies --   3063.1910              3071.4335              3082.1676
 Red. masses --      1.0991                 1.0611                 1.1032
 Frc consts  --      6.0762                 5.8976                 6.1749
 IR Inten    --     36.9270                15.0208                40.7462

                     49                     50                     51
                      A                      A                      A
 Frequencies --   3116.6448              3119.8482              3135.2209
 Red. masses --      1.0916                 1.1031                 1.1066
 Frc consts  --      6.2471                 6.3262                 6.4088
 IR Inten    --     40.6769                19.2445                16.5432

 - Thermochemistry -
 -------------------
 Temperature   298.150 Kelvin.  Pressure   1.00000 Atm.
 Atom     1 has atomic number  6 and mass  12.00000

 Molecular mass:   126.06808 amu.
 Principal axes and moments of inertia in atomic units:
                           1         2         3
     Eigenvalues --   592.49517 993.778231184.35010
           X            0.99883  -0.04781  -0.00660
           Y            0.04785   0.99884   0.00607
           Z            0.00631  -0.00638   0.99996
 This molecule is an asymmetric top.
 Rotational symmetry number  1.
 Warning -- assumption of classical behavior for rotation
           may cause significant error
 Rotational temperatures (Kelvin)      0.14618     0.08716     0.07313
 Rotational constants (GHZ):           3.04600     1.81604     1.52382
 Zero-point vibrational energy     427450.4 (Joules/Mol)
                                  102.16311 (Kcal/Mol)
 Warning -- explicit consideration of   7 degrees of freedom as
           vibrations may cause significant error
 Vibrational temperatures:    278.90   409.80   453.85   545.10   591.56
          (Kelvin)            651.87   743.83   941.31  1027.83  1112.57
                             1193.60  1204.15  1237.43  1283.54  1300.32
                             1360.34  1378.98  1409.36  1431.23  1455.58
                             1487.79  1530.95  1579.76  1637.66  1648.45
                             1693.29  1702.48  1741.33  1766.15  1807.22
                             1839.03  1862.33  1894.05  1901.42  1953.22
                             1980.65  1992.94  2111.45  2150.20  2182.09
                             2201.43  4326.35  4328.75  4340.71  4405.30
                             4407.24  4419.10  4434.55  4484.15  4488.76
                             4510.88

 Zero-point correction=                           0.162807 (Hartree/Particle)
 Thermal correction to Energy=                    0.169289
 Thermal correction to Enthalpy=                  0.170233
 Thermal correction to Gibbs Free Energy=         0.132324
 Sum of electronic and zero-point Energies=           -422.997128
 Sum of electronic and thermal Energies=              -422.990646
 Sum of electronic and thermal Enthalpies=            -422.989702
 Sum of electronic and thermal Free Energies=         -423.027611

                     E (Thermal)             CV                S
                      KCal/Mol        Cal/Mol-Kelvin    Cal/Mol-Kelvin
 Total                  106.230             27.528             79.786
 Electronic               0.000              0.000              0.000
 Translational            0.889              2.981             40.409
 Rotational               0.889              2.981             28.035
 Vibrational            104.453             21.567             11.342
 Vibration     1          0.635              1.848              2.191
 Vibration     2          0.683              1.702              1.505
 Vibration     3          0.703              1.644              1.334
 Vibration     4          0.749              1.515              1.044
 Vibration     5          0.775              1.446              0.923
 Vibration     6          0.812              1.354              0.787
 Vibration     7          0.872              1.212              0.617

 Optimization completed.
    -- Stationary point found.
 Normal termination of Gaussian 09 at Mon Jan 27 12:59:07 2020.
