 Gaussian 09, Revision D.01,
 Gaussian 09:  ES64L-G09RevD.01 24-Apr-2013

 -----------------------------
 # b3lyp 6-31G(2df,p) opt Freq
 -----------------------------

 -----
 titel
 -----
 Symbolic Z-matrix:
 Charge =  0 Multiplicity = 1

 SCF Done:  E(RB3LYP) =  -423.209899438     A.U. after   14 cycles
 Optimization completed.
    -- Stationary point found.
 Normal termination of Gaussian 09 at Tue Jan 28 02:23:42 2020.

 ----------------------------------------------------------------------
 #N Geom=AllCheck Guess=TCheck SCRF=Check GenChk RB3LYP/6-31G(2df,p) Fr
 eq
 ----------------------------------------------------------------------

 Structure from the checkpoint file:  "/scratch/puck/g09_3c0d6558-945d-4008-b88a-059a38e8da49/Gau-112385.chk"
 -----
 titel
 -----
 Charge =  0 Multiplicity = 1

                         Standard orientation:
 ---------------------------------------------------------------------
 Center     Atomic      Atomic             Coordinates (Angstroms)
 Number     Number       Type             X           Y           Z
 ---------------------------------------------------------------------
      1          6           0        2.381496   -1.176898   -0.129799
      2          6           0        1.096079   -0.562700    0.416998
      3          6           0       -0.217791   -1.292374    0.043573
      4          6           0       -1.282730   -0.201013   -0.033418
      5          6           0       -2.637197   -0.484309   -0.620050
      6          8           0       -1.245683    0.645897    1.118540
      7          6           0       -0.616356    1.120297   -0.090744
      8          6           0        0.868969    0.877808   -0.075680
      9          8           0        1.716042    1.643774   -0.460641
     10          1           0        2.335089   -1.282750   -1.218764
     11          1           0        3.235882   -0.536334    0.102443
     12          1           0        2.559229   -2.166702    0.300982
     13          1           0        1.159488   -0.497685    1.510555
     14          1           0       -0.120010   -1.772660   -0.937690
     15          1           0       -0.494826   -2.069684    0.762913
     16          1           0       -2.548307   -0.817869   -1.658883
     17          1           0       -3.139280   -1.276960   -0.054371
     18          1           0       -3.266172    0.408485   -0.588320
     19          1           0       -1.038788    2.009925   -0.547336
 ---------------------------------------------------------------------

 SCF Done:  E(RB3LYP) =  -423.209899438     A.U. after    1 cycles

 The electronic state is 1-A.
 Alpha  occ. eigenvalues --  -19.16487 -19.13618 -10.26887 -10.25736 -10.24158
 Alpha  occ. eigenvalues --  -10.19923 -10.19833 -10.19522 -10.18025  -1.08761
 Alpha  occ. eigenvalues --   -1.04351  -0.82197  -0.76251  -0.71682  -0.69298
 Alpha  occ. eigenvalues --   -0.62766  -0.57392  -0.54000  -0.49025  -0.48870
 Alpha  occ. eigenvalues --   -0.45681  -0.44773  -0.43268  -0.41568  -0.41007
 Alpha  occ. eigenvalues --   -0.39577  -0.38858  -0.37476  -0.36588  -0.35311
 Alpha  occ. eigenvalues --   -0.34038  -0.30356  -0.29164  -0.23766
 Alpha virt. eigenvalues --   -0.02643   0.08651   0.09215   0.10492   0.12433
 Alpha virt. eigenvalues --    0.13632   0.14084   0.15222   0.15900   0.16411
 Alpha virt. eigenvalues --    0.17166   0.17803   0.18467   0.20093   0.21634

 Mulliken charges:
               1
     1  C   -0.401778
     2  C   -0.107748
     3  C   -0.295598
     4  C    0.407147
     5  C   -0.481872
     6  O   -0.285284
     7  C   -0.148705
     8  C    0.420783
     9  O   -0.326748
    10  H    0.118800
    11  H    0.138357
    12  H    0.113780
    13  H    0.120460
    14  H    0.109094
    15  H    0.113140
    16  H    0.128819
    17  H    0.132717
    18  H    0.136757
    19  H    0.107879
 Sum of Mulliken charges =   0.00000

 Dipole moment (field-independent basis, Debye):
    X=             -1.6797    Y=             -2.4116    Z=             -0.7862  Tot=              3.0423
 Quadrupole moment (field-independent basis, Debye-Ang):
   XX=            -54.6605   YY=            -54.6061   ZZ=            -54.0779
   XY=             -3.4766   XZ=              4.3468   YZ=             -0.2315

  Exact polarizability:  88.703   3.130  77.424   0.123  -2.484  60.475
 Approx polarizability: 116.768  12.677 116.800  -6.715  -5.172 100.869

                      1                      2                      3
                      A                      A                      A
 Frequencies --     90.0250               140.2721               188.9043
 Red. masses --      3.4290                 3.2076                 1.0424
 Frc consts  --      0.0164                 0.0372                 0.0219
 IR Inten    --      2.0024                 1.4426                 0.3656

                      4                      5                      6
                      A                      A                      A
 Frequencies --    197.4044               247.8682               275.1253
 Red. masses --      1.0828                 2.8340                 2.8434
 Frc consts  --      0.0249                 0.1026                 0.1268
 IR Inten    --      0.2408                 1.9371                 1.3631

                      7                      8                      9
                      A                      A                      A
 Frequencies --    367.3451               382.9692               394.2376
 Red. masses --      3.4915                 4.1827                 2.1964
 Frc consts  --      0.2776                 0.3614                 0.2011
 IR Inten    --      6.4961                14.3471                 0.7119

                     10                     11                     12
                      A                      A                      A
 Frequencies --    475.4136               550.6257               613.3445
 Red. masses --      4.1909                 4.1573                 5.6868
 Frc consts  --      0.5581                 0.7426                 1.2604
 IR Inten    --      1.1580                 0.7502                 5.8405

                     13                     14                     15
                      A                      A                      A
 Frequencies --    711.6095               717.8873               775.2160
 Red. masses --      4.8391                 3.5761                 3.4495
 Frc consts  --      1.4438                 1.0859                 1.2214
 IR Inten    --      6.1474                 7.3391                 4.4356

                     16                     17                     18
                      A                      A                      A
 Frequencies --    828.4445               892.3436               908.6610
 Red. masses --      3.3687                 1.8617                 2.3254
 Frc consts  --      1.3622                 0.8734                 1.1312
 IR Inten    --     26.6939                 0.7185                 3.7286

                     19                     20                     21
                      A                      A                      A
 Frequencies --    934.5582              1009.5206              1017.7471
 Red. masses --      1.6072                 1.4286                 1.7790
 Frc consts  --      0.8270                 0.8578                 1.0857
 IR Inten    --      1.4044                 3.2360                 4.5546

                     22                     23                     24
                      A                      A                      A
 Frequencies --   1056.5975              1081.3929              1121.5598
 Red. masses --      1.7562                 1.5017                 2.7341
 Frc consts  --      1.1551                 1.0347                 2.0263
 IR Inten    --      0.5372                 6.8199                 8.0296

                     25                     26                     27
                      A                      A                      A
 Frequencies --   1139.0302              1171.5039              1207.2599
 Red. masses --      1.9670                 2.6425                 1.3958
 Frc consts  --      1.5035                 2.1368                 1.1986
 IR Inten    --      3.0751                21.0853                 2.5121

                     28                     29                     30
                      A                      A                      A
 Frequencies --   1232.3924              1265.6550              1295.3470
 Red. masses --      1.6552                 1.6239                 1.6793
 Frc consts  --      1.4811                 1.5327                 1.6601
 IR Inten    --     20.8233                 4.2256                16.9110

                     31                     32                     33
                      A                      A                      A
 Frequencies --   1309.0946              1347.6798              1405.1282
 Red. masses --      1.5893                 2.1356                 1.3980
 Frc consts  --      1.6047                 2.2853                 1.6262
 IR Inten    --      3.8893                 2.6161                 5.4986

                     34                     35                     36
                      A                      A                      A
 Frequencies --   1412.3212              1435.6761              1481.1116
 Red. masses --      1.2275                 2.6861                 1.0779
 Frc consts  --      1.4426                 3.2620                 1.3932
 IR Inten    --      3.5183                26.9720                 1.9108

                     37                     38                     39
                      A                      A                      A
 Frequencies --   1485.1715              1493.3526              1497.5132
 Red. masses --      1.0846                 1.0534                 1.0496
 Frc consts  --      1.4095                 1.3841                 1.3868
 IR Inten    --      6.1062                 7.2243                 4.2032

                     40                     41                     42
                      A                      A                      A
 Frequencies --   1498.0156              1839.6865              3032.3215
 Red. masses --      1.1222                12.3479                 1.0766
 Frc consts  --      1.4837                24.6224                 5.8327
 IR Inten    --      2.1017               212.6084                 0.4336

                     43                     44                     45
                      A                      A                      A
 Frequencies --   3034.9281              3038.5754              3041.7279
 Red. masses --      1.0537                 1.0408                 1.0429
 Frc consts  --      5.7185                 5.6616                 5.6849
 IR Inten    --      3.1806                27.9998                38.1240

                     46                     47                     48
                      A                      A                      A
 Frequencies --   3083.2880              3101.2298              3106.9882
 Red. masses --      1.1025                 1.1002                 1.1013
 Frc consts  --      6.1750                 6.2342                 6.2640
 IR Inten    --     12.0834                15.2488                28.4549

                     49                     50                     51
                      A                      A                      A
 Frequencies --   3125.2114              3127.3569              3173.3591
 Red. masses --      1.1010                 1.1014                 1.0927
 Frc consts  --      6.3356                 6.3466                 6.4829
 IR Inten    --     11.7255                12.2354                11.9394

 - Thermochemistry -
 -------------------
 Temperature   298.150 Kelvin.  Pressure   1.00000 Atm.
 Atom     1 has atomic number  6 and mass  12.00000

 Molecular mass:   126.06808 amu.
 Principal axes and moments of inertia in atomic units:
                           1         2         3
     Eigenvalues --   633.150041299.409241653.19486
           X            0.99907  -0.03656   0.02304
           Y            0.03651   0.99933   0.00261
           Z           -0.02312  -0.00177   0.99973
 This molecule is an asymmetric top.
 Rotational symmetry number  1.
 Warning -- assumption of classical behavior for rotation
           may cause significant error
 Rotational temperatures (Kelvin)      0.13680     0.06666     0.05239
 Rotational constants (GHZ):           2.85042     1.38889     1.09167
 Zero-point vibrational energy     414864.9 (Joules/Mol)
                                   99.15509 (Kcal/Mol)
 Warning -- explicit consideration of  12 degrees of freedom as
           vibrations may cause significant error
 Vibrational temperatures:    129.53   201.82   271.79   284.02   356.63
          (Kelvin)            395.84   528.53   551.01   567.22   684.01
                              792.23   882.46  1023.85  1032.88  1115.36
                             1191.95  1283.88  1307.36  1344.62  1452.47
                             1464.31  1520.21  1555.88  1613.67  1638.81
                             1685.53  1736.98  1773.14  1820.99  1863.71
                             1883.49  1939.01  2021.66  2032.01  2065.62
                             2130.99  2136.83  2148.60  2154.58  2155.31
                             2646.90  4362.83  4366.58  4371.83  4376.36
                             4436.16  4461.97  4470.26  4496.48  4499.56
                             4565.75

 Zero-point correction=                           0.158014 (Hartree/Particle)
 Thermal correction to Energy=                    0.166752
 Thermal correction to Enthalpy=                  0.167696
 Thermal correction to Gibbs Free Energy=         0.124823
 Sum of electronic and zero-point Energies=           -423.051886
 Sum of electronic and thermal Energies=              -423.043148
 Sum of electronic and thermal Enthalpies=            -423.042204
 Sum of electronic and thermal Free Energies=         -423.085077

                     E (Thermal)             CV                S
                      KCal/Mol        Cal/Mol-Kelvin    Cal/Mol-Kelvin
 Total                  104.638             33.099             90.234
 Electronic               0.000              0.000              0.000
 Translational            0.889              2.981             40.409
 Rotational               0.889              2.981             28.699
 Vibrational            102.861             27.137             21.126
 Vibration     1          0.602              1.956              3.660
 Vibration     2          0.615              1.913              2.800
 Vibration     3          0.633              1.855              2.239
 Vibration     4          0.637              1.844              2.157
 Vibration     5          0.661              1.766              1.746
 Vibration     6          0.677              1.719              1.564
 Vibration     7          0.740              1.539              1.091
 Vibration     8          0.752              1.507              1.027
 Vibration     9          0.761              1.482              0.984
 Vibration    10          0.832              1.305              0.723
 Vibration    11          0.906              1.138              0.543
 Vibration    12          0.973              1.004              0.427

 Optimization completed.
    -- Stationary point found.
 Normal termination of Gaussian 09 at Tue Jan 28 03:06:39 2020.
