 Gaussian 09, Revision D.01,
 Gaussian 09:  ES64L-G09RevD.01 24-Apr-2013

 -----------------------------
 # b3lyp 6-31G(2df,p) opt Freq
 -----------------------------

 -----
 titel
 -----
 Symbolic Z-matrix:
 Charge =  0 Multiplicity = 1

 SCF Done:  E(RB3LYP) =  -423.143509949     A.U. after   15 cycles
 SCF Done:  E(RB3LYP) =  -423.143509981     A.U. after    7 cycles
 SCF Done:  E(RB3LYP) =  -423.143510071     A.U. after    7 cycles
 SCF Done:  E(RB3LYP) =  -423.143509996     A.U. after    7 cycles
 Optimization completed.
    -- Stationary point found.
 Normal termination of Gaussian 09 at Tue Jan 28 08:55:06 2020.

 ----------------------------------------------------------------------
 #N Geom=AllCheck Guess=TCheck SCRF=Check GenChk RB3LYP/6-31G(2df,p) Fr
 eq
 ----------------------------------------------------------------------

 Structure from the checkpoint file:  "/scratch/puck/g09_a99f839c-00c9-4a20-bcf3-d06ec9db7a20/Gau-59939.chk"
 -----
 titel
 -----
 Charge =  0 Multiplicity = 1

                         Standard orientation:
 ---------------------------------------------------------------------
 Center     Atomic      Atomic             Coordinates (Angstroms)
 Number     Number       Type             X           Y           Z
 ---------------------------------------------------------------------
      1          6           0        1.952467   -1.660178   -0.635587
      2          8           0        0.683170   -1.047585   -0.519390
      3          6           0        0.569528   -0.129522    0.554246
      4          6           0        1.423417    1.054313    0.371209
      5          6           0        2.129526    2.017423    0.231067
      6          6           0       -0.929128    0.233175    0.660050
      7          6           0       -1.784189   -0.943602    1.128927
      8          6           0       -1.415936    0.807742   -0.665717
      9          8           0       -2.488005    0.561930   -1.154156
     10          1           0        2.214773   -2.212743    0.279407
     11          1           0        1.888262   -2.362028   -1.469479
     12          1           0        2.741269   -0.924667   -0.840446
     13          1           0        0.871302   -0.620467    1.495298
     14          1           0        2.751339    2.869864    0.106176
     15          1           0       -0.996274    1.060552    1.382374
     16          1           0       -1.517831   -1.236236    2.148983
     17          1           0       -2.841510   -0.674040    1.103933
     18          1           0       -1.639537   -1.802127    0.469494
     19          1           0       -0.707235    1.511027   -1.152538
 ---------------------------------------------------------------------

 SCF Done:  E(RB3LYP) =  -423.143509996     A.U. after    2 cycles

 The electronic state is 1-A.
 Alpha  occ. eigenvalues --  -19.15817 -19.13572 -10.27085 -10.26602 -10.23214
 Alpha  occ. eigenvalues --  -10.20624 -10.19502 -10.19105 -10.17693  -1.05174
 Alpha  occ. eigenvalues --   -1.04200  -0.82250  -0.76160  -0.71507  -0.67088
 Alpha  occ. eigenvalues --   -0.64879  -0.56076  -0.54102  -0.51125  -0.50007
 Alpha  occ. eigenvalues --   -0.48722  -0.46418  -0.43847  -0.42406  -0.40766
 Alpha  occ. eigenvalues --   -0.38323  -0.37521  -0.37055  -0.34807  -0.33988
 Alpha  occ. eigenvalues --   -0.28947  -0.28526  -0.27684  -0.24383
 Alpha virt. eigenvalues --   -0.01642   0.02629   0.03811   0.09313   0.11378
 Alpha virt. eigenvalues --    0.11626   0.13817   0.14460   0.14702   0.15143
 Alpha virt. eigenvalues --    0.15827   0.16895   0.17733   0.19557   0.21824

 Mulliken charges:
               1
     1  C   -0.239525
     2  O   -0.228247
     3  C   -0.095019
     4  C    0.338745
     5  C   -0.451933
     6  C   -0.096646
     7  C   -0.410633
     8  C    0.171216
     9  O   -0.249913
    10  H    0.108342
    11  H    0.135467
    12  H    0.124031
    13  H    0.098374
    14  H    0.205005
    15  H    0.112321
    16  H    0.107821
    17  H    0.136463
    18  H    0.142398
    19  H    0.091734
 Sum of Mulliken charges =   0.00000

 Dipole moment (field-independent basis, Debye):
    X=              2.9527    Y=              0.1036    Z=              1.8921  Tot=              3.5085
 Quadrupole moment (field-independent basis, Debye-Ang):
   XX=            -56.4632   YY=            -48.3951   ZZ=            -54.5364
   XY=              1.1411   XZ=             -5.3174   YZ=              0.2899

  Exact polarizability:  87.706  11.006  82.741  -1.122  -2.263  64.887
 Approx polarizability: 123.927  23.593 121.985   3.415  -2.595  96.855

                      1                      2                      3
                      A                      A                      A
 Frequencies --     61.2953                98.7217               104.5348
 Red. masses --      5.1364                 2.7093                 2.8027
 Frc consts  --      0.0114                 0.0156                 0.0180
 IR Inten    --      0.9800                 3.3229                 1.4812

                      4                      5                      6
                      A                      A                      A
 Frequencies --    132.4139               168.1999               184.2611
 Red. masses --      3.8996                 1.4297                 1.3627
 Frc consts  --      0.0403                 0.0238                 0.0273
 IR Inten    --      0.2342                 1.2494                 0.1456

                      7                      8                      9
                      A                      A                      A
 Frequencies --    211.6606               249.0914               269.9552
 Red. masses --      1.8816                 2.3738                 3.4616
 Frc consts  --      0.0497                 0.0868                 0.1486
 IR Inten    --      4.2115                 5.2784                 8.6127

                     10                     11                     12
                      A                      A                      A
 Frequencies --    322.4551               346.4408               465.0811
 Red. masses --      3.7058                 3.4491                 5.6113
 Frc consts  --      0.2270                 0.2439                 0.7151
 IR Inten    --      1.9909                 2.3669                 3.0266

                     13                     14                     15
                      A                      A                      A
 Frequencies --    560.6460               604.9967               634.5547
 Red. masses --      3.9621                 3.9207                 1.2906
 Frc consts  --      0.7338                 0.8455                 0.3062
 IR Inten    --      5.8532                 3.3022                33.8901

                     16                     17                     18
                      A                      A                      A
 Frequencies --    668.6424               681.0431               808.5459
 Red. masses --      3.4573                 1.2558                 3.4572
 Frc consts  --      0.9107                 0.3432                 1.3316
 IR Inten    --     10.8463                34.0341                 8.8242

                     19                     20                     21
                      A                      A                      A
 Frequencies --    885.2244               942.6539               947.9266
 Red. masses --      1.9824                 1.6245                 2.4647
 Frc consts  --      0.9153                 0.8505                 1.3049
 IR Inten    --     12.5492                10.7802                15.9681

                     22                     23                     24
                      A                      A                      A
 Frequencies --   1006.9695              1092.2035              1116.4369
 Red. masses --      2.4450                 2.2272                 2.4028
 Frc consts  --      1.4607                 1.5654                 1.7646
 IR Inten    --     16.1588                39.1482                62.7328

                     25                     26                     27
                      A                      A                      A
 Frequencies --   1144.1812              1153.5066              1183.9655
 Red. masses --      2.4131                 3.0317                 1.2884
 Frc consts  --      1.8613                 2.3767                 1.0641
 IR Inten    --      9.5897                97.5402                 3.1443

                     28                     29                     30
                      A                      A                      A
 Frequencies --   1210.3957              1280.8303              1301.7362
 Red. masses --      1.5293                 1.5666                 1.3666
 Frc consts  --      1.3201                 1.5142                 1.3644
 IR Inten    --     15.5946                13.5232                 1.0546

                     31                     32                     33
                      A                      A                      A
 Frequencies --   1358.4380              1363.6110              1402.9597
 Red. masses --      1.5444                 1.3083                 1.2065
 Frc consts  --      1.6792                 1.4333                 1.3991
 IR Inten    --      3.3211                27.6760                 1.1555

                     34                     35                     36
                      A                      A                      A
 Frequencies --   1430.3299              1477.4762              1485.4394
 Red. masses --      1.2138                 1.1392                 1.0494
 Frc consts  --      1.4631                 1.4651                 1.3642
 IR Inten    --     12.2833                 0.9154                 5.8333

                     37                     38                     39
                      A                      A                      A
 Frequencies --   1487.4689              1503.2635              1509.8079
 Red. masses --      1.0483                 1.0529                 1.0539
 Frc consts  --      1.3666                 1.4018                 1.4155
 IR Inten    --      3.4363                 3.9631                 8.6812

                     40                     41                     42
                      A                      A                      A
 Frequencies --   1832.5814              2226.7259              2911.6243
 Red. masses --     10.4253                 5.8896                 1.0840
 Frc consts  --     20.6283                17.2055                 5.4143
 IR Inten    --    157.9305                 2.5265                77.4391

                     43                     44                     45
                      A                      A                      A
 Frequencies --   2955.6107              2988.4262              3009.1734
 Red. masses --      1.0808                 1.0401                 1.0810
 Frc consts  --      5.5626                 5.4731                 5.7671
 IR Inten    --     28.4716                57.1938                10.2773

                     46                     47                     48
                      A                      A                      A
 Frequencies --   3051.5636              3052.5495              3126.0906
 Red. masses --      1.0973                 1.0382                 1.0991
 Frc consts  --      6.0201                 5.6996                 6.3285
 IR Inten    --     30.2402                26.2209                14.1858

                     49                     50                     51
                      A                      A                      A
 Frequencies --   3128.0242              3144.1268              3499.8248
 Red. masses --      1.0986                 1.1019                 1.1625
 Frc consts  --      6.3330                 6.4177                 8.3897
 IR Inten    --     20.3054                 9.6592                66.3293

 - Thermochemistry -
 -------------------
 Temperature   298.150 Kelvin.  Pressure   1.00000 Atm.
 Atom     1 has atomic number  6 and mass  12.00000

 Molecular mass:   126.06808 amu.
 Principal axes and moments of inertia in atomic units:
                           1         2         3
     Eigenvalues --   865.194731511.797741831.60382
           X            0.99926  -0.00118  -0.03854
           Y            0.00048   0.99984  -0.01812
           Z            0.03855   0.01809   0.99909
 This molecule is an asymmetric top.
 Rotational symmetry number  1.
 Warning -- assumption of classical behavior for rotation
           may cause significant error
 Rotational temperatures (Kelvin)      0.10011     0.05729     0.04729
 Rotational constants (GHZ):           2.08594     1.19377     0.98533
 Zero-point vibrational energy     405436.5 (Joules/Mol)
                                   96.90164 (Kcal/Mol)
 Warning -- explicit consideration of  14 degrees of freedom as
           vibrations may cause significant error
 Vibrational temperatures:     88.19   142.04   150.40   190.51   242.00
          (Kelvin)            265.11   304.53   358.39   388.40   463.94
                              498.45   669.15   806.64   870.45   912.98
                              962.03   979.87  1163.32  1273.64  1356.27
                             1363.85  1448.80  1571.44  1606.30  1646.22
                             1659.64  1703.46  1741.49  1842.83  1872.91
                             1954.49  1961.93  2018.54  2057.92  2125.76
                             2137.21  2140.13  2162.86  2172.27  2636.67
                             3203.76  4189.17  4252.46  4299.67  4329.52
                             4390.51  4391.93  4497.74  4500.52  4523.69
                             5035.46

 Zero-point correction=                           0.154423 (Hartree/Particle)
 Thermal correction to Energy=                    0.165095
 Thermal correction to Enthalpy=                  0.166039
 Thermal correction to Gibbs Free Energy=         0.118341
 Sum of electronic and zero-point Energies=           -422.989087
 Sum of electronic and thermal Energies=              -422.978415
 Sum of electronic and thermal Enthalpies=            -422.977471
 Sum of electronic and thermal Free Energies=         -423.025169

                     E (Thermal)             CV                S
                      KCal/Mol        Cal/Mol-Kelvin    Cal/Mol-Kelvin
 Total                  103.599             37.221            100.388
 Electronic               0.000              0.000              0.000
 Translational            0.889              2.981             40.409
 Rotational               0.889              2.981             29.262
 Vibrational            101.821             31.260             30.718
 Vibration     1          0.597              1.973              4.415
 Vibration     2          0.604              1.950              3.479
 Vibration     3          0.605              1.946              3.368
 Vibration     4          0.613              1.921              2.911
 Vibration     5          0.625              1.882              2.456
 Vibration     6          0.631              1.861              2.285
 Vibration     7          0.643              1.823              2.029
 Vibration     8          0.662              1.764              1.737
 Vibration     9          0.674              1.729              1.596
 Vibration    10          0.707              1.630              1.298
 Vibration    11          0.724              1.583              1.182
 Vibration    12          0.823              1.328              0.751
 Vibration    13          0.916              1.116              0.523
 Vibration    14          0.964              1.021              0.441

 Optimization completed.
    -- Stationary point found.
 Normal termination of Gaussian 09 at Tue Jan 28 10:44:59 2020.
