 Gaussian 09, Revision D.01,
 Gaussian 09:  ES64L-G09RevD.01 24-Apr-2013

 -----------------------------
 # b3lyp 6-31G(2df,p) opt Freq
 -----------------------------

 -----
 titel
 -----
 Symbolic Z-matrix:
 Charge =  0 Multiplicity = 1

 SCF Done:  E(RB3LYP) =  -423.166882928     A.U. after   14 cycles
 Optimization completed.
    -- Stationary point found.
 Normal termination of Gaussian 09 at Tue Jan 28 12:07:38 2020.

 ----------------------------------------------------------------------
 #N Geom=AllCheck Guess=TCheck SCRF=Check GenChk RB3LYP/6-31G(2df,p) Fr
 eq
 ----------------------------------------------------------------------

 Structure from the checkpoint file:  "/scratch/puck/g09_c33868ea-72d9-4505-89ce-a6dd19f2431b/Gau-1507.chk"
 -----
 titel
 -----
 Charge =  0 Multiplicity = 1

                         Standard orientation:
 ---------------------------------------------------------------------
 Center     Atomic      Atomic             Coordinates (Angstroms)
 Number     Number       Type             X           Y           Z
 ---------------------------------------------------------------------
      1          6           0       -3.538486   -1.381378   -0.012568
      2          6           0       -2.272676   -0.650173   -0.466351
      3          6           0       -1.835960    0.439737    0.531234
      4          6           0       -0.571784    1.156678    0.092245
      5          8           0       -0.554426    2.320518   -0.250244
      6          6           0        0.641175    0.356246    0.091268
      7          6           0        1.654231   -0.302351    0.104605
      8          6           0        2.909103   -1.050087    0.064342
      9          8           0        4.060004   -0.231568   -0.038425
     10          1           0       -3.832034   -2.146025   -0.738150
     11          1           0       -3.384806   -1.876622    0.952443
     12          1           0       -4.378579   -0.687878    0.100560
     13          1           0       -1.454968   -1.368289   -0.597008
     14          1           0       -2.441474   -0.188399   -1.446545
     15          1           0       -2.616012    1.198812    0.641548
     16          1           0       -1.657271   -0.019346    1.512297
     17          1           0        3.028374   -1.626215    0.988858
     18          1           0        2.851464   -1.783174   -0.757286
     19          1           0        3.927068    0.373506   -0.775999
 ---------------------------------------------------------------------

 SCF Done:  E(RB3LYP) =  -423.166882928     A.U. after    1 cycles

 The electronic state is 1-A.
 Alpha  occ. eigenvalues --  -19.15363 -19.13513 -10.28756 -10.26871 -10.20818
 Alpha  occ. eigenvalues --  -10.19654 -10.19582 -10.19455 -10.18277  -1.04515
 Alpha  occ. eigenvalues --   -1.03675  -0.80887  -0.78661  -0.73100  -0.70260
 Alpha  occ. eigenvalues --   -0.62503  -0.59860  -0.54150  -0.49306  -0.48552
 Alpha  occ. eigenvalues --   -0.46741  -0.46018  -0.44040  -0.43202  -0.39802
 Alpha  occ. eigenvalues --   -0.38657  -0.37004  -0.36591  -0.34518  -0.34108
 Alpha  occ. eigenvalues --   -0.30341  -0.28838  -0.27914  -0.25663
 Alpha virt. eigenvalues --   -0.05239   0.01453   0.08255   0.09138   0.10065
 Alpha virt. eigenvalues --    0.11688   0.12848   0.13558   0.14396   0.16396
 Alpha virt. eigenvalues --    0.17332   0.18066   0.18378   0.19981   0.22525

 Mulliken charges:
               1
     1  C   -0.378131
     2  C   -0.173744
     3  C   -0.281172
     4  C    0.238319
     5  O   -0.284442
     6  C    0.042639
     7  C    0.032734
     8  C   -0.194062
     9  O   -0.395167
    10  H    0.117489
    11  H    0.117558
    12  H    0.121421
    13  H    0.110414
    14  H    0.112854
    15  H    0.121437
    16  H    0.116281
    17  H    0.150904
    18  H    0.129532
    19  H    0.295133
 Sum of Mulliken charges =   0.00000

 Dipole moment (field-independent basis, Debye):
    X=             -0.7370    Y=             -2.9379    Z=             -0.3332  Tot=              3.0472
 Quadrupole moment (field-independent basis, Debye-Ang):
   XX=            -54.0374   YY=            -58.6304   ZZ=            -51.3097
   XY=              0.3908   XZ=             -4.1227   YZ=              0.3653

  Exact polarizability: 110.021 -10.902  81.736  -0.961  -2.407  58.803
 Approx polarizability: 143.737 -30.302 133.906   1.040  -8.051  88.542

                      1                      2                      3
                      A                      A                      A
 Frequencies --     21.4381                36.0608                64.9560
 Red. masses --      2.9616                 3.1674                 2.1922
 Frc consts  --      0.0008                 0.0024                 0.0054
 IR Inten    --      2.0045                 0.3832                 0.5441

                      4                      5                      6
                      A                      A                      A
 Frequencies --     99.3958               124.7665               164.7167
 Red. masses --      3.6005                 3.8476                 4.3615
 Frc consts  --      0.0210                 0.0353                 0.0697
 IR Inten    --      1.5604                 4.4453                 1.8707

                      7                      8                      9
                      A                      A                      A
 Frequencies --    217.7044               252.6848               301.1748
 Red. masses --      2.8340                 1.1056                 1.4423
 Frc consts  --      0.0791                 0.0416                 0.0771
 IR Inten    --      1.5983                 0.2546                98.6105

                     10                     11                     12
                      A                      A                      A
 Frequencies --    346.0102               383.4134               401.7499
 Red. masses --      3.1804                 3.2334                 4.6100
 Frc consts  --      0.2243                 0.2801                 0.4384
 IR Inten    --     15.6323                14.2972                 6.9593

                     13                     14                     15
                      A                      A                      A
 Frequencies --    508.8551               625.7396               671.9664
 Red. masses --      4.8133                 5.9582                 4.3093
 Frc consts  --      0.7343                 1.3745                 1.1464
 IR Inten    --      5.0424                10.5127                10.6228

                     16                     17                     18
                      A                      A                      A
 Frequencies --    730.5785               763.0400               892.7991
 Red. masses --      2.3879                 1.4666                 1.3808
 Frc consts  --      0.7509                 0.5031                 0.6485
 IR Inten    --      9.1564                11.8411                 1.0025

                     19                     20                     21
                      A                      A                      A
 Frequencies --    906.6914               968.6948               991.2941
 Red. masses --      1.8393                 2.2920                 2.4438
 Frc consts  --      0.8909                 1.2672                 1.4149
 IR Inten    --      3.3158                61.6035                 6.5032

                     22                     23                     24
                      A                      A                      A
 Frequencies --   1044.2665              1061.3362              1094.2660
 Red. masses --      2.9687                 3.4613                 2.1553
 Frc consts  --      1.9074                 2.2972                 1.5205
 IR Inten    --      9.8526                19.9183                74.9745

                     25                     26                     27
                      A                      A                      A
 Frequencies --   1104.5880              1216.6049              1224.1778
 Red. masses --      2.0940                 1.0864                 2.3302
 Frc consts  --      1.5053                 0.9474                 2.0575
 IR Inten    --     16.6905                15.8375               104.6225

                     28                     29                     30
                      A                      A                      A
 Frequencies --   1271.5656              1292.9525              1326.0247
 Red. masses --      1.6264                 1.5478                 1.0982
 Frc consts  --      1.5494                 1.5245                 1.1377
 IR Inten    --     89.3484                21.9617                10.5285

                     31                     32                     33
                      A                      A                      A
 Frequencies --   1354.2307              1374.6754              1412.5714
 Red. masses --      1.2246                 1.4573                 1.2301
 Frc consts  --      1.3232                 1.6225                 1.4462
 IR Inten    --      5.2409                 6.5696                 1.4320

                     34                     35                     36
                      A                      A                      A
 Frequencies --   1416.8994              1467.4895              1479.6120
 Red. masses --      1.2292                 1.0918                 1.0737
 Frc consts  --      1.4540                 1.3853                 1.3850
 IR Inten    --    104.1752                 3.3205                 2.9763

                     37                     38                     39
                      A                      A                      A
 Frequencies --   1492.6708              1499.3181              1508.8036
 Red. masses --      1.0541                 1.0410                 1.0788
 Frc consts  --      1.3838                 1.3787                 1.4469
 IR Inten    --      0.6725                 5.7142                 3.6343

                     40                     41                     42
                      A                      A                      A
 Frequencies --   1762.0741              2319.2720              2971.9241
 Red. masses --     11.7940                11.9269                 1.0713
 Frc consts  --     21.5754                37.7990                 5.5747
 IR Inten    --    195.5585                67.3638                32.7321

                     43                     44                     45
                      A                      A                      A
 Frequencies --   3025.3803              3031.7664              3036.5744
 Red. masses --      1.0609                 1.0395                 1.0561
 Frc consts  --      5.7210                 5.6293                 5.7375
 IR Inten    --      1.3779                17.3184                37.1072

                     46                     47                     48
                      A                      A                      A
 Frequencies --   3064.1555              3064.9348              3096.1683
 Red. masses --      1.0874                 1.1003                 1.1009
 Frc consts  --      6.0156                 6.0900                 6.2179
 IR Inten    --     10.8390                 3.0273                 2.1606

                     49                     50                     51
                      A                      A                      A
 Frequencies --   3105.6067              3107.2775              3815.4367
 Red. masses --      1.1022                 1.1018                 1.0664
 Frc consts  --      6.2631                 6.2679                 9.1463
 IR Inten    --     43.7943                42.9082                27.7706

 - Thermochemistry -
 -------------------
 Temperature   298.150 Kelvin.  Pressure   1.00000 Atm.
 Atom     1 has atomic number  6 and mass  12.00000

 Molecular mass:   126.06808 amu.
 Principal axes and moments of inertia in atomic units:
                           1         2         3
     Eigenvalues --   652.840582773.106873310.09282
           X            0.99988   0.01510  -0.00369
           Y           -0.01507   0.99987   0.00647
           Z            0.00378  -0.00641   0.99997
 This molecule is an asymmetric top.
 Rotational symmetry number  1.
 Warning -- assumption of classical behavior for rotation
           may cause significant error
 Rotational temperatures (Kelvin)      0.13267     0.03123     0.02617
 Rotational constants (GHZ):           2.76444     0.65080     0.54522
 Zero-point vibrational energy     409818.8 (Joules/Mol)
                                   97.94904 (Kcal/Mol)
 Warning -- explicit consideration of  13 degrees of freedom as
           vibrations may cause significant error
 Vibrational temperatures:     30.84    51.88    93.46   143.01   179.51
          (Kelvin)            236.99   313.23   363.56   433.32   497.83
                              551.65   578.03   732.13   900.30   966.81
                             1051.14  1097.84  1284.54  1304.53  1393.73
                             1426.25  1502.46  1527.02  1574.40  1589.25
                             1750.42  1761.32  1829.50  1860.27  1907.85
                             1948.43  1977.85  2032.37  2038.60  2111.39
                             2128.83  2147.62  2157.18  2170.83  2535.23
                             3336.91  4275.93  4352.84  4362.03  4368.95
                             4408.63  4409.75  4454.69  4468.27  4470.67
                             5489.56

 Zero-point correction=                           0.156092 (Hartree/Particle)
 Thermal correction to Energy=                    0.167066
 Thermal correction to Enthalpy=                  0.168010
 Thermal correction to Gibbs Free Energy=         0.117146
 Sum of electronic and zero-point Energies=           -423.010791
 Sum of electronic and thermal Energies=              -422.999817
 Sum of electronic and thermal Enthalpies=            -422.998873
 Sum of electronic and thermal Free Energies=         -423.049736

                     E (Thermal)             CV                S
                      KCal/Mol        Cal/Mol-Kelvin    Cal/Mol-Kelvin
 Total                  104.835             36.745            107.051
 Electronic               0.000              0.000              0.000
 Translational            0.889              2.981             40.409
 Rotational               0.889              2.981             30.173
 Vibrational            103.058             30.783             36.470
 Vibration     1          0.593              1.985              6.496
 Vibration     2          0.594              1.982              5.465
 Vibration     3          0.597              1.971              4.301
 Vibration     4          0.604              1.950              3.466
 Vibration     5          0.610              1.928              3.025
 Vibration     6          0.623              1.886              2.495
 Vibration     7          0.646              1.814              1.978
 Vibration     8          0.664              1.758              1.712
 Vibration     9          0.693              1.671              1.410
 Vibration    10          0.724              1.583              1.184
 Vibration    11          0.753              1.506              1.026
 Vibration    12          0.767              1.466              0.956
 Vibration    13          0.864              1.230              0.636

 Normal termination of Gaussian 09 at Tue Jan 28 12:44:44 2020.
