 Gaussian 09, Revision D.01,
 Gaussian 09:  ES64L-G09RevD.01 24-Apr-2013

 -----------------------------
 # b3lyp 6-31G(2df,p) opt Freq
 -----------------------------

 -----
 titel
 -----
 Symbolic Z-matrix:
 Charge =  0 Multiplicity = 1

 SCF Done:  E(RB3LYP) =  -423.084012402     A.U. after   13 cycles
 Optimization completed.
    -- Stationary point found.
 Normal termination of Gaussian 09 at Tue Jan 28 14:12:34 2020.

 ----------------------------------------------------------------------
 #N Geom=AllCheck Guess=TCheck SCRF=Check GenChk RB3LYP/6-31G(2df,p) Fr
 eq
 ----------------------------------------------------------------------

 Structure from the checkpoint file:  "/scratch/puck/g09_a8ec1ef1-2b55-419f-9f58-c845b19defd4/Gau-44163.chk"
 -----
 titel
 -----
 Charge =  0 Multiplicity = 1

                         Standard orientation:
 ---------------------------------------------------------------------
 Center     Atomic      Atomic             Coordinates (Angstroms)
 Number     Number       Type             X           Y           Z
 ---------------------------------------------------------------------
      1          6           0       -3.321606    0.079896    0.000218
      2          6           0       -1.882959   -0.403025   -0.000292
      3          8           0       -1.033215    0.747855   -0.000089
      4          6           0        0.300878    0.481330   -0.000029
      5          6           0        1.397718    1.552892   -0.000021
      6          6           0        2.194252    0.229985    0.000063
      7          6           0        1.156457   -0.505870    0.897890
      8          8           0        1.014350   -1.645814    0.000071
      9          6           0        1.156541   -0.505936   -0.897806
     10          1           0       -4.006079   -0.773636   -0.000056
     11          1           0       -3.524545    0.687316    0.886855
     12          1           0       -3.524878    0.688146   -0.885776
     13          1           0       -1.670479   -1.019844    0.883068
     14          1           0       -1.670908   -1.019182   -0.884229
     15          1           0        1.473173    2.169224   -0.899596
     16          1           0        1.473096    2.169293    0.899514
     17          1           0        3.267915    0.062805    0.000123
     18          1           0        1.162874   -0.677973    1.973916
     19          1           0        1.163060   -0.678112   -1.973820
 ---------------------------------------------------------------------

 SCF Done:  E(RB3LYP) =  -423.084012402     A.U. after    1 cycles

 The electronic state is 1-A.
 Alpha  occ. eigenvalues --  -19.15341 -19.12944 -10.24869 -10.24238 -10.24235
 Alpha  occ. eigenvalues --  -10.23024 -10.20287 -10.18988 -10.17704  -1.06828
 Alpha  occ. eigenvalues --   -1.03852  -0.86500  -0.75863  -0.65701  -0.65565
 Alpha  occ. eigenvalues --   -0.63743  -0.60657  -0.53326  -0.52280  -0.47777
 Alpha  occ. eigenvalues --   -0.46019  -0.45918  -0.45043  -0.39940  -0.38809
 Alpha  occ. eigenvalues --   -0.38199  -0.38105  -0.34658  -0.33531  -0.33074
 Alpha  occ. eigenvalues --   -0.31077  -0.30245  -0.24913  -0.23138
 Alpha virt. eigenvalues --    0.07756   0.10350   0.11303   0.11351   0.12926
 Alpha virt. eigenvalues --    0.12947   0.14737   0.15721   0.16092   0.16815
 Alpha virt. eigenvalues --    0.17695   0.17948   0.18162   0.18659   0.20392

 Mulliken charges:
               1
     1  C   -0.387536
     2  C   -0.060725
     3  O   -0.294855
     4  C    0.412243
     5  C   -0.339348
     6  C   -0.086968
     7  C    0.001509
     8  O   -0.323924
     9  C    0.001512
    10  H    0.118162
    11  H    0.126896
    12  H    0.126900
    13  H    0.108043
    14  H    0.108007
    15  H    0.104823
    16  H    0.104824
    17  H    0.091715
    18  H    0.094362
    19  H    0.094361
 Sum of Mulliken charges =   0.00000

 Dipole moment (field-independent basis, Debye):
    X=              0.0026    Y=              0.7581    Z=             -0.0001  Tot=              0.7581
 Quadrupole moment (field-independent basis, Debye-Ang):
   XX=            -49.7466   YY=            -58.3752   ZZ=            -49.5947
   XY=              3.8614   XZ=              0.0002   YZ=              0.0003

  Exact polarizability:  87.303   2.891  71.319   0.000   0.001  68.893
 Approx polarizability: 109.757   1.438 110.745   0.001   0.001 108.182

                      1                      2                      3
                      A                      A                      A
 Frequencies --     62.5606                85.2722               138.6955
 Red. masses --      2.0183                 2.6606                 4.0587
 Frc consts  --      0.0047                 0.0114                 0.0460
 IR Inten    --      0.0115                 3.3008                 2.6207

                      4                      5                      6
                      A                      A                      A
 Frequencies --    243.9715               313.0068               347.1038
 Red. masses --      1.1501                 3.4442                 2.8545
 Frc consts  --      0.0403                 0.1988                 0.2026
 IR Inten    --      0.2390                 2.3166                 0.7373

                      7                      8                      9
                      A                      A                      A
 Frequencies --    388.4162               434.3714               551.0811
 Red. masses --      4.2804                 2.4097                 4.0796
 Frc consts  --      0.3805                 0.2679                 0.7300
 IR Inten    --      0.4444                 1.2958                 0.1374

                     10                     11                     12
                      A                      A                      A
 Frequencies --    700.6066               708.4087               785.8531
 Red. masses --      3.2501                 4.0652                 4.4496
 Frc consts  --      0.9399                 1.2020                 1.6190
 IR Inten    --     10.3374                 1.2689                 4.2860

                     13                     14                     15
                      A                      A                      A
 Frequencies --    812.6769               844.0018               856.5530
 Red. masses --      1.0909                 3.6890                 2.0262
 Frc consts  --      0.4245                 1.5482                 0.8759
 IR Inten    --      0.3461                23.9572                 9.1508

                     16                     17                     18
                      A                      A                      A
 Frequencies --    875.7817               884.3860               914.1103
 Red. masses --      2.1640                 2.2882                 2.8088
 Frc consts  --      0.9779                 1.0545                 1.3829
 IR Inten    --      0.5243                 0.8138                34.3716

                     19                     20                     21
                      A                      A                      A
 Frequencies --    945.2246               978.6164              1051.9518
 Red. masses --      2.3575                 1.3917                 1.3473
 Frc consts  --      1.2410                 0.7853                 0.8785
 IR Inten    --      6.8325                 0.6044                 0.0052

                     22                     23                     24
                      A                      A                      A
 Frequencies --   1061.9978              1076.5915              1085.7235
 Red. masses --      4.1228                 2.5466                 2.8837
 Frc consts  --      2.7396                 1.7391                 2.0028
 IR Inten    --     30.1260                 9.4613                60.6848

                     25                     26                     27
                      A                      A                      A
 Frequencies --   1115.4531              1135.5407              1149.5154
 Red. masses --      1.4006                 2.3148                 2.1585
 Frc consts  --      1.0268                 1.7586                 1.6805
 IR Inten    --      0.0280                 0.3756                18.9739

                     28                     29                     30
                      A                      A                      A
 Frequencies --   1162.0418              1165.8541              1181.8025
 Red. masses --      1.7674                 1.3408                 1.5621
 Frc consts  --      1.4061                 1.0737                 1.2854
 IR Inten    --      6.6254                 0.8158                 3.8465

                     31                     32                     33
                      A                      A                      A
 Frequencies --   1225.4729              1254.2480              1297.8283
 Red. masses --      1.9350                 2.2818                 1.0982
 Frc consts  --      1.7121                 2.1150                 1.0899
 IR Inten    --      9.2150                40.5081                 1.7410

                     34                     35                     36
                      A                      A                      A
 Frequencies --   1309.0035              1363.3766              1403.6615
 Red. masses --      2.1935                 2.4612                 1.2946
 Frc consts  --      2.2145                 2.6954                 1.5029
 IR Inten    --     53.4871               275.9291                19.5456

                     37                     38                     39
                      A                      A                      A
 Frequencies --   1434.4293              1483.6509              1496.1731
 Red. masses --      1.5208                 1.0403                 1.0486
 Frc consts  --      1.8437                 1.3491                 1.3829
 IR Inten    --      0.7120                 4.3619                 2.6488

                     40                     41                     42
                      A                      A                      A
 Frequencies --   1515.8963              1522.9438              3009.9624
 Red. masses --      1.1244                 1.1635                 1.0560
 Frc consts  --      1.5223                 1.5899                 5.6368
 IR Inten    --     14.0524                 4.3218                24.3312

                     43                     44                     45
                      A                      A                      A
 Frequencies --   3043.8270              3044.9293              3057.9293
 Red. masses --      1.1065                 1.0348                 1.0554
 Frc consts  --      6.0399                 5.6525                 5.8148
 IR Inten    --     22.0918                17.9076                40.0188

                     46                     47                     48
                      A                      A                      A
 Frequencies --   3116.3381              3119.9048              3120.9586
 Red. masses --      1.1102                 1.1014                 1.0926
 Frc consts  --      6.3525                 6.3163                 6.2703
 IR Inten    --     22.3624                21.9867                21.1074

                     49                     50                     51
                      A                      A                      A
 Frequencies --   3122.3911              3126.2969              3164.0594
 Red. masses --      1.0999                 1.0930                 1.0958
 Frc consts  --      6.3180                 6.2941                 6.4637
 IR Inten    --     74.9040                 2.2068                24.6288

 - Thermochemistry -
 -------------------
 Temperature   298.150 Kelvin.  Pressure   1.00000 Atm.
 Atom     1 has atomic number  6 and mass  12.00000

 Molecular mass:   126.06808 amu.
 Principal axes and moments of inertia in atomic units:
                           1         2         3
     Eigenvalues --   495.219671497.920281764.67188
           X            0.99973   0.02330   0.00000
           Y           -0.02330   0.99973   0.00001
           Z            0.00000  -0.00001   1.00000
 This molecule is an asymmetric top.
 Rotational symmetry number  1.
 Warning -- assumption of classical behavior for rotation
           may cause significant error
 Rotational temperatures (Kelvin)      0.17490     0.05782     0.04908
 Rotational constants (GHZ):           3.64432     1.20483     1.02271
 Zero-point vibrational energy     414448.9 (Joules/Mol)
                                   99.05567 (Kcal/Mol)
 Warning -- explicit consideration of   9 degrees of freedom as
           vibrations may cause significant error
 Vibrational temperatures:     90.01   122.69   199.55   351.02   450.35
          (Kelvin)            499.40   558.84   624.96   792.88  1008.02
                             1019.24  1130.67  1169.26  1214.33  1232.39
                             1260.05  1272.43  1315.20  1359.97  1408.01
                             1513.52  1527.98  1548.97  1562.11  1604.89
                             1633.79  1653.89  1671.92  1677.40  1700.35
                             1763.18  1804.58  1867.28  1883.36  1961.59
                             2019.55  2063.82  2134.64  2152.66  2181.03
                             2191.17  4330.66  4379.38  4380.97  4399.67
                             4483.71  4488.84  4490.36  4492.42  4498.04
                             4552.37

 Zero-point correction=                           0.157855 (Hartree/Particle)
 Thermal correction to Energy=                    0.166064
 Thermal correction to Enthalpy=                  0.167008
 Thermal correction to Gibbs Free Energy=         0.124461
 Sum of electronic and zero-point Energies=           -422.926157
 Sum of electronic and thermal Energies=              -422.917949
 Sum of electronic and thermal Enthalpies=            -422.917004
 Sum of electronic and thermal Free Energies=         -422.959551

                     E (Thermal)             CV                S
                      KCal/Mol        Cal/Mol-Kelvin    Cal/Mol-Kelvin
 Total                  104.207             31.240             89.547
 Electronic               0.000              0.000              0.000
 Translational            0.889              2.981             40.409
 Rotational               0.889              2.981             28.661
 Vibrational            102.429             25.278             20.477
 Vibration     1          0.597              1.972              4.375
 Vibration     2          0.601              1.959              3.766
 Vibration     3          0.614              1.915              2.822
 Vibration     4          0.659              1.773              1.774
 Vibration     5          0.701              1.649              1.346
 Vibration     6          0.725              1.581              1.179
 Vibration     7          0.757              1.495              1.006
 Vibration     8          0.795              1.395              0.844
 Vibration     9          0.906              1.137              0.542

 Optimization completed.
    -- Stationary point found.
 Normal termination of Gaussian 09 at Tue Jan 28 14:58:45 2020.
