 Gaussian 09, Revision D.01,
 Gaussian 09:  ES64L-G09RevD.01 24-Apr-2013

 -----------------------------
 # b3lyp 6-31G(2df,p) opt Freq
 -----------------------------

 -----
 titel
 -----
 Symbolic Z-matrix:
 Charge =  0 Multiplicity = 1

 SCF Done:  E(RB3LYP) =  -423.193860517     A.U. after   14 cycles
 Optimization completed.
    -- Stationary point found.
 Normal termination of Gaussian 09 at Mon Jan 27 13:05:52 2020.

 ----------------------------------------------------------------------
 #N Geom=AllCheck Guess=TCheck SCRF=Check GenChk RB3LYP/6-31G(2df,p) Fr
 eq
 ----------------------------------------------------------------------

 Structure from the checkpoint file:  "/scratch/puck/g09_a0432e9a-1815-401b-82c7-d390a576ae44/Gau-45662.chk"
 -----
 titel
 -----
 Charge =  0 Multiplicity = 1

                         Standard orientation:
 ---------------------------------------------------------------------
 Center     Atomic      Atomic             Coordinates (Angstroms)
 Number     Number       Type             X           Y           Z
 ---------------------------------------------------------------------
      1          8           0       -2.320392   -1.054668   -0.551794
      2          6           0       -1.447987   -0.515875    0.089474
      3          6           0       -1.473611    0.980586    0.389484
      4          6           0       -0.300472    1.785565   -0.203736
      5          8           0        0.972129    1.346569    0.250964
      6          6           0        1.493724    0.301387   -0.514539
      7          6           0        2.306462   -0.729224    0.201281
      8          6           0        0.931164   -1.089272   -0.328493
      9          6           0       -0.241957   -1.285348    0.624289
     10          1           0       -2.415867    1.385391    0.008483
     11          1           0       -1.454691    1.111999    1.478899
     12          1           0       -0.342858    1.763017   -1.302057
     13          1           0       -0.395682    2.828717    0.112757
     14          1           0        1.799230    0.598973   -1.518262
     15          1           0        3.183586   -1.131338   -0.293232
     16          1           0        2.403402   -0.608873    1.274843
     17          1           0        0.888372   -1.708559   -1.219189
     18          1           0       -0.502766   -2.343971    0.697251
     19          1           0        0.019431   -0.917472    1.620585
 ---------------------------------------------------------------------

 SCF Done:  E(RB3LYP) =  -423.193860517     A.U. after    1 cycles

 The electronic state is 1-A.
 Alpha  occ. eigenvalues --  -19.15359 -19.12626 -10.26647 -10.24265 -10.24094
 Alpha  occ. eigenvalues --  -10.20253 -10.19307 -10.19263 -10.19222  -1.04936
 Alpha  occ. eigenvalues --   -1.03606  -0.86364  -0.78746  -0.72930  -0.66262
 Alpha  occ. eigenvalues --   -0.60467  -0.56994  -0.53750  -0.51427  -0.50412
 Alpha  occ. eigenvalues --   -0.46999  -0.46190  -0.43061  -0.41721  -0.41648
 Alpha  occ. eigenvalues --   -0.39661  -0.38612  -0.36813  -0.35516  -0.33931
 Alpha  occ. eigenvalues --   -0.32249  -0.28696  -0.25523  -0.23688
 Alpha virt. eigenvalues --   -0.01335   0.08133   0.10257   0.10797   0.12276
 Alpha virt. eigenvalues --    0.13684   0.14209   0.14659   0.15359   0.16504
 Alpha virt. eigenvalues --    0.16947   0.18021   0.19604   0.19727   0.22859

 Mulliken charges:
               1
     1  O   -0.308725
     2  C    0.382686
     3  C   -0.292249
     4  C   -0.086625
     5  O   -0.245927
     6  C    0.115985
     7  C   -0.335239
     8  C   -0.045457
     9  C   -0.314544
    10  H    0.118611
    11  H    0.119926
    12  H    0.105314
    13  H    0.115738
    14  H    0.089190
    15  H    0.118708
    16  H    0.126706
    17  H    0.103214
    18  H    0.120593
    19  H    0.112094
 Sum of Mulliken charges =   0.00000

 Dipole moment (field-independent basis, Debye):
    X=              1.5604    Y=              0.7862    Z=              0.4280  Tot=              1.7990
 Quadrupole moment (field-independent basis, Debye-Ang):
   XX=            -58.7391   YY=            -53.2609   ZZ=            -51.3570
   XY=             -6.8448   XZ=             -4.4048   YZ=             -1.9796

  Exact polarizability:  85.673  -2.998  77.315   1.340   0.274  63.971
 Approx polarizability: 119.181   3.034 109.950   8.113   4.685 102.066

                      1                      2                      3
                      A                      A                      A
 Frequencies --     91.2293               127.2940               245.0892
 Red. masses --      5.8505                 2.5980                 2.6145
 Frc consts  --      0.0287                 0.0248                 0.0925
 IR Inten    --      5.0500                 3.0300                 0.8851

                      4                      5                      6
                      A                      A                      A
 Frequencies --    281.1927               324.3115               352.9732
 Red. masses --      4.8862                 2.7611                 3.5270
 Frc consts  --      0.2276                 0.1711                 0.2589
 IR Inten    --      2.4545                 1.1245                 0.2523

                      7                      8                      9
                      A                      A                      A
 Frequencies --    453.8800               460.5940               508.5222
 Red. masses --      2.5468                 2.2903                 2.7051
 Frc consts  --      0.3091                 0.2863                 0.4121
 IR Inten    --      7.3770                 0.6666                12.4237

                     10                     11                     12
                      A                      A                      A
 Frequencies --    618.0938               660.7965               768.0356
 Red. masses --      2.8018                 3.7987                 2.1787
 Frc consts  --      0.6307                 0.9773                 0.7572
 IR Inten    --      3.8354                 1.5447                13.0242

                     13                     14                     15
                      A                      A                      A
 Frequencies --    803.4710               827.1273               837.4190
 Red. masses --      2.3780                 1.7621                 2.1426
 Frc consts  --      0.9045                 0.7103                 0.8853
 IR Inten    --      8.5029                 4.4550                 1.2111

                     16                     17                     18
                      A                      A                      A
 Frequencies --    880.8811               913.2350               956.2475
 Red. masses --      2.1062                 2.5120                 1.8171
 Frc consts  --      0.9629                 1.2343                 0.9790
 IR Inten    --      0.7458                 1.4825                 3.7698

                     19                     20                     21
                      A                      A                      A
 Frequencies --    995.0944              1034.8530              1055.6096
 Red. masses --      2.4535                 1.7393                 1.6402
 Frc consts  --      1.4314                 1.0974                 1.0768
 IR Inten    --      6.9548                 3.0009                29.3075

                     22                     23                     24
                      A                      A                      A
 Frequencies --   1074.6046              1095.6321              1122.3379
 Red. masses --      1.9529                 2.4580                 2.0418
 Frc consts  --      1.3287                 1.7384                 1.5154
 IR Inten    --      0.1767                31.1051                37.7505

                     25                     26                     27
                      A                      A                      A
 Frequencies --   1131.8973              1169.0479              1174.1190
 Red. masses --      1.3195                 2.1669                 1.8882
 Frc consts  --      0.9961                 1.7448                 1.5337
 IR Inten    --      5.1166                12.6454                43.1997

                     28                     29                     30
                      A                      A                      A
 Frequencies --   1234.2767              1242.3684              1257.6175
 Red. masses --      1.3772                 1.4109                 1.3644
 Frc consts  --      1.2361                 1.2830                 1.2714
 IR Inten    --     12.4279                 8.4309                 3.8883

                     31                     32                     33
                      A                      A                      A
 Frequencies --   1292.5913              1312.1841              1344.8255
 Red. masses --      1.8050                 1.4631                 1.2546
 Frc consts  --      1.7769                 1.4843                 1.3369
 IR Inten    --     72.6650                 3.2442                10.0855

                     34                     35                     36
                      A                      A                      A
 Frequencies --   1369.7188              1396.9782              1421.1301
 Red. masses --      1.3458                 1.5175                 1.3463
 Frc consts  --      1.4876                 1.7449                 1.6020
 IR Inten    --      9.6385                24.8140                 7.3359

                     37                     38                     39
                      A                      A                      A
 Frequencies --   1458.5441              1471.5908              1483.9988
 Red. masses --      1.1122                 1.1601                 1.2792
 Frc consts  --      1.3941                 1.4802                 1.6598
 IR Inten    --      3.2609                 3.7897                12.6778

                     40                     41                     42
                      A                      A                      A
 Frequencies --   1501.3129              1811.1193              3005.4054
 Red. masses --      1.1224                10.8543                 1.0663
 Frc consts  --      1.4906                20.9772                 5.6745
 IR Inten    --      6.1729               182.2047                37.9130

                     43                     44                     45
                      A                      A                      A
 Frequencies --   3031.0255              3058.8074              3082.7971
 Red. masses --      1.0615                 1.0583                 1.0977
 Frc consts  --      5.7460                 5.8338                 6.1463
 IR Inten    --      8.2213                13.0792                35.5586

                     46                     47                     48
                      A                      A                      A
 Frequencies --   3093.4455              3100.4678              3114.2859
 Red. masses --      1.0874                 1.1005                 1.1044
 Frc consts  --      6.1306                 6.2327                 6.3110
 IR Inten    --     31.4520                17.8348                 9.6672

                     49                     50                     51
                      A                      A                      A
 Frequencies --   3136.3689              3156.4301              3225.6597
 Red. masses --      1.0549                 1.0899                 1.1168
 Frc consts  --      6.1140                 6.3977                 6.8463
 IR Inten    --      9.8490                12.9358                 7.5900

 - Thermochemistry -
 -------------------
 Temperature   298.150 Kelvin.  Pressure   1.00000 Atm.
 Atom     1 has atomic number  8 and mass  15.99491

 Molecular mass:   126.06808 amu.
 Principal axes and moments of inertia in atomic units:
                           1         2         3
     Eigenvalues --   701.720481126.017851610.41434
           X            0.99560  -0.09273  -0.01386
           Y            0.09247   0.99554  -0.01850
           Z            0.01551   0.01714   0.99973
 This molecule is an asymmetric top.
 Rotational symmetry number  1.
 Warning -- assumption of classical behavior for rotation
           may cause significant error
 Rotational temperatures (Kelvin)      0.12343     0.07692     0.05378
 Rotational constants (GHZ):           2.57188     1.60276     1.12067
 Zero-point vibrational energy     422081.6 (Joules/Mol)
                                  100.87993 (Kcal/Mol)
 Warning -- explicit consideration of  10 degrees of freedom as
           vibrations may cause significant error
 Vibrational temperatures:    131.26   183.15   352.63   404.57   466.61
          (Kelvin)            507.85   653.03   662.69   731.65   889.30
                              950.74  1105.03  1156.01  1190.05  1204.86
                             1267.39  1313.94  1375.83  1431.72  1488.92
                             1518.78  1546.11  1576.37  1614.79  1628.55
                             1682.00  1689.29  1775.85  1787.49  1809.43
                             1859.75  1887.94  1934.90  1970.72  2009.94
                             2044.69  2098.52  2117.29  2135.14  2160.05
                             2605.79  4324.10  4360.96  4400.94  4435.45
                             4450.77  4460.88  4480.76  4512.53  4541.39
                             4641.00

 Zero-point correction=                           0.160762 (Hartree/Particle)
 Thermal correction to Energy=                    0.168541
 Thermal correction to Enthalpy=                  0.169485
 Thermal correction to Gibbs Free Energy=         0.128418
 Sum of electronic and zero-point Energies=           -423.033098
 Sum of electronic and thermal Energies=              -423.025319
 Sum of electronic and thermal Enthalpies=            -423.024375
 Sum of electronic and thermal Free Energies=         -423.065443

                     E (Thermal)             CV                S
                      KCal/Mol        Cal/Mol-Kelvin    Cal/Mol-Kelvin
 Total                  105.761             30.542             86.434
 Electronic               0.000              0.000              0.000
 Translational            0.889              2.981             40.409
 Rotational               0.889              2.981             28.633
 Vibrational            103.984             24.580             17.392
 Vibration     1          0.602              1.955              3.634
 Vibration     2          0.611              1.926              2.987
 Vibration     3          0.660              1.771              1.766
 Vibration     4          0.681              1.708              1.526
 Vibration     5          0.709              1.627              1.288
 Vibration     6          0.729              1.569              1.153
 Vibration     7          0.812              1.352              0.784
 Vibration     8          0.818              1.337              0.764
 Vibration     9          0.864              1.231              0.637
 Vibration    10          0.978              0.994              0.420

 Normal termination of Gaussian 09 at Mon Jan 27 13:45:55 2020.
