 Gaussian 09, Revision D.01,
 Gaussian 09:  ES64L-G09RevD.01 24-Apr-2013

 -----------------------------
 # b3lyp 6-31G(2df,p) opt Freq
 -----------------------------

 -----
 titel
 -----
 Symbolic Z-matrix:
 Charge =  0 Multiplicity = 1

 SCF Done:  E(RB3LYP) =  -423.138778220     A.U. after   12 cycles
 Optimization completed.
    -- Stationary point found.
 Normal termination of Gaussian 09 at Tue Jan 28 12:09:38 2020.

 ----------------------------------------------------------------------
 #N Geom=AllCheck Guess=TCheck SCRF=Check GenChk RB3LYP/6-31G(2df,p) Fr
 eq
 ----------------------------------------------------------------------

 Structure from the checkpoint file:  "/scratch/puck/g09_d41fbfe7-376b-4788-b852-4c01a424801e/Gau-18849.chk"
 -----
 titel
 -----
 Charge =  0 Multiplicity = 1

                         Standard orientation:
 ---------------------------------------------------------------------
 Center     Atomic      Atomic             Coordinates (Angstroms)
 Number     Number       Type             X           Y           Z
 ---------------------------------------------------------------------
      1          8           0       -2.607224    0.071163   -0.470258
      2          6           0       -1.715606   -0.476036    0.485187
      3          6           0       -0.298498   -0.042840    0.212397
      4          8           0       -0.249087    1.385505    0.246342
      5          6           0        1.126276    1.669210   -0.051605
      6          6           0        1.672382    0.259349   -0.207477
      7          6           0        0.580646   -0.567608   -0.968682
      8          6           0        0.961770   -1.802507   -0.121033
      9          6           0        0.980263   -0.629103    0.886793
     10          1           0       -2.398508    1.011829   -0.514924
     11          1           0       -1.988546   -0.175524    1.509615
     12          1           0       -1.806596   -1.563892    0.421272
     13          1           0        1.200686    2.268483   -0.967629
     14          1           0        1.581472    2.228784    0.774812
     15          1           0        2.727817    0.112667   -0.437309
     16          1           0        0.346119   -0.519530   -2.032150
     17          1           0        0.200277   -2.573849    0.016580
     18          1           0        1.931257   -2.253892   -0.344867
     19          1           0        1.213115   -0.651206    1.952458
 ---------------------------------------------------------------------

 SCF Done:  E(RB3LYP) =  -423.138778220     A.U. after    1 cycles

 The electronic state is 1-A.
 Alpha  occ. eigenvalues --  -19.14132 -19.12658 -10.23962 -10.22887 -10.22467
 Alpha  occ. eigenvalues --  -10.20263 -10.20210 -10.19929 -10.19197  -1.05117
 Alpha  occ. eigenvalues --   -1.00675  -0.90052  -0.75042  -0.68826  -0.65193
 Alpha  occ. eigenvalues --   -0.63772  -0.58472  -0.54500  -0.50729  -0.49231
 Alpha  occ. eigenvalues --   -0.46958  -0.45849  -0.45111  -0.41356  -0.40201
 Alpha  occ. eigenvalues --   -0.37347  -0.34770  -0.33721  -0.32877  -0.32027
 Alpha  occ. eigenvalues --   -0.31055  -0.30794  -0.26099  -0.24515
 Alpha virt. eigenvalues --    0.09060   0.10166   0.11322   0.12330   0.12903
 Alpha virt. eigenvalues --    0.13632   0.14219   0.14693   0.15185   0.16342
 Alpha virt. eigenvalues --    0.17195   0.18510   0.19177   0.20190   0.21014

 Mulliken charges:
               1
     1  O   -0.421877
     2  C   -0.165677
     3  C    0.481420
     4  O   -0.341745
     5  C   -0.115774
     6  C   -0.059449
     7  C   -0.112953
     8  C   -0.260855
     9  C   -0.133613
    10  H    0.292454
    11  H    0.093693
    12  H    0.111790
    13  H    0.103866
    14  H    0.104278
    15  H    0.075719
    16  H    0.079409
    17  H    0.098760
    18  H    0.097050
    19  H    0.073505
 Sum of Mulliken charges =   0.00000

 Dipole moment (field-independent basis, Debye):
    X=              2.3409    Y=             -0.0408    Z=              0.3464  Tot=              2.3668
 Quadrupole moment (field-independent basis, Debye-Ang):
   XX=            -56.5412   YY=            -51.7168   ZZ=            -52.6230
   XY=              0.2052   XZ=             -1.8737   YZ=             -1.6151

  Exact polarizability:  77.895   1.978  79.266  -0.560  -1.248  66.696
 Approx polarizability: 109.728   1.536 114.218   1.115  -1.361 105.189

                      1                      2                      3
                      A                      A                      A
 Frequencies --    104.5547               164.1263               284.9323
 Red. masses --      3.8067                 4.2063                 2.1639
 Frc consts  --      0.0245                 0.0668                 0.1035
 IR Inten    --      3.9017                 0.7733                 4.2792

                      4                      5                      6
                      A                      A                      A
 Frequencies --    317.9296               351.5105               433.4772
 Red. masses --      2.2099                 2.7713                 1.3987
 Frc consts  --      0.1316                 0.2017                 0.1548
 IR Inten    --      2.6775                 7.4130               100.0610

                      7                      8                      9
                      A                      A                      A
 Frequencies --    444.6069               492.7141               656.7227
 Red. masses --      2.2290                 2.9198                 4.0903
 Frc consts  --      0.2596                 0.4176                 1.0394
 IR Inten    --     22.0029                 1.4668                 7.5149

                     10                     11                     12
                      A                      A                      A
 Frequencies --    701.1489               734.3412               759.3117
 Red. masses --      3.9121                 4.1876                 3.2392
 Frc consts  --      1.1331                 1.3305                 1.1003
 IR Inten    --      5.2567                 4.5114                 2.9143

                     13                     14                     15
                      A                      A                      A
 Frequencies --    837.3392               880.7472               915.4112
 Red. masses --      2.5370                 2.0966                 2.1833
 Frc consts  --      1.0480                 0.9582                 1.0779
 IR Inten    --      8.9227                17.6247                 0.9953

                     16                     17                     18
                      A                      A                      A
 Frequencies --    922.9017               952.7181               969.9167
 Red. masses --      2.8480                 1.6974                 1.7741
 Frc consts  --      1.4292                 0.9077                 0.9833
 IR Inten    --      5.7560                23.3155                 8.6655

                     19                     20                     21
                      A                      A                      A
 Frequencies --   1009.1560              1022.2331              1030.5194
 Red. masses --      1.2037                 2.6581                 1.8542
 Frc consts  --      0.7223                 1.6365                 1.1601
 IR Inten    --      0.8186                34.3083                20.0325

                     22                     23                     24
                      A                      A                      A
 Frequencies --   1049.6990              1074.1060              1076.8141
 Red. masses --      2.0612                 3.1656                 2.7849
 Frc consts  --      1.3381                 2.1518                 1.9026
 IR Inten    --     57.5468                47.9015                 9.3706

                     25                     26                     27
                      A                      A                      A
 Frequencies --   1099.1525              1125.1781              1146.6595
 Red. masses --      1.5172                 2.2032                 1.6262
 Frc consts  --      1.0800                 1.6434                 1.2598
 IR Inten    --      2.0485                15.9460                 4.3485

                     28                     29                     30
                      A                      A                      A
 Frequencies --   1170.1188              1202.3952              1207.9088
 Red. masses --      1.3503                 1.7504                 1.3086
 Frc consts  --      1.0893                 1.4910                 1.1249
 IR Inten    --      0.8926                 6.9952                 3.1792

                     31                     32                     33
                      A                      A                      A
 Frequencies --   1240.4074              1245.6554              1258.7551
 Red. masses --      1.4782                 1.5620                 1.7296
 Frc consts  --      1.3400                 1.4280                 1.6146
 IR Inten    --     24.4589                17.8135                 7.5334

                     34                     35                     36
                      A                      A                      A
 Frequencies --   1313.7847              1326.2865              1370.3925
 Red. masses --      2.0161                 2.3747                 1.5183
 Frc consts  --      2.0503                 2.4611                 1.6799
 IR Inten    --      1.1620                26.2967                21.5529

                     37                     38                     39
                      A                      A                      A
 Frequencies --   1376.0459              1451.6147              1495.2975
 Red. masses --      1.3130                 1.4344                 1.0996
 Frc consts  --      1.4648                 1.7809                 1.4486
 IR Inten    --      8.2604                46.6426                 1.6275

                     40                     41                     42
                      A                      A                      A
 Frequencies --   1522.3279              1524.4771              2977.8374
 Red. masses --      1.0979                 1.1191                 1.0713
 Frc consts  --      1.4991                 1.5323                 5.5970
 IR Inten    --      0.3948                 1.6147                54.0470

                     43                     44                     45
                      A                      A                      A
 Frequencies --   3018.6111              3057.0213              3059.1164
 Red. masses --      1.0559                 1.1096                 1.0548
 Frc consts  --      5.6687                 6.1097                 5.8157
 IR Inten    --     70.2770                31.8495                38.8466

                     46                     47                     48
                      A                      A                      A
 Frequencies --   3090.4370              3102.7440              3113.8570
 Red. masses --      1.0906                 1.0900                 1.0892
 Frc consts  --      6.1372                 6.1823                 6.2223
 IR Inten    --     26.5301                54.0570                35.2389

                     49                     50                     51
                      A                      A                      A
 Frequencies --   3117.3426              3124.9749              3795.8531
 Red. masses --      1.1099                 1.0928                 1.0654
 Frc consts  --      6.3549                 6.2873                 9.0448
 IR Inten    --     32.5262                33.4438                29.2010

 - Thermochemistry -
 -------------------
 Temperature   298.150 Kelvin.  Pressure   1.00000 Atm.
 Atom     1 has atomic number  8 and mass  15.99491

 Molecular mass:   126.06808 amu.
 Principal axes and moments of inertia in atomic units:
                           1         2         3
     Eigenvalues --   655.001351047.560761403.67488
           X            0.99984   0.01240  -0.01259
           Y           -0.01259   0.99981  -0.01458
           Z            0.01241   0.01474   0.99981
 This molecule is an asymmetric top.
 Rotational symmetry number  1.
 Warning -- assumption of classical behavior for rotation
           may cause significant error
 Rotational temperatures (Kelvin)      0.13223     0.08268     0.06171
 Rotational constants (GHZ):           2.75532     1.72280     1.28573
 Zero-point vibrational energy     423006.7 (Joules/Mol)
                                  101.10102 (Kcal/Mol)
 Warning -- explicit consideration of   8 degrees of freedom as
           vibrations may cause significant error
 Vibrational temperatures:    150.43   236.14   409.95   457.43   505.74
          (Kelvin)            623.68   639.69   708.90   944.88  1008.80
                             1056.55  1092.48  1204.74  1267.20  1317.07
                             1327.85  1370.75  1395.49  1451.95  1470.76
                             1482.69  1510.28  1545.40  1549.29  1581.43
                             1618.88  1649.79  1683.54  1729.98  1737.91
                             1784.67  1792.22  1811.07  1890.24  1908.23
                             1971.69  1979.82  2088.55  2151.40  2190.29
                             2193.38  4284.44  4343.10  4398.37  4401.38
                             4446.44  4464.15  4480.14  4485.16  4496.14
                             5461.38

 Zero-point correction=                           0.161115 (Hartree/Particle)
 Thermal correction to Energy=                    0.168418
 Thermal correction to Enthalpy=                  0.169362
 Thermal correction to Gibbs Free Energy=         0.129475
 Sum of electronic and zero-point Energies=           -422.977663
 Sum of electronic and thermal Energies=              -422.970360
 Sum of electronic and thermal Enthalpies=            -422.969416
 Sum of electronic and thermal Free Energies=         -423.009303

                     E (Thermal)             CV                S
                      KCal/Mol        Cal/Mol-Kelvin    Cal/Mol-Kelvin
 Total                  105.684             29.625             83.950
 Electronic               0.000              0.000              0.000
 Translational            0.889              2.981             40.409
 Rotational               0.889              2.981             28.356
 Vibrational            103.907             23.663             15.185
 Vibration     1          0.605              1.946              3.368
 Vibration     2          0.623              1.887              2.502
 Vibration     3          0.683              1.702              1.504
 Vibration     4          0.704              1.639              1.321
 Vibration     5          0.728              1.572              1.159
 Vibration     6          0.794              1.397              0.847
 Vibration     7          0.804              1.373              0.812
 Vibration     8          0.848              1.266              0.677

 Normal termination of Gaussian 09 at Tue Jan 28 13:04:17 2020.
