 Gaussian 09, Revision D.01,
 Gaussian 09:  ES64L-G09RevD.01 24-Apr-2013

 -----------------------------
 # b3lyp 6-31G(2df,p) opt Freq
 -----------------------------

 -----
 titel
 -----
 Symbolic Z-matrix:
 Charge =  0 Multiplicity = 1

 SCF Done:  E(RB3LYP) =  -423.210161117     A.U. after   14 cycles
 Optimization completed.
    -- Stationary point found.
 Normal termination of Gaussian 09 at Mon Jan 27 10:18:31 2020.

 ----------------------------------------------------------------------
 #N Geom=AllCheck Guess=TCheck SCRF=Check GenChk RB3LYP/6-31G(2df,p) Fr
 eq
 ----------------------------------------------------------------------

 Structure from the checkpoint file:  "/scratch/puck/g09_29660ef2-5ae1-4863-951c-24ee3d317d3e/Gau-91816.chk"
 -----
 titel
 -----
 Charge =  0 Multiplicity = 1

                         Standard orientation:
 ---------------------------------------------------------------------
 Center     Atomic      Atomic             Coordinates (Angstroms)
 Number     Number       Type             X           Y           Z
 ---------------------------------------------------------------------
      1          6           0        1.169384    2.207989    0.509909
      2          8           0        0.542755    1.496312   -0.550824
      3          6           0        0.059019    0.264690   -0.205066
      4          6           0       -1.257177   -0.046724   -0.034878
      5          6           0       -2.499443    0.760410   -0.111961
      6          8           0       -1.365514   -1.382472    0.222511
      7          6           0       -0.106144   -1.904018    0.213902
      8          6           0        0.823994   -0.948765   -0.043847
      9          6           0        2.305743   -1.109196   -0.172794
     10          1           0        2.044584    1.672392    0.899113
     11          1           0        1.492954    3.166185    0.097058
     12          1           0        0.469476    2.384460    1.337043
     13          1           0       -2.236660    1.789968   -0.365552
     14          1           0       -3.181544    0.380319   -0.881250
     15          1           0       -3.045839    0.763950    0.838435
     16          1           0       -0.037336   -2.964062    0.397808
     17          1           0        2.844453   -0.669257    0.675129
     18          1           0        2.584267   -2.165340   -0.225083
     19          1           0        2.675469   -0.615644   -1.077796
 ---------------------------------------------------------------------

 SCF Done:  E(RB3LYP) =  -423.210161117     A.U. after    1 cycles

 The electronic state is 1-A.
 Alpha  occ. eigenvalues --  -19.19022 -19.15384 -10.22966 -10.21949 -10.21579
 Alpha  occ. eigenvalues --  -10.21429 -10.18433 -10.18379 -10.17849  -1.09422
 Alpha  occ. eigenvalues --   -1.04454  -0.79883  -0.77252  -0.71432  -0.68475
 Alpha  occ. eigenvalues --   -0.66800  -0.56632  -0.54614  -0.51085  -0.46563
 Alpha  occ. eigenvalues --   -0.45598  -0.44580  -0.43605  -0.41970  -0.41051
 Alpha  occ. eigenvalues --   -0.39838  -0.39136  -0.39002  -0.37394  -0.35350
 Alpha  occ. eigenvalues --   -0.34428  -0.26932  -0.24456  -0.20392
 Alpha virt. eigenvalues --    0.02775   0.07851   0.08532   0.11429   0.13386
 Alpha virt. eigenvalues --    0.13724   0.14596   0.15598   0.16207   0.16413
 Alpha virt. eigenvalues --    0.17345   0.18756   0.20174   0.21488   0.22646

 Mulliken charges:
               1
     1  C   -0.251262
     2  O   -0.273846
     3  C    0.104155
     4  C    0.275638
     5  C   -0.495601
     6  O   -0.186948
     7  C   -0.117976
     8  C    0.164913
     9  C   -0.506122
    10  H    0.117162
    11  H    0.128856
    12  H    0.114415
    13  H    0.141282
    14  H    0.136336
    15  H    0.132652
    16  H    0.128507
    17  H    0.126528
    18  H    0.124799
    19  H    0.136512
 Sum of Mulliken charges =   0.00000

 Dipole moment (field-independent basis, Debye):
    X=              0.7697    Y=              0.4385    Z=              0.9497  Tot=              1.2987
 Quadrupole moment (field-independent basis, Debye-Ang):
   XX=            -50.0081   YY=            -49.3723   ZZ=            -54.7928
   XY=             -1.5327   XZ=              1.0631   YZ=              1.8356

  Exact polarizability:  97.346  -2.113  89.006  -0.694  -1.704  52.521
 Approx polarizability: 139.571   3.778 129.686  -3.658  -7.081  82.481

                      1                      2                      3
                      A                      A                      A
 Frequencies --     57.9906               126.2128               140.7591
 Red. masses --      2.2803                 1.1556                 1.2130
 Frc consts  --      0.0045                 0.0108                 0.0142
 IR Inten    --      2.7613                 0.4957                 0.2585

                      4                      5                      6
                      A                      A                      A
 Frequencies --    142.9313               163.5626               193.4491
 Red. masses --      1.7891                 1.1718                 3.0456
 Frc consts  --      0.0215                 0.0185                 0.0672
 IR Inten    --      0.7879                 0.0948                 3.0014

                      7                      8                      9
                      A                      A                      A
 Frequencies --    242.0832               253.5766               312.5101
 Red. masses --      2.6571                 3.1168                 3.7176
 Frc consts  --      0.0917                 0.1181                 0.2139
 IR Inten    --      2.4880                 5.0347                 0.1578

                     10                     11                     12
                      A                      A                      A
 Frequencies --    431.4406               505.5946               562.1637
 Red. masses --      4.1441                 3.6092                 4.4692
 Frc consts  --      0.4545                 0.5436                 0.8322
 IR Inten    --      3.1511                 3.1999                 0.6405

                     13                     14                     15
                      A                      A                      A
 Frequencies --    621.3239               680.4143               730.7765
 Red. masses --      4.0146                 5.0405                 1.3453
 Frc consts  --      0.9131                 1.3749                 0.4233
 IR Inten    --      3.9291                 1.0184                18.4380

                     16                     17                     18
                      A                      A                      A
 Frequencies --    744.8784               756.2476               945.6697
 Red. masses --      5.2226                 5.3233                 2.0756
 Frc consts  --      1.7073                 1.7937                 1.0936
 IR Inten    --      1.1343                 7.9660                11.8960

                     19                     20                     21
                      A                      A                      A
 Frequencies --   1008.2917              1045.8039              1052.2918
 Red. masses --      1.6264                 5.5535                 2.9270
 Frc consts  --      0.9742                 3.5787                 1.9096
 IR Inten    --      8.0283                42.9297                16.8900

                     22                     23                     24
                      A                      A                      A
 Frequencies --   1064.1889              1066.5011              1167.9565
 Red. masses --      1.4449                 1.5002                 3.6337
 Frc consts  --      0.9641                 1.0054                 2.9205
 IR Inten    --      0.5358                 0.2839                29.8530

                     25                     26                     27
                      A                      A                      A
 Frequencies --   1176.6788              1194.6765              1222.5397
 Red. masses --      1.2857                 2.2087                 1.7433
 Frc consts  --      1.0489                 1.8573                 1.5352
 IR Inten    --      6.1875                49.1272                21.9066

                     28                     29                     30
                      A                      A                      A
 Frequencies --   1273.1790              1313.1817              1399.8584
 Red. masses --      4.1072                 2.3060                 1.5833
 Frc consts  --      3.9226                 2.3429                 1.8280
 IR Inten    --     22.4358                76.6461                15.3023

                     31                     32                     33
                      A                      A                      A
 Frequencies --   1418.8771              1426.3813              1475.4584
 Red. masses --      1.3759                 1.9171                 1.0531
 Frc consts  --      1.6321                 2.2981                 1.3507
 IR Inten    --      1.6013                18.5183                 4.0708

                     34                     35                     36
                      A                      A                      A
 Frequencies --   1479.7912              1481.5829              1488.8412
 Red. masses --      1.1666                 1.1067                 1.0622
 Frc consts  --      1.5051                 1.4312                 1.3873
 IR Inten    --      5.4740                 2.3451                 1.5391

                     37                     38                     39
                      A                      A                      A
 Frequencies --   1492.4212              1497.6954              1506.9946
 Red. masses --      1.0989                 1.1527                 1.0569
 Frc consts  --      1.4421                 1.5233                 1.4142
 IR Inten    --      3.7963                 4.7962                12.7080

                     40                     41                     42
                      A                      A                      A
 Frequencies --   1611.2066              1684.0334              3004.5941
 Red. masses --      5.7142                 8.0825                 1.0330
 Frc consts  --      8.7400                13.5050                 5.4945
 IR Inten    --      7.3424                21.9535                48.3869

                     43                     44                     45
                      A                      A                      A
 Frequencies --   3026.3171              3027.1995              3063.9080
 Red. masses --      1.0385                 1.0391                 1.1042
 Frc consts  --      5.6037                 5.6103                 6.1075
 IR Inten    --     65.2544                 5.9000                45.4685

                     46                     47                     48
                      A                      A                      A
 Frequencies --   3075.4641              3079.2553              3111.3925
 Red. masses --      1.1004                 1.0963                 1.1005
 Frc consts  --      6.1321                 6.1244                 6.2772
 IR Inten    --     16.7105                18.5093                17.9442

                     49                     50                     51
                      A                      A                      A
 Frequencies --   3123.3334              3129.3662              3267.6006
 Red. masses --      1.1004                 1.0976                 1.0977
 Frc consts  --      6.3249                 6.3328                 6.9058
 IR Inten    --     28.9783                 7.1408                 1.0245

 - Thermochemistry -
 -------------------
 Temperature   298.150 Kelvin.  Pressure   1.00000 Atm.
 Atom     1 has atomic number  6 and mass  12.00000

 Molecular mass:   126.06808 amu.
 Principal axes and moments of inertia in atomic units:
                           1         2         3
     Eigenvalues --   905.414631029.128251817.83739
           X            0.97727  -0.21186   0.00793
           Y            0.21169   0.97716   0.01855
           Z           -0.01168  -0.01645   0.99980
 This molecule is an asymmetric top.
 Rotational symmetry number  1.
 Warning -- assumption of classical behavior for rotation
           may cause significant error
 Rotational temperatures (Kelvin)      0.09566     0.08416     0.04765
 Rotational constants (GHZ):           1.99328     1.75366     0.99280
 Zero-point vibrational energy     413121.1 (Joules/Mol)
                                   98.73830 (Kcal/Mol)
 Warning -- explicit consideration of  12 degrees of freedom as
           vibrations may cause significant error
 Vibrational temperatures:     83.44   181.59   202.52   205.65   235.33
          (Kelvin)            278.33   348.30   364.84   449.63   620.75
                              727.44   808.83   893.95   978.96  1051.42
                             1071.71  1088.07  1360.61  1450.70  1504.68
                             1514.01  1531.13  1534.46  1680.43  1692.98
                             1718.87  1758.96  1831.82  1889.37  2014.08
                             2041.45  2052.24  2122.85  2129.09  2131.66
                             2142.11  2147.26  2154.85  2168.23  2318.16
                             2422.95  4322.94  4354.19  4355.46  4408.27
                             4424.90  4430.36  4476.59  4493.77  4502.45
                             4701.34

 Zero-point correction=                           0.157349 (Hartree/Particle)
 Thermal correction to Energy=                    0.167171
 Thermal correction to Enthalpy=                  0.168115
 Thermal correction to Gibbs Free Energy=         0.122324
 Sum of electronic and zero-point Energies=           -423.052812
 Sum of electronic and thermal Energies=              -423.042990
 Sum of electronic and thermal Enthalpies=            -423.042046
 Sum of electronic and thermal Free Energies=         -423.087837

                     E (Thermal)             CV                S
                      KCal/Mol        Cal/Mol-Kelvin    Cal/Mol-Kelvin
 Total                  104.901             34.625             96.376
 Electronic               0.000              0.000              0.000
 Translational            0.889              2.981             40.409
 Rotational               0.889              2.981             28.917
 Vibrational            103.124             28.663             27.050
 Vibration     1          0.596              1.974              4.524
 Vibration     2          0.611              1.927              3.003
 Vibration     3          0.615              1.913              2.794
 Vibration     4          0.616              1.910              2.764
 Vibration     5          0.623              1.887              2.508
 Vibration     6          0.635              1.849              2.195
 Vibration     7          0.658              1.776              1.788
 Vibration     8          0.665              1.757              1.706
 Vibration     9          0.701              1.650              1.349
 Vibration    10          0.792              1.402              0.854
 Vibration    11          0.861              1.238              0.644
 Vibration    12          0.918              1.113              0.520

 Normal termination of Gaussian 09 at Mon Jan 27 10:58:16 2020.
