 Gaussian 09, Revision D.01,
 Gaussian 09:  ES64L-G09RevD.01 24-Apr-2013

 -----------------------------
 # b3lyp 6-31G(2df,p) opt Freq
 -----------------------------

 -----
 titel
 -----
 Symbolic Z-matrix:
 Charge =  0 Multiplicity = 1

 SCF Done:  E(RB3LYP) =  -423.169065832     A.U. after   13 cycles
 Optimization completed.
    -- Stationary point found.
 Normal termination of Gaussian 09 at Mon Jan 27 22:02:56 2020.

 ----------------------------------------------------------------------
 #N Geom=AllCheck Guess=TCheck SCRF=Check GenChk RB3LYP/6-31G(2df,p) Fr
 eq
 ----------------------------------------------------------------------

 Structure from the checkpoint file:  "/scratch/puck/g09_0f8727fb-2a17-4ad5-8bf0-67fa9c329d46/Gau-62715.chk"
 -----
 titel
 -----
 Charge =  0 Multiplicity = 1

                         Standard orientation:
 ---------------------------------------------------------------------
 Center     Atomic      Atomic             Coordinates (Angstroms)
 Number     Number       Type             X           Y           Z
 ---------------------------------------------------------------------
      1          6           0       -2.799232   -0.765010    0.193000
      2          6           0       -1.382944   -0.296622    0.032524
      3          6           0       -0.309663   -1.042801    0.295178
      4          6           0        1.059657   -0.529985    0.025831
      5          8           0        1.850916   -1.325818   -0.821949
      6          6           0        1.787196    0.342364    1.036869
      7          6           0        1.166155    0.941824   -0.206209
      8          8           0        0.020162    1.721998   -0.029259
      9          6           0       -1.184186    1.117962   -0.477313
     10          1           0       -3.354878   -0.668284   -0.748986
     11          1           0       -2.842299   -1.812082    0.503928
     12          1           0       -3.337977   -0.161677    0.935018
     13          1           0       -0.408060   -2.059248    0.671925
     14          1           0        2.190686   -2.061426   -0.300154
     15          1           0        1.293134    0.555293    1.977825
     16          1           0        2.868875    0.263627    1.067419
     17          1           0        1.828396    1.277078   -1.001790
     18          1           0       -1.987681    1.768121   -0.114464
     19          1           0       -1.240715    1.122767   -1.580338
 ---------------------------------------------------------------------

 SCF Done:  E(RB3LYP) =  -423.169065832     A.U. after    1 cycles

 The electronic state is 1-A.
 Alpha  occ. eigenvalues --  -19.14229 -19.14035 -10.23809 -10.23092 -10.22795
 Alpha  occ. eigenvalues --  -10.19223 -10.18640 -10.18031 -10.17839  -1.04152
 Alpha  occ. eigenvalues --   -1.02298  -0.83934  -0.80816  -0.70294  -0.68327
 Alpha  occ. eigenvalues --   -0.60140  -0.59592  -0.52306  -0.51414  -0.49957
 Alpha  occ. eigenvalues --   -0.46847  -0.44122  -0.43422  -0.41172  -0.40037
 Alpha  occ. eigenvalues --   -0.39398  -0.38713  -0.36589  -0.34867  -0.33643
 Alpha  occ. eigenvalues --   -0.27970  -0.27185  -0.24521  -0.22840
 Alpha virt. eigenvalues --    0.01384   0.08674   0.09722   0.10707   0.12668
 Alpha virt. eigenvalues --    0.13219   0.14367   0.14756   0.16856   0.17071
 Alpha virt. eigenvalues --    0.17322   0.18949   0.20842   0.21953   0.23322

 Mulliken charges:
               1
     1  C   -0.481512
     2  C    0.295976
     3  C   -0.239813
     4  C    0.326916
     5  O   -0.462861
     6  C   -0.362268
     7  C    0.051534
     8  O   -0.256555
     9  C   -0.159674
    10  H    0.129034
    11  H    0.124952
    12  H    0.128186
    13  H    0.077677
    14  H    0.281760
    15  H    0.120308
    16  H    0.110184
    17  H    0.100255
    18  H    0.111783
    19  H    0.104120
 Sum of Mulliken charges =   0.00000

 Dipole moment (field-independent basis, Debye):
    X=             -0.7235    Y=             -1.4695    Z=              0.7931  Tot=              1.8199
 Quadrupole moment (field-independent basis, Debye-Ang):
   XX=            -47.8542   YY=            -53.1694   ZZ=            -54.4634
   XY=             -2.2396   XZ=              2.4885   YZ=             -3.0349

  Exact polarizability:  99.234  -4.456  73.913   4.366  -3.922  62.061
 Approx polarizability: 133.790 -14.492 112.714   7.300  -5.722  96.071

                      1                      2                      3
                      A                      A                      A
 Frequencies --    120.6843               139.0904               195.3831
 Red. masses --      2.9356                 2.1835                 1.1838
 Frc consts  --      0.0252                 0.0249                 0.0266
 IR Inten    --      0.7920                 3.0862                 0.6224

                      4                      5                      6
                      A                      A                      A
 Frequencies --    228.9031               280.4218               289.3448
 Red. masses --      2.0136                 1.5202                 2.7782
 Frc consts  --      0.0622                 0.0704                 0.1370
 IR Inten    --     27.3383                50.8201                19.0517

                      7                      8                      9
                      A                      A                      A
 Frequencies --    385.6659               403.5917               434.6941
 Red. masses --      3.4909                 2.4476                 2.9050
 Frc consts  --      0.3059                 0.2349                 0.3234
 IR Inten    --      3.3567                 3.7021                 5.9257

                     10                     11                     12
                      A                      A                      A
 Frequencies --    465.0678               491.0602               543.3437
 Red. masses --      3.8053                 3.2318                 3.1450
 Frc consts  --      0.4849                 0.4592                 0.5470
 IR Inten    --      2.8602                 3.0788                 7.3201

                     13                     14                     15
                      A                      A                      A
 Frequencies --    611.0425               789.4276               839.0835
 Red. masses --      4.9105                 2.2370                 1.8625
 Frc consts  --      1.0802                 0.8214                 0.7726
 IR Inten    --      2.4822                13.5007                 3.4157

                     16                     17                     18
                      A                      A                      A
 Frequencies --    855.4457               893.8168               923.6763
 Red. masses --      1.9758                 2.6833                 2.2117
 Frc consts  --      0.8519                 1.2630                 1.1118
 IR Inten    --      2.8931                 9.0065                24.0083

                     19                     20                     21
                      A                      A                      A
 Frequencies --    931.7566               983.5541              1007.2649
 Red. masses --      1.9245                 1.5997                 2.3795
 Frc consts  --      0.9844                 0.9118                 1.4224
 IR Inten    --     10.5353                 2.3080                15.3946

                     22                     23                     24
                      A                      A                      A
 Frequencies --   1021.5960              1054.0081              1056.2081
 Red. masses --      1.3417                 2.1881                 2.0913
 Frc consts  --      0.8250                 1.4322                 1.3745
 IR Inten    --      7.2703                30.5247                 3.8082

                     25                     26                     27
                      A                      A                      A
 Frequencies --   1085.5052              1099.6149              1165.5056
 Red. masses --      1.8801                 1.7989                 2.7462
 Frc consts  --      1.3053                 1.2815                 2.1979
 IR Inten    --     23.0952                21.7603                71.9362

                     28                     29                     30
                      A                      A                      A
 Frequencies --   1185.0103              1223.0977              1273.2220
 Red. masses --      2.2671                 2.2563                 1.1773
 Frc consts  --      1.8757                 1.9887                 1.1245
 IR Inten    --     54.4970                70.2261                 1.4595

                     31                     32                     33
                      A                      A                      A
 Frequencies --   1289.6084              1336.2892              1363.1877
 Red. masses --      1.7568                 1.2537                 2.3201
 Frc consts  --      1.7214                 1.3190                 2.5402
 IR Inten    --     17.8429                16.2026                16.5592

                     34                     35                     36
                      A                      A                      A
 Frequencies --   1393.6449              1411.4958              1413.6692
 Red. masses --      1.5190                 1.3864                 1.2622
 Frc consts  --      1.7382                 1.6274                 1.4862
 IR Inten    --      4.6203                 1.6498                 1.9557

                     37                     38                     39
                      A                      A                      A
 Frequencies --   1472.0338              1478.4638              1489.0396
 Red. masses --      1.6455                 1.0728                 1.0874
 Frc consts  --      2.1007                 1.3817                 1.4206
 IR Inten    --     10.3861                 9.3980                 4.5572

                     40                     41                     42
                      A                      A                      A
 Frequencies --   1493.6570              1737.0163              2949.6767
 Red. masses --      1.1196                 7.4937                 1.0716
 Frc consts  --      1.4717                13.3216                 5.4933
 IR Inten    --      4.3273                 4.1020                55.5638

                     43                     44                     45
                      A                      A                      A
 Frequencies --   3014.9090              3060.5761              3063.6977
 Red. masses --      1.0383                 1.0972                 1.0900
 Frc consts  --      5.5607                 6.0556                 6.0279
 IR Inten    --     31.5136                13.6013                39.3479

                     46                     47                     48
                      A                      A                      A
 Frequencies --   3112.9773              3126.9418              3132.8216
 Red. masses --      1.0990                 1.0801                 1.0619
 Frc consts  --      6.2746                 6.2221                 6.1405
 IR Inten    --     17.6019                20.4737                14.9444

                     49                     50                     51
                      A                      A                      A
 Frequencies --   3139.9805              3232.7021              3793.8235
 Red. masses --      1.0896                 1.1180                 1.0662
 Frc consts  --      6.3294                 6.8839                 9.0413
 IR Inten    --     21.9888                 5.7127                21.2980

 - Thermochemistry -
 -------------------
 Temperature   298.150 Kelvin.  Pressure   1.00000 Atm.
 Atom     1 has atomic number  6 and mass  12.00000

 Molecular mass:   126.06808 amu.
 Principal axes and moments of inertia in atomic units:
                           1         2         3
     Eigenvalues --   661.025331255.596481636.51644
           X            0.99975   0.01968   0.01034
           Y           -0.01936   0.99937  -0.02963
           Z           -0.01091   0.02942   0.99951
 This molecule is an asymmetric top.
 Rotational symmetry number  1.
 Warning -- assumption of classical behavior for rotation
           may cause significant error
 Rotational temperatures (Kelvin)      0.13103     0.06898     0.05293
 Rotational constants (GHZ):           2.73021     1.43736     1.10279
 Zero-point vibrational energy     415596.4 (Joules/Mol)
                                   99.32993 (Kcal/Mol)
 Warning -- explicit consideration of  13 degrees of freedom as
           vibrations may cause significant error
 Vibrational temperatures:    173.64   200.12   281.11   329.34   403.46
          (Kelvin)            416.30   554.89   580.68   625.43   669.13
                              706.53   781.75   879.15  1135.81  1207.25
                             1230.79  1286.00  1328.96  1340.59  1415.11
                             1449.23  1469.85  1516.48  1519.65  1561.80
                             1582.10  1676.90  1704.96  1759.76  1831.88
                             1855.46  1922.62  1961.32  2005.14  2030.83
                             2033.95  2117.93  2127.18  2142.39  2149.04
                             2499.18  4243.92  4337.78  4403.48  4407.97
                             4478.87  4498.97  4507.43  4517.73  4651.13
                             5458.46

 Zero-point correction=                           0.158292 (Hartree/Particle)
 Thermal correction to Energy=                    0.166908
 Thermal correction to Enthalpy=                  0.167853
 Thermal correction to Gibbs Free Energy=         0.125487
 Sum of electronic and zero-point Energies=           -423.010774
 Sum of electronic and thermal Energies=              -423.002157
 Sum of electronic and thermal Enthalpies=            -423.001213
 Sum of electronic and thermal Free Energies=         -423.043578

                     E (Thermal)             CV                S
                      KCal/Mol        Cal/Mol-Kelvin    Cal/Mol-Kelvin
 Total                  104.737             33.423             89.165
 Electronic               0.000              0.000              0.000
 Translational            0.889              2.981             40.409
 Rotational               0.889              2.981             28.698
 Vibrational            102.959             27.461             20.058
 Vibration     1          0.609              1.932              3.089
 Vibration     2          0.615              1.914              2.816
 Vibration     3          0.636              1.846              2.176
 Vibration     4          0.652              1.797              1.888
 Vibration     5          0.680              1.710              1.531
 Vibration     6          0.686              1.694              1.478
 Vibration     7          0.754              1.501              1.017
 Vibration     8          0.769              1.462              0.950
 Vibration     9          0.795              1.395              0.843
 Vibration    10          0.823              1.328              0.751
 Vibration    11          0.847              1.270              0.681
 Vibration    12          0.898              1.154              0.558
 Vibration    13          0.970              1.008              0.431

 Optimization completed.
    -- Stationary point found.
 Normal termination of Gaussian 09 at Mon Jan 27 22:43:29 2020.
