 Gaussian 09, Revision D.01,
 Gaussian 09:  ES64L-G09RevD.01 24-Apr-2013

 -----------------------------
 # b3lyp 6-31G(2df,p) opt Freq
 -----------------------------

 -----
 titel
 -----
 Symbolic Z-matrix:
 Charge =  0 Multiplicity = 1

 SCF Done:  E(RB3LYP) =  -423.119216232     A.U. after   13 cycles
 Optimization completed.
    -- Stationary point found.
 Normal termination of Gaussian 09 at Tue Jan 28 12:49:01 2020.

 ----------------------------------------------------------------------
 #N Geom=AllCheck Guess=TCheck SCRF=Check GenChk RB3LYP/6-31G(2df,p) Fr
 eq
 ----------------------------------------------------------------------

 Structure from the checkpoint file:  "/scratch/puck/g09_ab737ae4-c9cd-4411-8081-0af917ca803e/Gau-10899.chk"
 -----
 titel
 -----
 Charge =  0 Multiplicity = 1

                         Standard orientation:
 ---------------------------------------------------------------------
 Center     Atomic      Atomic             Coordinates (Angstroms)
 Number     Number       Type             X           Y           Z
 ---------------------------------------------------------------------
      1          8           0        3.094976    0.344991   -0.084941
      2          6           0        2.117061   -0.687128   -0.028453
      3          6           0        0.808928   -0.111687   -0.535758
      4          6           0       -0.407852   -0.979646   -0.220066
      5          6           0       -0.665667   -0.249915    1.091798
      6          6           0        0.165647    0.926342    0.431925
      7          6           0       -1.123059    1.380594   -0.314296
      8          6           0       -1.609003   -0.044810   -0.073867
      9          8           0       -2.868195   -0.566584   -0.285636
     10          1           0        3.928070   -0.012866    0.234638
     11          1           0        2.412145   -1.546969   -0.651705
     12          1           0        1.983512   -1.056683    1.000910
     13          1           0        0.939014    0.225689   -1.571706
     14          1           0       -0.575346   -2.028446   -0.433434
     15          1           0       -0.807333   -0.604076    2.102139
     16          1           0        0.789426    1.643416    0.958422
     17          1           0       -1.697496    2.101802    0.277106
     18          1           0       -1.015297    1.744349   -1.342873
     19          1           0       -3.487275   -0.095982    0.283413
 ---------------------------------------------------------------------

 SCF Done:  E(RB3LYP) =  -423.119216232     A.U. after    1 cycles

 The electronic state is 1-A.
 Alpha  occ. eigenvalues --  -19.14735 -19.12985 -10.23609 -10.22087 -10.19094
 Alpha  occ. eigenvalues --  -10.18621 -10.18228 -10.18215 -10.17851  -1.03402
 Alpha  occ. eigenvalues --   -1.01006  -0.91947  -0.74340  -0.71241  -0.63983
 Alpha  occ. eigenvalues --   -0.61476  -0.55596  -0.52876  -0.51886  -0.50252
 Alpha  occ. eigenvalues --   -0.46667  -0.44755  -0.42526  -0.41637  -0.39453
 Alpha  occ. eigenvalues --   -0.38215  -0.35834  -0.33481  -0.31560  -0.30581
 Alpha  occ. eigenvalues --   -0.29496  -0.26323  -0.25746  -0.23065
 Alpha virt. eigenvalues --    0.07189   0.08507   0.11276   0.11654   0.12347
 Alpha virt. eigenvalues --    0.13620   0.14725   0.15202   0.16730   0.17109
 Alpha virt. eigenvalues --    0.18254   0.19576   0.20813   0.20888   0.22314

 Mulliken charges:
               1
     1  O   -0.426227
     2  C   -0.100131
     3  C    0.017321
     4  C   -0.115506
     5  C   -0.174437
     6  C   -0.056348
     7  C   -0.306807
     8  C    0.383083
     9  O   -0.464541
    10  H    0.285552
    11  H    0.082255
    12  H    0.084796
    13  H    0.068361
    14  H    0.086915
    15  H    0.088932
    16  H    0.083213
    17  H    0.086383
    18  H    0.092619
    19  H    0.284566
 Sum of Mulliken charges =   0.00000

 Dipole moment (field-independent basis, Debye):
    X=              0.2802    Y=             -0.2790    Z=              1.5762  Tot=              1.6250
 Quadrupole moment (field-independent basis, Debye-Ang):
   XX=            -46.5280   YY=            -53.4400   ZZ=            -52.8018
   XY=             -6.7482   XZ=             -1.7311   YZ=             -0.0865

  Exact polarizability:  88.962  -2.821  71.126  -1.011  -0.236  65.117
 Approx polarizability: 115.841  -1.005 106.778  -0.093   1.156 105.273

                      1                      2                      3
                      A                      A                      A
 Frequencies --     98.8265               147.3128               211.2536
 Red. masses --      4.6451                 4.4551                 1.8998
 Frc consts  --      0.0267                 0.0570                 0.0500
 IR Inten    --      2.2327                 3.8195                41.5933

                      4                      5                      6
                      A                      A                      A
 Frequencies --    257.0233               296.5514               320.9528
 Red. masses --      1.2691                 2.7196                 1.4796
 Frc consts  --      0.0494                 0.1409                 0.0898
 IR Inten    --     58.1409                20.2770                45.0864

                      7                      8                      9
                      A                      A                      A
 Frequencies --    379.1360               417.1626               470.6349
 Red. masses --      2.5742                 3.0862                 2.2380
 Frc consts  --      0.2180                 0.3164                 0.2921
 IR Inten    --     37.6850                 8.3968                 4.8504

                     10                     11                     12
                      A                      A                      A
 Frequencies --    517.9031               622.0492               760.7762
 Red. masses --      2.9301                 4.0767                 3.8709
 Frc consts  --      0.4631                 0.9294                 1.3200
 IR Inten    --     13.3872                 7.9923                 3.5387

                     13                     14                     15
                      A                      A                      A
 Frequencies --    779.7216               793.5435               825.7654
 Red. masses --      3.0712                 2.2537                 1.3912
 Frc consts  --      1.1001                 0.8362                 0.5589
 IR Inten    --      4.5260                 0.5738                 4.9225

                     16                     17                     18
                      A                      A                      A
 Frequencies --    863.3469               918.1124               933.8581
 Red. masses --      1.9585                 1.9532                 2.6194
 Frc consts  --      0.8601                 0.9700                 1.3459
 IR Inten    --      8.0175                 1.6738                14.0375

                     19                     20                     21
                      A                      A                      A
 Frequencies --    945.9457               993.2559              1016.2154
 Red. masses --      1.8250                 2.2585                 2.0664
 Frc consts  --      0.9622                 1.3128                 1.2573
 IR Inten    --      1.9879                 6.6303                 4.1121

                     22                     23                     24
                      A                      A                      A
 Frequencies --   1022.9445              1055.8186              1070.6783
 Red. masses --      1.5297                 2.4625                 3.0653
 Frc consts  --      0.9431                 1.6174                 2.0704
 IR Inten    --     13.8635                 7.8929                46.5724

                     25                     26                     27
                      A                      A                      A
 Frequencies --   1090.6362              1121.6903              1125.7556
 Red. masses --      1.7569                 1.4502                 1.5696
 Frc consts  --      1.2313                 1.0750                 1.1720
 IR Inten    --      4.2848                23.4365                 9.5219

                     28                     29                     30
                      A                      A                      A
 Frequencies --   1155.1776              1176.9010              1210.2439
 Red. masses --      2.0148                 1.6143                 1.2884
 Frc consts  --      1.5841                 1.3174                 1.1119
 IR Inten    --      3.9591                19.6452                25.5621

                     31                     32                     33
                      A                      A                      A
 Frequencies --   1227.4135              1240.6163              1258.5106
 Red. masses --      1.6361                 1.3600                 1.3575
 Frc consts  --      1.4522                 1.2333                 1.2668
 IR Inten    --      8.3601                27.1061                15.2892

                     34                     35                     36
                      A                      A                      A
 Frequencies --   1286.5365              1295.7342              1330.7754
 Red. masses --      1.4479                 2.2688                 1.8779
 Frc consts  --      1.4120                 2.2443                 1.9595
 IR Inten    --     72.6763                 1.3416                94.5932

                     37                     38                     39
                      A                      A                      A
 Frequencies --   1378.0548              1435.6218              1459.7180
 Red. masses --      1.5009                 2.7183                 1.5212
 Frc consts  --      1.6793                 3.3009                 1.9098
 IR Inten    --      2.2342                38.2813                 7.2069

                     40                     41                     42
                      A                      A                      A
 Frequencies --   1505.5434              1518.3723              2963.4676
 Red. masses --      1.2419                 1.0822                 1.0553
 Frc consts  --      1.6586                 1.4700                 5.4604
 IR Inten    --      9.8069                 4.2486                58.7566

                     43                     44                     45
                      A                      A                      A
 Frequencies --   2991.4443              3025.8427              3033.6088
 Red. masses --      1.1028                 1.0641                 1.0784
 Frc consts  --      5.8146                 5.7401                 5.8471
 IR Inten    --     34.9002                36.8861                81.4108

                     46                     47                     48
                      A                      A                      A
 Frequencies --   3082.3616              3157.1277              3190.4361
 Red. masses --      1.1076                 1.0913                 1.0911
 Frc consts  --      6.1999                 6.4088                 6.5437
 IR Inten    --     36.8393                18.5924                13.2091

                     49                     50                     51
                      A                      A                      A
 Frequencies --   3225.9085              3794.4277              3831.9208
 Red. masses --      1.0981                 1.0659                 1.0664
 Frc consts  --      6.7326                 9.0416                 9.2258
 IR Inten    --      6.2922                21.1188                20.6930

 - Thermochemistry -
 -------------------
 Temperature   298.150 Kelvin.  Pressure   1.00000 Atm.
 Atom     1 has atomic number  8 and mass  15.99491

 Molecular mass:   126.06808 amu.
 Principal axes and moments of inertia in atomic units:
                           1         2         3
     Eigenvalues --   397.374131711.330581860.54467
           X            0.99978  -0.02081  -0.00176
           Y            0.02076   0.99951  -0.02350
           Z            0.00225   0.02346   0.99972
 This molecule is an asymmetric top.
 Rotational symmetry number  1.
 Rotational temperatures (Kelvin)      0.21797     0.05061     0.04655
 Rotational constants (GHZ):           4.54167     1.05458     0.97001
 Zero-point vibrational energy     417691.9 (Joules/Mol)
                                   99.83076 (Kcal/Mol)
 Warning -- explicit consideration of  10 degrees of freedom as
           vibrations may cause significant error
 Vibrational temperatures:    142.19   211.95   303.95   369.80   426.67
          (Kelvin)            461.78   545.49   600.20   677.14   745.15
                              894.99  1094.59  1121.84  1141.73  1188.09
                             1242.16  1320.96  1343.61  1361.00  1429.07
                             1462.11  1471.79  1519.09  1540.47  1569.18
                             1613.86  1619.71  1662.04  1693.30  1741.27
                             1765.97  1784.97  1810.71  1851.04  1864.27
                             1914.69  1982.71  2065.54  2100.21  2166.14
                             2184.60  4263.76  4304.02  4353.51  4364.68
                             4434.83  4542.40  4590.32  4641.36  5459.33
                             5513.27

 Zero-point correction=                           0.159090 (Hartree/Particle)
 Thermal correction to Energy=                    0.167303
 Thermal correction to Enthalpy=                  0.168247
 Thermal correction to Gibbs Free Energy=         0.126548
 Sum of electronic and zero-point Energies=           -422.960126
 Sum of electronic and thermal Energies=              -422.951913
 Sum of electronic and thermal Enthalpies=            -422.950969
 Sum of electronic and thermal Free Energies=         -422.992668

                     E (Thermal)             CV                S
                      KCal/Mol        Cal/Mol-Kelvin    Cal/Mol-Kelvin
 Total                  104.984             32.361             87.763
 Electronic               0.000              0.000              0.000
 Translational            0.889              2.981             40.409
 Rotational               0.889              2.981             28.627
 Vibrational            103.207             26.400             18.727
 Vibration     1          0.604              1.950              3.477
 Vibration     2          0.617              1.906              2.707
 Vibration     3          0.643              1.824              2.033
 Vibration     4          0.667              1.751              1.682
 Vibration     5          0.690              1.680              1.436
 Vibration     6          0.706              1.633              1.305
 Vibration     7          0.749              1.515              1.043
 Vibration     8          0.780              1.433              0.902
 Vibration     9          0.828              1.315              0.736
 Vibration    10          0.873              1.210              0.615

 Optimization completed.
    -- Stationary point found.
 Normal termination of Gaussian 09 at Tue Jan 28 14:45:37 2020.
