 Gaussian 09, Revision D.01,
 Gaussian 09:  ES64L-G09RevD.01 24-Apr-2013

 -----------------------------
 # b3lyp 6-31G(2df,p) opt Freq
 -----------------------------

 -----
 titel
 -----
 Symbolic Z-matrix:
 Charge =  0 Multiplicity = 1

 SCF Done:  E(RB3LYP) =  -423.192506822     A.U. after   14 cycles
 Optimization completed.
    -- Stationary point found.
 Normal termination of Gaussian 09 at Tue Jan 28 09:11:29 2020.

 ----------------------------------------------------------------------
 #N Geom=AllCheck Guess=TCheck SCRF=Check GenChk RB3LYP/6-31G(2df,p) Fr
 eq
 ----------------------------------------------------------------------

 Structure from the checkpoint file:  "/scratch/puck/g09_87148403-d838-4816-a795-ee7c8ba96597/Gau-20304.chk"
 -----
 titel
 -----
 Charge =  0 Multiplicity = 1

                         Standard orientation:
 ---------------------------------------------------------------------
 Center     Atomic      Atomic             Coordinates (Angstroms)
 Number     Number       Type             X           Y           Z
 ---------------------------------------------------------------------
      1          6           0       -0.321224    2.557432   -0.238565
      2          6           0       -0.465827    1.420302    0.784494
      3          6           0       -0.031303    0.097425    0.214322
      4          6           0       -0.928904   -0.927963   -0.532176
      5          6           0       -2.428776   -0.800950   -0.380059
      6          6           0       -0.111362   -1.352231    0.635574
      7          8           0        1.251883   -1.605357    0.195360
      8          6           0        1.393534   -0.261689   -0.134263
      9          8           0        2.380981    0.292416   -0.497328
     10          1           0        0.712410    2.630244   -0.587435
     11          1           0       -0.959573    2.386557   -1.111390
     12          1           0       -0.603612    3.516467    0.205317
     13          1           0        0.140871    1.645572    1.669891
     14          1           0       -1.502797    1.355554    1.129796
     15          1           0       -0.591283   -1.274672   -1.506142
     16          1           0       -2.830055   -0.013493   -1.025770
     17          1           0       -2.913573   -1.742206   -0.657598
     18          1           0       -2.718767   -0.570608    0.649266
     19          1           0       -0.433367   -1.823843    1.553846
 ---------------------------------------------------------------------

 SCF Done:  E(RB3LYP) =  -423.192506822     A.U. after    1 cycles

 The electronic state is 1-A.
 Alpha  occ. eigenvalues --  -19.17461 -19.13438 -10.30622 -10.25878 -10.22219
 Alpha  occ. eigenvalues --  -10.21795 -10.20188 -10.20092 -10.18058  -1.10589
 Alpha  occ. eigenvalues --   -1.03366  -0.87105  -0.77719  -0.73323  -0.66347
 Alpha  occ. eigenvalues --   -0.63458  -0.59570  -0.53084  -0.50634  -0.49694
 Alpha  occ. eigenvalues --   -0.45961  -0.45235  -0.43259  -0.42446  -0.41143
 Alpha  occ. eigenvalues --   -0.39860  -0.38742  -0.38233  -0.36447  -0.35664
 Alpha  occ. eigenvalues --   -0.34223  -0.29103  -0.27194  -0.26795
 Alpha virt. eigenvalues --    0.00636   0.06762   0.09586   0.10263   0.11363
 Alpha virt. eigenvalues --    0.12292   0.12852   0.15074   0.15433   0.16133
 Alpha virt. eigenvalues --    0.17243   0.17563   0.18714   0.19441   0.20658

 Mulliken charges:
               1
     1  C   -0.381353
     2  C   -0.302251
     3  C    0.110644
     4  C   -0.076224
     5  C   -0.434343
     6  C    0.007786
     7  O   -0.266407
     8  C    0.439005
     9  O   -0.335270
    10  H    0.150994
    11  H    0.117529
    12  H    0.114267
    13  H    0.115464
    14  H    0.105489
    15  H    0.110473
    16  H    0.135334
    17  H    0.134264
    18  H    0.126213
    19  H    0.128386
 Sum of Mulliken charges =   0.00000

 Dipole moment (field-independent basis, Debye):
    X=             -4.2701    Y=              0.1113    Z=              1.0023  Tot=              4.3876
 Quadrupole moment (field-independent basis, Debye-Ang):
   XX=            -59.9776   YY=            -53.5016   ZZ=            -51.1529
   XY=              1.7985   XZ=              1.6948   YZ=              0.3301

  Exact polarizability:  83.988   5.297  79.874  -0.358  -1.227  62.824
 Approx polarizability: 122.873  10.998 115.306  -3.155  -4.618  97.390

                      1                      2                      3
                      A                      A                      A
 Frequencies --     73.7910               119.9000               171.0587
 Red. masses --      2.5376                 4.5000                 1.6830
 Frc consts  --      0.0081                 0.0381                 0.0290
 IR Inten    --      0.6860                 1.3426                 0.3908

                      4                      5                      6
                      A                      A                      A
 Frequencies --    187.7182               223.0137               263.1875
 Red. masses --      2.2362                 1.1435                 2.0988
 Frc consts  --      0.0464                 0.0335                 0.0857
 IR Inten    --      1.1818                 0.3718                 0.1371

                      7                      8                      9
                      A                      A                      A
 Frequencies --    294.7574               308.5584               368.9456
 Red. masses --      1.9869                 3.1003                 3.9809
 Frc consts  --      0.1017                 0.1739                 0.3193
 IR Inten    --      0.0665                 1.6764                 0.4633

                     10                     11                     12
                      A                      A                      A
 Frequencies --    500.2796               538.5994               661.3762
 Red. masses --      3.8817                 3.6715                 6.6192
 Frc consts  --      0.5724                 0.6275                 1.7059
 IR Inten    --      2.4486                 2.0420                 3.7555

                     13                     14                     15
                      A                      A                      A
 Frequencies --    693.1102               778.6992               792.9691
 Red. masses --      3.5798                 1.3425                 6.5072
 Frc consts  --      1.0132                 0.4796                 2.4108
 IR Inten    --      2.7783                10.5649                13.5629

                     16                     17                     18
                      A                      A                      A
 Frequencies --    833.5772               892.2285               917.8462
 Red. masses --      2.7076                 2.7730                 2.2354
 Frc consts  --      1.1085                 1.3006                 1.1095
 IR Inten    --      3.6821                 4.0856                65.0660

                     19                     20                     21
                      A                      A                      A
 Frequencies --    954.9787               980.4640               997.4366
 Red. masses --      1.9788                 1.9843                 2.2357
 Frc consts  --      1.0633                 1.1239                 1.3105
 IR Inten    --      5.6168                21.9073                 7.3321

                     22                     23                     24
                      A                      A                      A
 Frequencies --   1042.9284              1063.3905              1097.7428
 Red. masses --      1.5432                 2.2882                 1.8229
 Frc consts  --      0.9889                 1.5245                 1.2942
 IR Inten    --      5.1350                55.5948                 1.2166

                     25                     26                     27
                      A                      A                      A
 Frequencies --   1113.8218              1140.7505              1153.8345
 Red. masses --      2.0770                 2.0884                 1.7714
 Frc consts  --      1.5181                 1.6012                 1.3895
 IR Inten    --      3.5099                 1.9636                12.3056

                     28                     29                     30
                      A                      A                      A
 Frequencies --   1222.1593              1249.5806              1306.1821
 Red. masses --      2.1257                 1.6615                 1.1834
 Frc consts  --      1.8707                 1.5285                 1.1896
 IR Inten    --     28.3181                14.2610                 1.4164

                     31                     32                     33
                      A                      A                      A
 Frequencies --   1337.9336              1377.1376              1412.2884
 Red. masses --      1.5428                 1.8607                 1.2659
 Frc consts  --      1.6271                 2.0791                 1.4876
 IR Inten    --      2.6777                 3.1452                 4.7066

                     34                     35                     36
                      A                      A                      A
 Frequencies --   1417.1530              1432.9801              1482.2241
 Red. masses --      1.2506                 3.2345                 1.0646
 Frc consts  --      1.4798                 3.9133                 1.3781
 IR Inten    --      1.9925                 7.5543                 1.3120

                     37                     38                     39
                      A                      A                      A
 Frequencies --   1497.3074              1499.3319              1500.6864
 Red. masses --      1.0440                 1.0455                 1.0846
 Frc consts  --      1.3790                 1.3848                 1.4391
 IR Inten    --      3.0266                 7.9209                 4.4803

                     40                     41                     42
                      A                      A                      A
 Frequencies --   1512.6628              1928.3870              3033.9195
 Red. masses --      1.0864                12.8528                 1.0604
 Frc consts  --      1.4646                28.1602                 5.7507
 IR Inten    --      5.6384               422.3839                17.5202

                     43                     44                     45
                      A                      A                      A
 Frequencies --   3039.7652              3041.7309              3072.9268
 Red. masses --      1.0373                 1.0357                 1.0985
 Frc consts  --      5.6470                 5.6456                 6.1118
 IR Inten    --     17.9490                23.5426                14.3049

                     46                     47                     48
                      A                      A                      A
 Frequencies --   3105.3501              3109.1135              3110.7432
 Red. masses --      1.1015                 1.0995                 1.1019
 Frc consts  --      6.2586                 6.2622                 6.2826
 IR Inten    --     18.4374                10.4132                30.1860

                     49                     50                     51
                      A                      A                      A
 Frequencies --   3125.5525              3137.8375              3218.2718
 Red. masses --      1.1021                 1.0900                 1.0949
 Frc consts  --      6.3436                 6.3231                 6.6812
 IR Inten    --     17.4900                15.9525                 4.0804

 - Thermochemistry -
 -------------------
 Temperature   298.150 Kelvin.  Pressure   1.00000 Atm.
 Atom     1 has atomic number  6 and mass  12.00000

 Molecular mass:   126.06808 amu.
 Principal axes and moments of inertia in atomic units:
                           1         2         3
     Eigenvalues --   926.281991028.378861699.49780
           X            0.99332   0.11490   0.01061
           Y           -0.11494   0.99336   0.00383
           Z           -0.01010  -0.00502   0.99994
 This molecule is an asymmetric top.
 Rotational symmetry number  1.
 Warning -- assumption of classical behavior for rotation
           may cause significant error
 Rotational temperatures (Kelvin)      0.09351     0.08422     0.05096
 Rotational constants (GHZ):           1.94837     1.75494     1.06193
 Zero-point vibrational energy     414722.5 (Joules/Mol)
                                   99.12106 (Kcal/Mol)
 Warning -- explicit consideration of  11 degrees of freedom as
           vibrations may cause significant error
 Vibrational temperatures:    106.17   172.51   246.11   270.08   320.87
          (Kelvin)            378.67   424.09   443.95   530.83   719.79
                              774.92   951.57   997.23  1120.37  1140.90
                             1199.33  1283.72  1320.57  1374.00  1410.67
                             1435.09  1500.54  1529.98  1579.41  1602.54
                             1641.28  1660.11  1758.41  1797.87  1879.30
                             1924.99  1981.39  2031.97  2038.96  2061.74
                             2132.59  2154.29  2157.20  2159.15  2176.38
                             2774.52  4365.13  4373.54  4376.37  4421.25
                             4467.90  4473.32  4475.66  4496.97  4514.64
                             4630.37

 Zero-point correction=                           0.157959 (Hartree/Particle)
 Thermal correction to Energy=                    0.167015
 Thermal correction to Enthalpy=                  0.167959
 Thermal correction to Gibbs Free Energy=         0.124101
 Sum of electronic and zero-point Energies=           -423.034547
 Sum of electronic and thermal Energies=              -423.025492
 Sum of electronic and thermal Enthalpies=            -423.024548
 Sum of electronic and thermal Free Energies=         -423.068406

                     E (Thermal)             CV                S
                      KCal/Mol        Cal/Mol-Kelvin    Cal/Mol-Kelvin
 Total                  104.803             33.446             92.307
 Electronic               0.000              0.000              0.000
 Translational            0.889              2.981             40.409
 Rotational               0.889              2.981             28.872
 Vibrational            103.026             27.484             23.026
 Vibration     1          0.599              1.966              4.050
 Vibration     2          0.609              1.933              3.102
 Vibration     3          0.626              1.878              2.424
 Vibration     4          0.632              1.857              2.250
 Vibration     5          0.649              1.806              1.934
 Vibration     6          0.670              1.740              1.641
 Vibration     7          0.689              1.684              1.446
 Vibration     8          0.698              1.657              1.370
 Vibration     9          0.741              1.536              1.084
 Vibration    10          0.856              1.249              0.657
 Vibration    11          0.894              1.165              0.568

 Normal termination of Gaussian 09 at Tue Jan 28 09:53:39 2020.
