 Gaussian 09, Revision D.01,
 Gaussian 09:  ES64L-G09RevD.01 24-Apr-2013

 -----------------------------
 # b3lyp 6-31G(2df,p) opt Freq
 -----------------------------

 -----
 titel
 -----
 Symbolic Z-matrix:
 Charge =  0 Multiplicity = 1

 SCF Done:  E(RB3LYP) =  -423.188350120     A.U. after   14 cycles
 Optimization completed.
    -- Stationary point found.
 Normal termination of Gaussian 09 at Mon Jan 27 16:25:36 2020.

 ----------------------------------------------------------------------
 #N Geom=AllCheck Guess=TCheck SCRF=Check GenChk RB3LYP/6-31G(2df,p) Fr
 eq
 ----------------------------------------------------------------------

 Structure from the checkpoint file:  "/scratch/puck/g09_f68e4d95-88ac-415f-9550-b7e898658ae0/Gau-57300.chk"
 -----
 titel
 -----
 Charge =  0 Multiplicity = 1

                         Standard orientation:
 ---------------------------------------------------------------------
 Center     Atomic      Atomic             Coordinates (Angstroms)
 Number     Number       Type             X           Y           Z
 ---------------------------------------------------------------------
      1          6           0       -0.350452    1.901239    0.137291
      2          6           0       -0.728595    0.440422    0.052154
      3          6           0       -2.172043    0.115705   -0.039973
      4          8           0       -2.629050   -1.004646    0.019169
      5          6           0        0.115018   -0.674654    0.688283
      6          6           0        1.516298   -0.314611    1.173799
      7          6           0        2.326369   -0.209656   -0.140204
      8          8           0        1.374763   -0.060572   -1.210039
      9          6           0        0.142353   -0.542089   -0.785432
     10          1           0       -0.311532    2.261463    1.171138
     11          1           0        0.620086    2.084094   -0.329877
     12          1           0       -1.087193    2.511653   -0.396116
     13          1           0       -2.836450    0.993916   -0.204026
     14          1           0       -0.448297   -1.470083    1.160884
     15          1           0        1.535480    0.621584    1.739406
     16          1           0        1.912136   -1.097544    1.824981
     17          1           0        2.998300    0.652017   -0.170583
     18          1           0        2.919276   -1.117587   -0.314619
     19          1           0       -0.361189   -1.215909   -1.469740
 ---------------------------------------------------------------------

 SCF Done:  E(RB3LYP) =  -423.188350120     A.U. after    1 cycles

 The electronic state is 1-A.
 Alpha  occ. eigenvalues --  -19.15566 -19.13025 -10.26351 -10.24643 -10.23991
 Alpha  occ. eigenvalues --  -10.20560 -10.20286 -10.20060 -10.18653  -1.05696
 Alpha  occ. eigenvalues --   -1.03711  -0.86536  -0.77274  -0.73305  -0.65877
 Alpha  occ. eigenvalues --   -0.61831  -0.58569  -0.54229  -0.52175  -0.48121
 Alpha  occ. eigenvalues --   -0.45906  -0.44570  -0.44122  -0.43623  -0.40895
 Alpha  occ. eigenvalues --   -0.39128  -0.38594  -0.38096  -0.36193  -0.34625
 Alpha  occ. eigenvalues --   -0.31727  -0.28949  -0.25639  -0.23885
 Alpha virt. eigenvalues --   -0.02112   0.07676   0.09449   0.10960   0.12361
 Alpha virt. eigenvalues --    0.13006   0.13550   0.14878   0.15660   0.16304
 Alpha virt. eigenvalues --    0.17444   0.18857   0.19465   0.20135   0.22754

 Mulliken charges:
               1
     1  C   -0.502292
     2  C    0.180877
     3  C    0.086600
     4  O   -0.281307
     5  C   -0.109506
     6  C   -0.279843
     7  C   -0.071069
     8  O   -0.255769
     9  C    0.076433
    10  H    0.123302
    11  H    0.140762
    12  H    0.123694
    13  H    0.071439
    14  H    0.118750
    15  H    0.114977
    16  H    0.116942
    17  H    0.115173
    18  H    0.109139
    19  H    0.121699
 Sum of Mulliken charges =   0.00000

 Dipole moment (field-independent basis, Debye):
    X=              2.1888    Y=              1.3341    Z=              1.2229  Tot=              2.8401
 Quadrupole moment (field-independent basis, Debye-Ang):
   XX=            -56.5829   YY=            -53.0263   ZZ=            -54.0461
   XY=             -5.7084   XZ=              3.0285   YZ=              0.2699

  Exact polarizability:  93.977  -2.878  74.509   2.285  -0.326  61.943
 Approx polarizability: 128.693   1.215 114.291  -0.864  -1.224  98.148

                      1                      2                      3
                      A                      A                      A
 Frequencies --     88.0731               120.5813               160.7686
 Red. masses --      2.0786                 4.3145                 1.0964
 Frc consts  --      0.0095                 0.0370                 0.0167
 IR Inten    --      1.1187                 7.6900                 0.9074

                      4                      5                      6
                      A                      A                      A
 Frequencies --    196.6335               216.6807               249.8834
 Red. masses --      2.6419                 3.3793                 3.1198
 Frc consts  --      0.0602                 0.0935                 0.1148
 IR Inten    --      3.0584                 4.2999                 6.6966

                      7                      8                      9
                      A                      A                      A
 Frequencies --    283.4522               425.4829               464.6185
 Red. masses --      3.0950                 3.0201                 3.2215
 Frc consts  --      0.1465                 0.3221                 0.4097
 IR Inten    --      1.1833                 1.0627                 2.0023

                     10                     11                     12
                      A                      A                      A
 Frequencies --    637.5270               656.2053               716.3443
 Red. masses --      4.6411                 3.3769                 5.1773
 Frc consts  --      1.1114                 0.8567                 1.5653
 IR Inten    --      5.7009                 4.5642                21.7003

                     13                     14                     15
                      A                      A                      A
 Frequencies --    734.3084               780.1229               851.9415
 Red. masses --      3.0658                 5.5379                 1.6076
 Frc consts  --      0.9740                 1.9857                 0.6875
 IR Inten    --      4.7061                29.2855                 6.7244

                     16                     17                     18
                      A                      A                      A
 Frequencies --    906.0794               936.4011               957.4657
 Red. masses --      1.7848                 2.4835                 2.8047
 Frc consts  --      0.8633                 1.2830                 1.5149
 IR Inten    --     15.2832                85.5784                20.2622

                     19                     20                     21
                      A                      A                      A
 Frequencies --    967.1029              1014.8666              1035.4337
 Red. masses --      1.8091                 1.5330                 1.8537
 Frc consts  --      0.9969                 0.9303                 1.1710
 IR Inten    --     53.4529                 4.2839                 1.5065

                     22                     23                     24
                      A                      A                      A
 Frequencies --   1053.7046              1072.6064              1101.8324
 Red. masses --      2.0271                 1.5578                 1.7512
 Frc consts  --      1.3260                 1.0559                 1.2526
 IR Inten    --     17.1458                66.8725                 3.7127

                     25                     26                     27
                      A                      A                      A
 Frequencies --   1139.2403              1157.9547              1206.6245
 Red. masses --      1.8450                 2.7404                 1.6030
 Frc consts  --      1.4108                 2.1649                 1.3751
 IR Inten    --      2.9863                55.9365                 4.8537

                     28                     29                     30
                      A                      A                      A
 Frequencies --   1235.2311              1245.3147              1284.1397
 Red. masses --      1.4288                 1.2579                 1.7433
 Frc consts  --      1.2844                 1.1493                 1.6937
 IR Inten    --     15.3675                23.8026                 3.4369

                     31                     32                     33
                      A                      A                      A
 Frequencies --   1294.7470              1307.9977              1375.7928
 Red. masses --      1.5563                 1.5471                 2.1433
 Frc consts  --      1.5371                 1.5595                 2.3902
 IR Inten    --      5.5379                 3.8194                30.9002

                     34                     35                     36
                      A                      A                      A
 Frequencies --   1399.8115              1416.1143              1435.3942
 Red. masses --      1.5928                 1.3138                 1.2964
 Frc consts  --      1.8389                 1.5523                 1.5737
 IR Inten    --     28.3988                 5.3165                 2.1314

                     37                     38                     39
                      A                      A                      A
 Frequencies --   1490.3721              1498.5611              1505.7598
 Red. masses --      1.0645                 1.0568                 1.0653
 Frc consts  --      1.3931                 1.3982                 1.4230
 IR Inten    --      8.8745                 8.8778                 3.1468

                     40                     41                     42
                      A                      A                      A
 Frequencies --   1524.5304              1788.7126              2875.7841
 Red. masses --      1.0918                10.1820                 1.0830
 Frc consts  --      1.4951                19.1940                 5.2771
 IR Inten    --      0.2510               175.2693               132.0107

                     43                     44                     45
                      A                      A                      A
 Frequencies --   3013.6917              3033.0977              3058.5503
 Red. masses --      1.0688                 1.0376                 1.0635
 Frc consts  --      5.7195                 5.6243                 5.8616
 IR Inten    --     70.4680                27.8134                22.9378

                     46                     47                     48
                      A                      A                      A
 Frequencies --   3089.9345              3090.3535              3107.8668
 Red. masses --      1.1003                 1.0945                 1.1042
 Frc consts  --      6.1896                 6.1585                 6.2839
 IR Inten    --     25.2049                18.2001                27.0967

                     49                     50                     51
                      A                      A                      A
 Frequencies --   3119.6604              3176.3493              3190.6705
 Red. masses --      1.0984                 1.0903                 1.0921
 Frc consts  --      6.2984                 6.4810                 6.5503
 IR Inten    --      7.2393                 8.5218                 2.2405

 - Thermochemistry -
 -------------------
 Temperature   298.150 Kelvin.  Pressure   1.00000 Atm.
 Atom     1 has atomic number  6 and mass  12.00000

 Molecular mass:   126.06808 amu.
 Principal axes and moments of inertia in atomic units:
                           1         2         3
     Eigenvalues --   576.609511418.521791529.83234
           X            0.99947  -0.02594   0.01957
           Y            0.02586   0.99966   0.00450
           Z           -0.01968  -0.00400   0.99980
 This molecule is an asymmetric top.
 Rotational symmetry number  1.
 Warning -- assumption of classical behavior for rotation
           may cause significant error
 Rotational temperatures (Kelvin)      0.15021     0.06106     0.05662
 Rotational constants (GHZ):           3.12992     1.27227     1.17970
 Zero-point vibrational energy     416841.0 (Joules/Mol)
                                   99.62739 (Kcal/Mol)
 Warning -- explicit consideration of   9 degrees of freedom as
           vibrations may cause significant error
 Vibrational temperatures:    126.72   173.49   231.31   282.91   311.75
          (Kelvin)            359.53   407.82   612.17   668.48   917.26
                              944.13  1030.66  1056.50  1122.42  1225.75
                             1303.64  1347.27  1377.58  1391.44  1460.16
                             1489.76  1516.04  1543.24  1585.29  1639.11
                             1666.04  1736.06  1777.22  1791.73  1847.59
                             1862.85  1881.91  1979.46  2014.01  2037.47
                             2065.21  2144.31  2156.09  2166.45  2193.46
                             2573.56  4137.61  4336.02  4363.95  4400.57
                             4445.72  4446.32  4471.52  4488.49  4570.05
                             4590.66

 Zero-point correction=                           0.158766 (Hartree/Particle)
 Thermal correction to Energy=                    0.167375
 Thermal correction to Enthalpy=                  0.168319
 Thermal correction to Gibbs Free Energy=         0.125392
 Sum of electronic and zero-point Energies=           -423.029584
 Sum of electronic and thermal Energies=              -423.020975
 Sum of electronic and thermal Enthalpies=            -423.020031
 Sum of electronic and thermal Free Energies=         -423.062958

                     E (Thermal)             CV                S
                      KCal/Mol        Cal/Mol-Kelvin    Cal/Mol-Kelvin
 Total                  105.029             31.919             90.348
 Electronic               0.000              0.000              0.000
 Translational            0.889              2.981             40.409
 Rotational               0.889              2.981             28.616
 Vibrational            103.252             25.958             21.323
 Vibration     1          0.601              1.958              3.702
 Vibration     2          0.609              1.932              3.091
 Vibration     3          0.622              1.890              2.541
 Vibration     4          0.636              1.845              2.164
 Vibration     5          0.646              1.816              1.987
 Vibration     6          0.663              1.763              1.731
 Vibration     7          0.682              1.704              1.513
 Vibration     8          0.787              1.415              0.874
 Vibration     9          0.822              1.329              0.753

 Optimization completed.
    -- Stationary point found.
 Normal termination of Gaussian 09 at Mon Jan 27 17:09:26 2020.
