 Gaussian 09, Revision D.01,
 Gaussian 09:  ES64L-G09RevD.01 24-Apr-2013

 -----------------------------
 # b3lyp 6-31G(2df,p) opt Freq
 -----------------------------

 -----
 titel
 -----
 Symbolic Z-matrix:
 Charge =  0 Multiplicity = 1

 SCF Done:  E(RB3LYP) =  -423.146712129     A.U. after   13 cycles
 Optimization completed.
    -- Stationary point found.
 Normal termination of Gaussian 09 at Mon Jan 27 23:42:54 2020.

 ----------------------------------------------------------------------
 #N Geom=AllCheck Guess=TCheck SCRF=Check GenChk RB3LYP/6-31G(2df,p) Fr
 eq
 ----------------------------------------------------------------------

 Structure from the checkpoint file:  "/scratch/puck/g09_d2c259bf-ce4d-44fa-ade2-9d630fce2f55/Gau-77747.chk"
 -----
 titel
 -----
 Charge =  0 Multiplicity = 1

                         Standard orientation:
 ---------------------------------------------------------------------
 Center     Atomic      Atomic             Coordinates (Angstroms)
 Number     Number       Type             X           Y           Z
 ---------------------------------------------------------------------
      1          6           0        2.748547   -0.573220    0.204393
      2          6           0        1.368204   -0.074492   -0.118830
      3          6           0        1.112523    1.269396   -0.752822
      4          6           0        0.586861    0.970621    0.643856
      5          6           0       -0.800135    0.404919    0.836083
      6          6           0       -1.694418    0.148954   -0.351471
      7          8           0       -3.050318    0.042497   -0.025882
      8          6           0       -0.773612   -0.941861    0.144750
      9          8           0        0.475291   -1.120351   -0.475010
     10          1           0        3.402282    0.258135    0.482759
     11          1           0        2.720753   -1.288263    1.032982
     12          1           0        3.191186   -1.075033   -0.662591
     13          1           0        1.952910    1.953806   -0.813850
     14          1           0        0.427232    1.337697   -1.588690
     15          1           0        1.023904    1.500679    1.481911
     16          1           0       -1.286570    0.535303    1.794766
     17          1           0       -1.474895    0.631488   -1.302358
     18          1           0       -3.445626   -0.607777   -0.616983
     19          1           0       -1.198780   -1.849108    0.563429
 ---------------------------------------------------------------------

 SCF Done:  E(RB3LYP) =  -423.146712129     A.U. after    1 cycles

 The electronic state is 1-A.
 Alpha  occ. eigenvalues --  -19.14508 -19.14485 -10.23723 -10.23186 -10.22779
 Alpha  occ. eigenvalues --  -10.19426 -10.19114 -10.18342 -10.17862  -1.04993
 Alpha  occ. eigenvalues --   -1.02681  -0.85266  -0.83144  -0.71641  -0.64314
 Alpha  occ. eigenvalues --   -0.61590  -0.56140  -0.55693  -0.53751  -0.48497
 Alpha  occ. eigenvalues --   -0.46103  -0.45200  -0.44013  -0.40628  -0.40151
 Alpha  occ. eigenvalues --   -0.39173  -0.37909  -0.36821  -0.34410  -0.31494
 Alpha  occ. eigenvalues --   -0.29993  -0.27403  -0.24775  -0.22570
 Alpha virt. eigenvalues --    0.07351   0.08614   0.10101   0.11733   0.12611
 Alpha virt. eigenvalues --    0.13148   0.15435   0.16146   0.17086   0.17206
 Alpha virt. eigenvalues --    0.18589   0.19626   0.20540   0.21387   0.22092

 Mulliken charges:
               1
     1  C   -0.461182
     2  C    0.434355
     3  C   -0.356061
     4  C   -0.124173
     5  C   -0.092308
     6  C    0.025855
     7  O   -0.425673
     8  C    0.023812
     9  O   -0.295191
    10  H    0.116435
    11  H    0.122788
    12  H    0.128930
    13  H    0.109644
    14  H    0.118909
    15  H    0.092138
    16  H    0.103369
    17  H    0.090627
    18  H    0.288473
    19  H    0.099252
 Sum of Mulliken charges =   0.00000

 Dipole moment (field-independent basis, Debye):
    X=              0.4495    Y=              0.0436    Z=             -0.0353  Tot=              0.4529
 Quadrupole moment (field-independent basis, Debye-Ang):
   XX=            -51.0561   YY=            -53.7198   ZZ=            -51.5214
   XY=              5.5870   XZ=              3.9054   YZ=             -0.5091

  Exact polarizability:  90.346   3.446  68.829  -0.028  -1.321  64.703
 Approx polarizability: 115.094   3.103 106.724  -1.582   1.789 101.667

                      1                      2                      3
                      A                      A                      A
 Frequencies --    143.1203               204.6101               212.3406
 Red. masses --      3.9800                 1.0723                 2.3787
 Frc consts  --      0.0480                 0.0264                 0.0632
 IR Inten    --      0.2976                 0.3200                11.4050

                      4                      5                      6
                      A                      A                      A
 Frequencies --    250.3035               293.1989               319.1058
 Red. masses --      3.2804                 2.9906                 1.3229
 Frc consts  --      0.1211                 0.1515                 0.0794
 IR Inten    --      6.5680                 2.6143                78.8928

                      7                      8                      9
                      A                      A                      A
 Frequencies --    363.8831               374.0506               472.9950
 Red. masses --      3.7093                 2.3424                 3.5698
 Frc consts  --      0.2894                 0.1931                 0.4706
 IR Inten    --      4.0856                22.0003                 0.1404

                     10                     11                     12
                      A                      A                      A
 Frequencies --    506.0354               635.0516               710.3787
 Red. masses --      2.7035                 3.0100                 4.8547
 Frc consts  --      0.4079                 0.7152                 1.4434
 IR Inten    --      0.8508                 2.2566                 8.3342

                     13                     14                     15
                      A                      A                      A
 Frequencies --    750.7544               809.3403               825.4334
 Red. masses --      4.3105                 2.2320                 2.2104
 Frc consts  --      1.4314                 0.8614                 0.8873
 IR Inten    --      5.5331                 7.5131                 1.4133

                     16                     17                     18
                      A                      A                      A
 Frequencies --    886.0799               905.9398               918.8895
 Red. masses --      1.7728                 2.5104                 2.1792
 Frc consts  --      0.8201                 1.2139                 1.0841
 IR Inten    --      1.2615                16.7459                20.5975

                     19                     20                     21
                      A                      A                      A
 Frequencies --    938.8890               952.3056              1001.2443
 Red. masses --      2.4516                 1.6759                 1.6361
 Frc consts  --      1.2733                 0.8955                 0.9664
 IR Inten    --      1.1401                 2.3867                 4.4367

                     22                     23                     24
                      A                      A                      A
 Frequencies --   1034.5200              1044.4794              1062.6781
 Red. masses --      1.3688                 1.3132                 1.2849
 Frc consts  --      0.8631                 0.8441                 0.8549
 IR Inten    --      3.3196                25.7384                 7.4559

                     25                     26                     27
                      A                      A                      A
 Frequencies --   1085.7841              1099.8532              1124.7491
 Red. masses --      1.5791                 2.9913                 1.9245
 Frc consts  --      1.0968                 2.1320                 1.4344
 IR Inten    --      9.4627                88.4281                61.6685

                     28                     29                     30
                      A                      A                      A
 Frequencies --   1129.5720              1168.4451              1182.9420
 Red. masses --      2.2489                 2.6467                 2.0084
 Frc consts  --      1.6906                 2.1290                 1.6558
 IR Inten    --     30.8007                11.1513                 8.0120

                     31                     32                     33
                      A                      A                      A
 Frequencies --   1225.9286              1271.2356              1285.6988
 Red. masses --      2.2721                 1.4570                 1.4862
 Frc consts  --      2.0119                 1.3873                 1.4475
 IR Inten    --     58.5056                 2.6817                33.8066

                     34                     35                     36
                      A                      A                      A
 Frequencies --   1321.4596              1322.8766              1383.8448
 Red. masses --      1.5858                 1.5726                 1.7453
 Frc consts  --      1.6315                 1.6215                 1.9692
 IR Inten    --      7.8478                17.1334                 9.0824

                     37                     38                     39
                      A                      A                      A
 Frequencies --   1420.5111              1449.8193              1478.8714
 Red. masses --      1.5559                 2.1925                 1.0465
 Frc consts  --      1.8497                 2.7154                 1.3485
 IR Inten    --      4.3133                 4.8518                 2.2640

                     40                     41                     42
                      A                      A                      A
 Frequencies --   1486.3274              1500.7935              3034.8385
 Red. masses --      1.2998                 1.1121                 1.0352
 Frc consts  --      1.6919                 1.4759                 5.6174
 IR Inten    --     10.1516                 1.8496                27.6147

                     43                     44                     45
                      A                      A                      A
 Frequencies --   3099.5444              3111.7098              3115.3267
 Red. masses --      1.1015                 1.0867                 1.1007
 Frc consts  --      6.2346                 6.1995                 6.2940
 IR Inten    --     18.7727                19.6169                16.1822

                     46                     47                     48
                      A                      A                      A
 Frequencies --   3136.2722              3155.0976              3175.9173
 Red. masses --      1.0570                 1.0905                 1.0901
 Frc consts  --      6.1258                 6.3959                 6.4783
 IR Inten    --     19.7575                24.8432                 7.2601

                     49                     50                     51
                      A                      A                      A
 Frequencies --   3195.0746              3224.5460              3795.9971
 Red. masses --      1.0922                 1.1137                 1.0661
 Frc consts  --      6.5691                 6.8226                 9.0512
 IR Inten    --      7.7451                 9.1849                21.9728

 - Thermochemistry -
 -------------------
 Temperature   298.150 Kelvin.  Pressure   1.00000 Atm.
 Atom     1 has atomic number  6 and mass  12.00000

 Molecular mass:   126.06808 amu.
 Principal axes and moments of inertia in atomic units:
                           1         2         3
     Eigenvalues --   435.439091515.182311673.03970
           X            0.99993   0.00905   0.00720
           Y           -0.00863   0.99840  -0.05590
           Z           -0.00769   0.05584   0.99841
 This molecule is an asymmetric top.
 Rotational symmetry number  1.
 Warning -- assumption of classical behavior for rotation
           may cause significant error
 Rotational temperatures (Kelvin)      0.19891     0.05716     0.05177
 Rotational constants (GHZ):           4.14465     1.19110     1.07872
 Zero-point vibrational energy     416292.5 (Joules/Mol)
                                   99.49628 (Kcal/Mol)
 Warning -- explicit consideration of  10 degrees of freedom as
           vibrations may cause significant error
 Vibrational temperatures:    205.92   294.39   305.51   360.13   421.85
          (Kelvin)            459.12   523.55   538.17   680.53   728.07
                              913.70  1022.08  1080.17  1164.46  1187.61
                             1274.87  1303.44  1322.08  1350.85  1370.15
                             1440.57  1488.44  1502.77  1528.95  1562.20
                             1582.44  1618.26  1625.20  1681.13  1701.99
                             1763.84  1829.02  1849.83  1901.28  1903.32
                             1991.04  2043.80  2085.96  2127.76  2138.49
                             2159.30  4366.45  4459.55  4477.05  4482.25
                             4512.39  4539.48  4569.43  4596.99  4639.40
                             5461.59

 Zero-point correction=                           0.158557 (Hartree/Particle)
 Thermal correction to Energy=                    0.166698
 Thermal correction to Enthalpy=                  0.167643
 Thermal correction to Gibbs Free Energy=         0.126459
 Sum of electronic and zero-point Energies=           -422.988155
 Sum of electronic and thermal Energies=              -422.980014
 Sum of electronic and thermal Enthalpies=            -422.979069
 Sum of electronic and thermal Free Energies=         -423.020254

                     E (Thermal)             CV                S
                      KCal/Mol        Cal/Mol-Kelvin    Cal/Mol-Kelvin
 Total                  104.605             32.555             86.679
 Electronic               0.000              0.000              0.000
 Translational            0.889              2.981             40.409
 Rotational               0.889              2.981             28.492
 Vibrational            102.827             26.593             17.779
 Vibration     1          0.616              1.910              2.762
 Vibration     2          0.640              1.833              2.091
 Vibration     3          0.643              1.822              2.023
 Vibration     4          0.663              1.762              1.728
 Vibration     5          0.688              1.686              1.455
 Vibration     6          0.705              1.637              1.315
 Vibration     7          0.737              1.547              1.105
 Vibration     8          0.745              1.525              1.063
 Vibration     9          0.830              1.310              0.729
 Vibration    10          0.861              1.237              0.643

 Optimization completed.
    -- Stationary point found.
 Normal termination of Gaussian 09 at Tue Jan 28 00:25:19 2020.
