 Gaussian 09, Revision D.01,
 Gaussian 09:  ES64L-G09RevD.01 24-Apr-2013

 -----------------------------
 # b3lyp 6-31G(2df,p) opt Freq
 -----------------------------

 -----
 titel
 -----
 Symbolic Z-matrix:
 Charge =  0 Multiplicity = 1

 SCF Done:  E(RB3LYP) =  -423.162534071     A.U. after   14 cycles
 Optimization completed.
    -- Stationary point found.
 Normal termination of Gaussian 09 at Tue Jan 28 00:44:20 2020.

 ----------------------------------------------------------------------
 #N Geom=AllCheck Guess=TCheck SCRF=Check GenChk RB3LYP/6-31G(2df,p) Fr
 eq
 ----------------------------------------------------------------------

 Structure from the checkpoint file:  "/scratch/puck/g09_ff24b826-562e-42f4-80c2-9cdb080a66e6/Gau-81581.chk"
 -----
 titel
 -----
 Charge =  0 Multiplicity = 1

                         Standard orientation:
 ---------------------------------------------------------------------
 Center     Atomic      Atomic             Coordinates (Angstroms)
 Number     Number       Type             X           Y           Z
 ---------------------------------------------------------------------
      1          6           0        0.436185    1.989998   -0.877678
      2          6           0        0.643937    1.192276    0.407269
      3          6           0       -0.653860    0.893691    1.229316
      4          6           0       -0.593572   -0.601229    0.817519
      5          6           0       -1.607255   -1.039913   -0.215951
      6          8           0       -2.465083   -0.333145   -0.681354
      7          6           0        0.799490   -0.322354    0.202031
      8          6           0        1.999653   -1.157084    0.234889
      9          8           0        1.277378   -0.929860   -0.985620
     10          1           0        0.214004    3.036302   -0.644812
     11          1           0        1.330483    1.959390   -1.507214
     12          1           0       -0.399173    1.589193   -1.459377
     13          1           0        1.453595    1.632980    0.997329
     14          1           0       -0.544743    1.050428    2.303415
     15          1           0       -1.550548    1.403061    0.872639
     16          1           0       -0.583610   -1.343579    1.623365
     17          1           0       -1.495977   -2.095589   -0.545721
     18          1           0        2.981204   -0.687164    0.286920
     19          1           0        1.948933   -2.173306    0.624867
 ---------------------------------------------------------------------

 SCF Done:  E(RB3LYP) =  -423.162534070     A.U. after    1 cycles

 The electronic state is 1-A.
 Alpha  occ. eigenvalues --  -19.16062 -19.14284 -10.27320 -10.25183 -10.24130
 Alpha  occ. eigenvalues --  -10.20259 -10.19609 -10.18774 -10.17476  -1.08120
 Alpha  occ. eigenvalues --   -1.04882  -0.85274  -0.74224  -0.67955  -0.66815
 Alpha  occ. eigenvalues --   -0.63169  -0.57676  -0.52859  -0.51037  -0.50086
 Alpha  occ. eigenvalues --   -0.48279  -0.44657  -0.43208  -0.41710  -0.40488
 Alpha  occ. eigenvalues --   -0.38874  -0.38408  -0.36165  -0.34573  -0.33254
 Alpha  occ. eigenvalues --   -0.31847  -0.30056  -0.27197  -0.25113
 Alpha virt. eigenvalues --   -0.02433   0.06166   0.10085   0.10129   0.11101
 Alpha virt. eigenvalues --    0.12386   0.14128   0.14833   0.15196   0.15913
 Alpha virt. eigenvalues --    0.17119   0.17834   0.18995   0.19368   0.20324

 Mulliken charges:
               1
     1  C   -0.396674
     2  C   -0.088049
     3  C   -0.250718
     4  C   -0.213648
     5  C    0.163493
     6  O   -0.242788
     7  C    0.447044
     8  C   -0.262164
     9  O   -0.264403
    10  H    0.115109
    11  H    0.123567
    12  H    0.139675
    13  H    0.075753
    14  H    0.104132
    15  H    0.129824
    16  H    0.093459
    17  H    0.089845
    18  H    0.120259
    19  H    0.116284
 Sum of Mulliken charges =   0.00000

 Dipole moment (field-independent basis, Debye):
    X=              2.0409    Y=             -0.4657    Z=              2.6495  Tot=              3.3767
 Quadrupole moment (field-independent basis, Debye-Ang):
   XX=            -57.3284   YY=            -49.7489   ZZ=            -54.7335
   XY=              1.0416   XZ=             -0.4264   YZ=             -2.0936

  Exact polarizability:  81.790  -3.742  79.853   2.338  -1.058  65.478
 Approx polarizability: 117.748  -9.618 110.745   6.855  -1.339 102.318

                      1                      2                      3
                      A                      A                      A
 Frequencies --     53.7826                70.8530               188.1811
 Red. masses --      3.6458                 5.6206                 2.8171
 Frc consts  --      0.0062                 0.0166                 0.0588
 IR Inten    --      1.2784                 3.5773                 3.1614

                      4                      5                      6
                      A                      A                      A
 Frequencies --    201.8463               216.5630               227.6754
 Red. masses --      2.9513                 1.3079                 2.1880
 Frc consts  --      0.0708                 0.0361                 0.0668
 IR Inten    --      6.0252                 1.0869                 1.5520

                      7                      8                      9
                      A                      A                      A
 Frequencies --    301.0236               355.4431               456.6998
 Red. masses --      2.8330                 2.2793                 3.0129
 Frc consts  --      0.1512                 0.1697                 0.3703
 IR Inten    --      4.6718                 0.3860                 1.3885

                     10                     11                     12
                      A                      A                      A
 Frequencies --    497.1167               543.3595               663.4869
 Red. masses --      3.2351                 5.5419                 2.5499
 Frc consts  --      0.4710                 0.9640                 0.6614
 IR Inten    --      1.5440                 8.7670                 4.6582

                     13                     14                     15
                      A                      A                      A
 Frequencies --    749.2733               814.7949               854.9782
 Red. masses --      3.2937                 2.0734                 2.2151
 Frc consts  --      1.0895                 0.8110                 0.9540
 IR Inten    --     16.5146                 1.4732                 9.9898

                     16                     17                     18
                      A                      A                      A
 Frequencies --    870.8626               881.3218               935.3028
 Red. masses --      3.1947                 1.9131                 1.9618
 Frc consts  --      1.4275                 0.8755                 1.0111
 IR Inten    --     32.9911                 0.7982                 6.2680

                     19                     20                     21
                      A                      A                      A
 Frequencies --    946.2068               973.3667              1049.1147
 Red. masses --      2.9122                 1.3479                 1.6625
 Frc consts  --      1.5362                 0.7524                 1.0781
 IR Inten    --     15.6316                 0.3628                29.7682

                     22                     23                     24
                      A                      A                      A
 Frequencies --   1061.1064              1101.7565              1117.9004
 Red. masses --      2.1456                 1.9625                 1.9659
 Frc consts  --      1.4233                 1.4036                 1.4475
 IR Inten    --      0.9222                15.1289                 1.2046

                     25                     26                     27
                      A                      A                      A
 Frequencies --   1123.6785              1160.9084              1169.9020
 Red. masses --      1.2629                 1.6129                 1.9475
 Frc consts  --      0.9395                 1.2807                 1.5705
 IR Inten    --      3.4840                 7.3922                 6.6694

                     28                     29                     30
                      A                      A                      A
 Frequencies --   1184.4825              1209.3400              1252.0949
 Red. masses --      1.6001                 1.5251                 1.4547
 Frc consts  --      1.3227                 1.3142                 1.3437
 IR Inten    --      1.1679                 2.7412                 2.3169

                     31                     32                     33
                      A                      A                      A
 Frequencies --   1277.1724              1321.6606              1344.1962
 Red. masses --      1.5127                 1.6731                 1.5912
 Frc consts  --      1.4538                 1.7219                 1.6939
 IR Inten    --      3.3567                12.8799                 8.1742

                     34                     35                     36
                      A                      A                      A
 Frequencies --   1408.2883              1421.0333              1422.5594
 Red. masses --      1.2782                 2.2361                 1.1953
 Frc consts  --      1.4936                 2.6605                 1.4252
 IR Inten    --      4.4332                16.6961                 8.5765

                     37                     38                     39
                      A                      A                      A
 Frequencies --   1482.1271              1492.8775              1499.9289
 Red. masses --      1.1230                 1.0482                 1.0514
 Frc consts  --      1.4534                 1.3765                 1.3936
 IR Inten    --      9.5770                 3.8624                 1.7802

                     40                     41                     42
                      A                      A                      A
 Frequencies --   1530.5064              1821.0305              2897.5900
 Red. masses --      1.4656                10.1676                 1.0836
 Frc consts  --      2.0228                19.8657                 5.3605
 IR Inten    --      8.3241               141.7602               102.1321

                     43                     44                     45
                      A                      A                      A
 Frequencies --   3038.4731              3049.2974              3051.8770
 Red. masses --      1.0349                 1.0843                 1.0850
 Frc consts  --      5.6296                 5.9403                 5.9542
 IR Inten    --     21.0848                19.0198                18.6738

                     46                     47                     48
                      A                      A                      A
 Frequencies --   3077.4519              3082.2639              3108.6097
 Red. masses --      1.0503                 1.0595                 1.1017
 Frc consts  --      5.8605                 5.9303                 6.2726
 IR Inten    --     27.4594                23.7989                21.1647

                     49                     50                     51
                      A                      A                      A
 Frequencies --   3117.4267              3140.4423              3164.6949
 Red. masses --      1.1018                 1.1083                 1.1195
 Frc consts  --      6.3088                 6.4399                 6.6058
 IR Inten    --     18.8283                 9.9465                19.5408

 - Thermochemistry -
 -------------------
 Temperature   298.150 Kelvin.  Pressure   1.00000 Atm.
 Atom     1 has atomic number  6 and mass  12.00000

 Molecular mass:   126.06808 amu.
 Principal axes and moments of inertia in atomic units:
                           1         2         3
     Eigenvalues --   837.892041163.727221450.45321
           X            0.99999  -0.00046  -0.00409
           Y            0.00024   0.99848  -0.05516
           Z            0.00410   0.05516   0.99847
 This molecule is an asymmetric top.
 Rotational symmetry number  1.
 Warning -- assumption of classical behavior for rotation
           may cause significant error
 Rotational temperatures (Kelvin)      0.10337     0.07443     0.05972
 Rotational constants (GHZ):           2.15391     1.55083     1.24426
 Zero-point vibrational energy     412603.6 (Joules/Mol)
                                   98.61462 (Kcal/Mol)
 Warning -- explicit consideration of  11 degrees of freedom as
           vibrations may cause significant error
 Vibrational temperatures:     77.38   101.94   270.75   290.41   311.59
          (Kelvin)            327.57   433.11   511.40   657.09   715.24
                              781.77   954.61  1078.04  1172.31  1230.12
                             1252.98  1268.02  1345.69  1361.38  1400.46
                             1509.44  1526.69  1585.18  1608.41  1616.72
                             1670.29  1683.23  1704.20  1739.97  1801.48
                             1837.56  1901.57  1934.00  2026.21  2044.55
                             2046.74  2132.45  2147.91  2158.06  2202.05
                             2620.05  4168.98  4371.68  4387.25  4390.96
                             4427.76  4434.68  4472.59  4485.28  4518.39
                             4553.28

 Zero-point correction=                           0.157152 (Hartree/Particle)
 Thermal correction to Energy=                    0.166150
 Thermal correction to Enthalpy=                  0.167094
 Thermal correction to Gibbs Free Energy=         0.122868
 Sum of electronic and zero-point Energies=           -423.005382
 Sum of electronic and thermal Energies=              -422.996384
 Sum of electronic and thermal Enthalpies=            -422.995440
 Sum of electronic and thermal Free Energies=         -423.039666

                     E (Thermal)             CV                S
                      KCal/Mol        Cal/Mol-Kelvin    Cal/Mol-Kelvin
 Total                  104.261             32.942             93.082
 Electronic               0.000              0.000              0.000
 Translational            0.889              2.981             40.409
 Rotational               0.889              2.981             28.738
 Vibrational            102.483             26.980             23.935
 Vibration     1          0.596              1.976              4.673
 Vibration     2          0.598              1.968              4.130
 Vibration     3          0.633              1.856              2.246
 Vibration     4          0.639              1.837              2.116
 Vibration     5          0.645              1.816              1.988
 Vibration     6          0.651              1.799              1.897
 Vibration     7          0.693              1.672              1.411
 Vibration     8          0.731              1.564              1.142
 Vibration     9          0.815              1.346              0.776
 Vibration    10          0.853              1.256              0.665
 Vibration    11          0.898              1.154              0.558

 Optimization completed.
    -- Stationary point found.
 Normal termination of Gaussian 09 at Tue Jan 28 01:28:04 2020.
