 Gaussian 09, Revision D.01,
 Gaussian 09:  ES64L-G09RevD.01 24-Apr-2013

 -----------------------------
 # b3lyp 6-31G(2df,p) opt Freq
 -----------------------------

 -----
 titel
 -----
 Symbolic Z-matrix:
 Charge =  0 Multiplicity = 1

 SCF Done:  E(RB3LYP) =  -423.161106901     A.U. after   14 cycles
 Optimization completed.
    -- Stationary point found.
 Normal termination of Gaussian 09 at Tue Jan 28 03:54:21 2020.

 ----------------------------------------------------------------------
 #N Geom=AllCheck Guess=TCheck SCRF=Check GenChk RB3LYP/6-31G(2df,p) Fr
 eq
 ----------------------------------------------------------------------

 Structure from the checkpoint file:  "/scratch/puck/g09_f2449266-8d4d-450f-bb6b-2d2429583d43/Gau-8744.chk"
 -----
 titel
 -----
 Charge =  0 Multiplicity = 1

                         Standard orientation:
 ---------------------------------------------------------------------
 Center     Atomic      Atomic             Coordinates (Angstroms)
 Number     Number       Type             X           Y           Z
 ---------------------------------------------------------------------
      1          6           0        0.652529    2.095119   -0.825491
      2          6           0        0.133253    1.149825    0.247855
      3          6           0        1.160848    0.520848    1.245160
      4          6           0        0.668383   -0.892504    0.873789
      5          8           0        1.428576   -1.508242   -0.176971
      6          6           0        0.498227   -1.052142   -1.181588
      7          6           0       -0.353097   -0.271923   -0.160600
      8          6           0       -1.814481   -0.567536   -0.098805
      9          8           0       -2.656268    0.198988    0.301868
     10          1           0       -0.130681    2.343726   -1.549800
     11          1           0        0.995748    3.031477   -0.372990
     12          1           0        1.499998    1.669123   -1.372758
     13          1           0       -0.686744    1.627988    0.789671
     14          1           0        2.213546    0.666394    0.990066
     15          1           0        1.003573    0.797938    2.290361
     16          1           0        0.397809   -1.593759    1.667646
     17          1           0        0.982288   -0.467789   -1.971356
     18          1           0       -0.036260   -1.896143   -1.639598
     19          1           0       -2.091701   -1.595042   -0.432335
 ---------------------------------------------------------------------

 SCF Done:  E(RB3LYP) =  -423.161106901     A.U. after    1 cycles

 The electronic state is 1-A.
 Alpha  occ. eigenvalues --  -19.14487 -19.14458 -10.27438 -10.25201 -10.24585
 Alpha  occ. eigenvalues --  -10.20646 -10.19846 -10.18834 -10.18224  -1.05612
 Alpha  occ. eigenvalues --   -1.04875  -0.84393  -0.74497  -0.73006  -0.65766
 Alpha  occ. eigenvalues --   -0.61286  -0.60490  -0.53419  -0.50541  -0.48978
 Alpha  occ. eigenvalues --   -0.47964  -0.43984  -0.43600  -0.42259  -0.41809
 Alpha  occ. eigenvalues --   -0.40162  -0.39520  -0.36656  -0.34975  -0.33460
 Alpha  occ. eigenvalues --   -0.31107  -0.29190  -0.26004  -0.25198
 Alpha virt. eigenvalues --   -0.03605   0.06438   0.08592   0.10478   0.11629
 Alpha virt. eigenvalues --    0.11862   0.12308   0.15540   0.15783   0.16627
 Alpha virt. eigenvalues --    0.17145   0.17417   0.18648   0.19857   0.22069

 Mulliken charges:
               1
     1  C   -0.419935
     2  C   -0.040360
     3  C   -0.256772
     4  C    0.077585
     5  O   -0.282145
     6  C   -0.141342
     7  C    0.175653
     8  C    0.064644
     9  O   -0.254392
    10  H    0.123250
    11  H    0.122964
    12  H    0.119978
    13  H    0.105923
    14  H    0.113889
    15  H    0.109121
    16  H    0.088128
    17  H    0.112708
    18  H    0.105617
    19  H    0.075485
 Sum of Mulliken charges =   0.00000

 Dipole moment (field-independent basis, Debye):
    X=              1.0111    Y=              0.0531    Z=             -0.4460  Tot=              1.1064
 Quadrupole moment (field-independent basis, Debye-Ang):
   XX=            -63.3958   YY=            -53.5016   ZZ=            -49.8495
   XY=              5.4988   XZ=              2.1283   YZ=             -0.0265

  Exact polarizability:  78.609   1.754  77.621   1.268   3.006  71.467
 Approx polarizability: 119.936  -7.436 110.646  -0.485   6.462 105.554

                      1                      2                      3
                      A                      A                      A
 Frequencies --     61.3895                90.7265               173.2171
 Red. masses --      3.1028                 4.4224                 3.7635
 Frc consts  --      0.0069                 0.0214                 0.0665
 IR Inten    --      0.9101                 9.2976                 8.1748

                      4                      5                      6
                      A                      A                      A
 Frequencies --    220.3126               244.3096               279.4690
 Red. masses --      1.2295                 2.5135                 1.7976
 Frc consts  --      0.0352                 0.0884                 0.0827
 IR Inten    --      0.6566                 1.5260                 0.0020

                      7                      8                      9
                      A                      A                      A
 Frequencies --    360.4215               393.5318               447.8247
 Red. masses --      2.2209                 3.2269                 2.6016
 Frc consts  --      0.1700                 0.2944                 0.3074
 IR Inten    --      1.9745                 2.6220                 1.2494

                     10                     11                     12
                      A                      A                      A
 Frequencies --    517.8255               626.2874               698.0812
 Red. masses --      4.0777                 4.0176                 3.6244
 Frc consts  --      0.6442                 0.9285                 1.0406
 IR Inten    --      4.7156                 0.3116                15.4549

                     13                     14                     15
                      A                      A                      A
 Frequencies --    768.2293               847.9203               861.0692
 Red. masses --      2.3243                 2.4021                 2.5556
 Frc consts  --      0.8082                 1.0175                 1.1164
 IR Inten    --      1.6185                23.3380                19.8548

                     16                     17                     18
                      A                      A                      A
 Frequencies --    881.7585               937.3889               956.0722
 Red. masses --      2.5053                 1.5821                 1.5685
 Frc consts  --      1.1477                 0.8191                 0.8447
 IR Inten    --      0.9732                 5.3095                 2.7780

                     19                     20                     21
                      A                      A                      A
 Frequencies --    998.5914              1024.9308              1034.4897
 Red. masses --      2.5106                 2.1270                 3.0030
 Frc consts  --      1.4750                 1.3164                 1.8934
 IR Inten    --     26.8547                33.2439                29.9634

                     22                     23                     24
                      A                      A                      A
 Frequencies --   1073.3711              1112.3005              1120.1010
 Red. masses --      2.2373                 2.2038                 2.4462
 Frc consts  --      1.5187                 1.6065                 1.8083
 IR Inten    --     10.3249                 3.6777                19.5536

                     25                     26                     27
                      A                      A                      A
 Frequencies --   1157.5830              1169.3608              1193.2788
 Red. masses --      1.4738                 2.0204                 1.5004
 Frc consts  --      1.1636                 1.6277                 1.2588
 IR Inten    --      5.4371                 1.5697                 8.6050

                     28                     29                     30
                      A                      A                      A
 Frequencies --   1208.3305              1246.1989              1265.1650
 Red. masses --      2.1199                 1.8696                 1.5187
 Frc consts  --      1.8237                 1.7107                 1.4322
 IR Inten    --      4.8492                19.2771                 8.0697

                     31                     32                     33
                      A                      A                      A
 Frequencies --   1295.8059              1326.7906              1357.3211
 Red. masses --      1.3992                 1.5837                 1.3717
 Frc consts  --      1.3843                 1.6425                 1.4889
 IR Inten    --      4.1008                10.4765                 9.9421

                     34                     35                     36
                      A                      A                      A
 Frequencies --   1387.6676              1412.9531              1427.8189
 Red. masses --      1.5248                 1.2658                 1.2427
 Frc consts  --      1.7300                 1.4889                 1.4927
 IR Inten    --      6.7118                 2.1308                 6.7222

                     37                     38                     39
                      A                      A                      A
 Frequencies --   1465.3757              1494.3525              1497.4658
 Red. masses --      1.1089                 1.0458                 1.0543
 Frc consts  --      1.4030                 1.3759                 1.3929
 IR Inten    --      1.5392                 4.5248                 2.1933

                     40                     41                     42
                      A                      A                      A
 Frequencies --   1525.5464              1809.7702              2857.1993
 Red. masses --      1.0896                10.8207                 1.0821
 Frc consts  --      1.4940                20.8811                 5.2049
 IR Inten    --      2.8579               173.3314               116.0147

                     43                     44                     45
                      A                      A                      A
 Frequencies --   3001.8880              3030.8278              3060.9125
 Red. masses --      1.0630                 1.0356                 1.0606
 Frc consts  --      5.6438                 5.6048                 5.8547
 IR Inten    --     69.0054                19.2807                21.2080

                     46                     47                     48
                      A                      A                      A
 Frequencies --   3066.3031              3075.2297              3076.3971
 Red. masses --      1.1009                 1.0867                 1.0872
 Frc consts  --      6.0985                 6.0550                 6.0625
 IR Inten    --     41.0679                19.6679                23.8347

                     49                     50                     51
                      A                      A                      A
 Frequencies --   3098.7193              3102.6765              3121.8502
 Red. masses --      1.1009                 1.1003                 1.1068
 Frc consts  --      6.2284                 6.2406                 6.3557
 IR Inten    --     20.7389                23.0371                22.5161

 - Thermochemistry -
 -------------------
 Temperature   298.150 Kelvin.  Pressure   1.00000 Atm.
 Atom     1 has atomic number  6 and mass  12.00000

 Molecular mass:   126.06808 amu.
 Principal axes and moments of inertia in atomic units:
                           1         2         3
     Eigenvalues --   864.860391104.835191421.51272
           X            0.99127   0.13164   0.00792
           Y           -0.13152   0.99122  -0.01330
           Z           -0.00961   0.01215   0.99988
 This molecule is an asymmetric top.
 Rotational symmetry number  1.
 Warning -- assumption of classical behavior for rotation
           may cause significant error
 Rotational temperatures (Kelvin)      0.10015     0.07840     0.06093
 Rotational constants (GHZ):           2.08674     1.63349     1.26959
 Zero-point vibrational energy     415477.5 (Joules/Mol)
                                   99.30150 (Kcal/Mol)
 Warning -- explicit consideration of  10 degrees of freedom as
           vibrations may cause significant error
 Vibrational temperatures:     88.33   130.54   249.22   316.98   351.51
          (Kelvin)            402.09   518.57   566.20   644.32   745.03
                              901.09  1004.38  1105.31  1219.97  1238.88
                             1268.65  1348.69  1375.57  1436.75  1474.65
                             1488.40  1544.34  1600.35  1611.57  1665.50
                             1682.45  1716.86  1738.52  1793.00  1820.29
                             1864.37  1908.95  1952.88  1996.54  2032.92
                             2054.31  2108.35  2150.04  2154.52  2194.92
                             2603.85  4110.87  4319.04  4360.68  4403.96
                             4411.72  4424.56  4426.24  4458.36  4464.05
                             4491.64

 Zero-point correction=                           0.158247 (Hartree/Particle)
 Thermal correction to Energy=                    0.166834
 Thermal correction to Enthalpy=                  0.167778
 Thermal correction to Gibbs Free Energy=         0.124595
 Sum of electronic and zero-point Energies=           -423.002860
 Sum of electronic and thermal Energies=              -422.994273
 Sum of electronic and thermal Enthalpies=            -422.993329
 Sum of electronic and thermal Free Energies=         -423.036512

                     E (Thermal)             CV                S
                      KCal/Mol        Cal/Mol-Kelvin    Cal/Mol-Kelvin
 Total                  104.690             31.887             90.886
 Electronic               0.000              0.000              0.000
 Translational            0.889              2.981             40.409
 Rotational               0.889              2.981             28.698
 Vibrational            102.912             25.925             21.780
 Vibration     1          0.597              1.973              4.412
 Vibration     2          0.602              1.956              3.644
 Vibration     3          0.627              1.875              2.400
 Vibration     4          0.647              1.810              1.957
 Vibration     5          0.660              1.772              1.771
 Vibration     6          0.680              1.712              1.537
 Vibration     7          0.735              1.554              1.120
 Vibration     8          0.761              1.484              0.987
 Vibration     9          0.807              1.366              0.802
 Vibration    10          0.873              1.211              0.615

 Optimization completed.
    -- Stationary point found.
 Normal termination of Gaussian 09 at Tue Jan 28 04:36:33 2020.
