 Gaussian 09, Revision D.01,
 Gaussian 09:  ES64L-G09RevD.01 24-Apr-2013

 -----------------------------
 # b3lyp 6-31G(2df,p) opt Freq
 -----------------------------

 -----
 titel
 -----
 Symbolic Z-matrix:
 Charge =  0 Multiplicity = 1

 SCF Done:  E(RB3LYP) =  -423.164108701     A.U. after   13 cycles
 Optimization completed.
    -- Stationary point found.
 Normal termination of Gaussian 09 at Tue Jan 28 02:18:56 2020.

 ----------------------------------------------------------------------
 #N Geom=AllCheck Guess=TCheck SCRF=Check GenChk RB3LYP/6-31G(2df,p) Fr
 eq
 ----------------------------------------------------------------------

 Structure from the checkpoint file:  "/scratch/puck/g09_a80ce1b4-0e6f-440d-9f69-35035a99722a/Gau-194259.chk"
 -----
 titel
 -----
 Charge =  0 Multiplicity = 1

                         Standard orientation:
 ---------------------------------------------------------------------
 Center     Atomic      Atomic             Coordinates (Angstroms)
 Number     Number       Type             X           Y           Z
 ---------------------------------------------------------------------
      1          8           0        3.066005   -0.900524   -0.312761
      2          6           0        2.006678   -0.012579   -0.506519
      3          6           0        1.887778    1.214207    0.356327
      4          6           0        0.968870    0.030447    0.589288
      5          6           0       -0.470258    0.063709    0.265333
      6          6           0       -1.248868    1.083263   -0.092766
      7          6           0       -2.649571    0.605019   -0.344074
      8          8           0       -2.620022   -0.796773   -0.085834
      9          6           0       -1.306835   -1.194438    0.287016
     10          1           0        3.861170   -0.500824   -0.681267
     11          1           0        1.635911    0.058421   -1.528996
     12          1           0        2.666246    1.375870    1.093609
     13          1           0        1.475890    2.116454   -0.081927
     14          1           0        1.236385   -0.594260    1.438228
     15          1           0       -0.954995    2.120887   -0.187735
     16          1           0       -3.385262    1.091361    0.316951
     17          1           0       -2.981139    0.786994   -1.379606
     18          1           0       -1.322424   -1.659859    1.286335
     19          1           0       -0.926404   -1.954430   -0.414461
 ---------------------------------------------------------------------

 SCF Done:  E(RB3LYP) =  -423.164108701     A.U. after    1 cycles

 The electronic state is 1-A.
 Alpha  occ. eigenvalues --  -19.14717 -19.12788 -10.24178 -10.22553 -10.22419
 Alpha  occ. eigenvalues --  -10.19930 -10.19039 -10.19037 -10.17916  -1.03278
 Alpha  occ. eigenvalues --   -1.02655  -0.86010  -0.78052  -0.73205  -0.62508
 Alpha  occ. eigenvalues --   -0.61025  -0.59614  -0.54308  -0.52748  -0.50246
 Alpha  occ. eigenvalues --   -0.47133  -0.45043  -0.43660  -0.41948  -0.40503
 Alpha  occ. eigenvalues --   -0.38931  -0.37774  -0.35729  -0.33978  -0.31271
 Alpha  occ. eigenvalues --   -0.30398  -0.26489  -0.25540  -0.22312
 Alpha virt. eigenvalues --    0.01931   0.08038   0.10251   0.10688   0.11872
 Alpha virt. eigenvalues --    0.12036   0.13299   0.14761   0.15447   0.18001
 Alpha virt. eigenvalues --    0.18225   0.18507   0.20169   0.21291   0.24094

 Mulliken charges:
               1
     1  O   -0.421881
     2  C    0.108767
     3  C   -0.333691
     4  C   -0.141135
     5  C    0.307997
     6  C   -0.228989
     7  C   -0.100172
     8  O   -0.266054
     9  C   -0.148983
    10  H    0.288970
    11  H    0.093011
    12  H    0.117064
    13  H    0.115324
    14  H    0.102617
    15  H    0.095781
    16  H    0.102709
    17  H    0.101098
    18  H    0.101195
    19  H    0.106372
 Sum of Mulliken charges =   0.00000

 Dipole moment (field-independent basis, Debye):
    X=              2.0218    Y=              2.0398    Z=             -0.4659  Tot=              2.9096
 Quadrupole moment (field-independent basis, Debye-Ang):
   XX=            -52.3042   YY=            -53.5760   ZZ=            -51.9438
   XY=             -0.4354   XZ=             -1.8110   YZ=             -1.3747

  Exact polarizability:  98.837  -7.839  77.646   3.315  -3.722  60.599
 Approx polarizability: 127.435 -16.864 122.334   5.466  -8.513  93.145

                      1                      2                      3
                      A                      A                      A
 Frequencies --     46.6037                97.4859               122.4248
 Red. masses --      3.2810                 4.1252                 2.6350
 Frc consts  --      0.0042                 0.0231                 0.0233
 IR Inten    --      0.3667                 1.6780                 4.7882

                      4                      5                      6
                      A                      A                      A
 Frequencies --    155.4961               274.8145               309.6349
 Red. masses --      3.2263                 1.4921                 2.0370
 Frc consts  --      0.0460                 0.0664                 0.1151
 IR Inten    --      1.2820                56.5108                33.5166

                      7                      8                      9
                      A                      A                      A
 Frequencies --    336.9923               370.1323               442.6674
 Red. masses --      2.8920                 3.6409                 2.7228
 Frc consts  --      0.1935                 0.2939                 0.3144
 IR Inten    --     16.1963                10.9526                 5.9265

                     10                     11                     12
                      A                      A                      A
 Frequencies --    508.3832               649.0690               773.5104
 Red. masses --      2.2936                 2.4708                 6.9648
 Frc consts  --      0.3493                 0.6133                 2.4552
 IR Inten    --      3.3225                 8.5915                 6.1562

                     13                     14                     15
                      A                      A                      A
 Frequencies --    813.6449               816.8140               879.7184
 Red. masses --      2.0123                 1.3988                 2.4089
 Frc consts  --      0.7849                 0.5499                 1.0984
 IR Inten    --      2.9426                 6.1423                 4.0149

                     16                     17                     18
                      A                      A                      A
 Frequencies --    916.0134               926.3954               938.0791
 Red. masses --      3.4748                 3.3214                 2.2371
 Frc consts  --      1.7179                 1.6795                 1.1599
 IR Inten    --     57.5301                 5.3939                 2.6328

                     19                     20                     21
                      A                      A                      A
 Frequencies --    985.6039               992.8123              1025.3863
 Red. masses --      2.2559                 2.1376                 1.5868
 Frc consts  --      1.2911                 1.2414                 0.9830
 IR Inten    --      6.7263                 9.8184                12.9599

                     22                     23                     24
                      A                      A                      A
 Frequencies --   1057.8199              1063.1707              1094.6470
 Red. masses --      1.4266                 1.6678                 1.1492
 Frc consts  --      0.9406                 1.1107                 0.8113
 IR Inten    --      4.1204                 3.4343                 2.2554

                     25                     26                     27
                      A                      A                      A
 Frequencies --   1108.4097              1116.6592              1164.4983
 Red. masses --      1.9935                 2.5619                 2.2424
 Frc consts  --      1.4430                 1.8822                 1.7916
 IR Inten    --      1.7938                86.7006                 3.5908

                     28                     29                     30
                      A                      A                      A
 Frequencies --   1173.7014              1205.0595              1222.4551
 Red. masses --      1.2066                 2.6482                 1.2234
 Frc consts  --      0.9793                 2.2658                 1.0772
 IR Inten    --      3.4086                60.0264                12.2522

                     31                     32                     33
                      A                      A                      A
 Frequencies --   1224.9688              1279.7385              1294.0101
 Red. masses --      1.3779                 1.6435                 1.2059
 Frc consts  --      1.2182                 1.5859                 1.1897
 IR Inten    --     16.3259                 0.7419                55.9236

                     34                     35                     36
                      A                      A                      A
 Frequencies --   1349.2804              1382.8835              1395.6094
 Red. masses --      1.3635                 1.6476                 1.4978
 Frc consts  --      1.4626                 1.8564                 1.7188
 IR Inten    --      3.1445                 2.3110                12.4709

                     37                     38                     39
                      A                      A                      A
 Frequencies --   1432.8287              1487.6265              1517.4813
 Red. masses --      1.3898                 1.7556                 1.0848
 Frc consts  --      1.6810                 2.2891                 1.4718
 IR Inten    --      8.6036                20.9991                 2.3372

                     40                     41                     42
                      A                      A                      A
 Frequencies --   1530.3981              1726.6577              2961.4580
 Red. masses --      1.0877                 7.4992                 1.0552
 Frc consts  --      1.5009                13.1727                 5.4524
 IR Inten    --      0.6298                 9.3965               160.3505

                     43                     44                     45
                      A                      A                      A
 Frequencies --   2969.1303              2977.9088              2983.0551
 Red. masses --      1.0599                 1.1025                 1.1047
 Frc consts  --      5.5052                 5.7605                 5.7919
 IR Inten    --     13.4580                32.5655                69.4955

                     46                     47                     48
                      A                      A                      A
 Frequencies --   3104.3672              3136.2403              3139.7547
 Red. masses --      1.0875                 1.0550                 1.0859
 Frc consts  --      6.1746                 6.1140                 6.3074
 IR Inten    --     24.1841                 8.7033                 8.1189

                     49                     50                     51
                      A                      A                      A
 Frequencies --   3214.6223              3226.6547              3800.5600
 Red. masses --      1.0950                 1.1164                 1.0661
 Frc consts  --      6.6667                 6.8480                 9.0730
 IR Inten    --      7.8357                 7.3523                22.6001

 - Thermochemistry -
 -------------------
 Temperature   298.150 Kelvin.  Pressure   1.00000 Atm.
 Atom     1 has atomic number  8 and mass  15.99491

 Molecular mass:   126.06808 amu.
 Principal axes and moments of inertia in atomic units:
                           1         2         3
     Eigenvalues --   429.423832017.863142277.43857
           X            1.00000   0.00048   0.00256
           Y           -0.00042   0.99972  -0.02370
           Z           -0.00257   0.02369   0.99972
 This molecule is an asymmetric top.
 Rotational symmetry number  1.
 Rotational temperatures (Kelvin)      0.20170     0.04292     0.03803
 Rotational constants (GHZ):           4.20270     0.89438     0.79244
 Zero-point vibrational energy     417038.2 (Joules/Mol)
                                   99.67451 (Kcal/Mol)
 Warning -- explicit consideration of  10 degrees of freedom as
           vibrations may cause significant error
 Vibrational temperatures:     67.05   140.26   176.14   223.72   395.40
          (Kelvin)            445.49   484.86   532.54   636.90   731.45
                              933.86  1112.91  1170.65  1175.21  1265.72
                             1317.94  1332.87  1349.68  1418.06  1428.43
                             1475.30  1521.97  1529.66  1574.95  1594.75
                             1606.62  1675.45  1688.69  1733.81  1758.84
                             1762.45  1841.26  1861.79  1941.31  1989.66
                             2007.97  2061.52  2140.36  2183.31  2201.90
                             2484.27  4260.87  4271.91  4284.54  4291.95
                             4466.49  4512.34  4517.40  4625.12  4642.43
                             5468.15

 Zero-point correction=                           0.158841 (Hartree/Particle)
 Thermal correction to Energy=                    0.167618
 Thermal correction to Enthalpy=                  0.168562
 Thermal correction to Gibbs Free Energy=         0.124467
 Sum of electronic and zero-point Energies=           -423.005267
 Sum of electronic and thermal Energies=              -422.996491
 Sum of electronic and thermal Enthalpies=            -422.995547
 Sum of electronic and thermal Free Energies=         -423.039642

                     E (Thermal)             CV                S
                      KCal/Mol        Cal/Mol-Kelvin    Cal/Mol-Kelvin
 Total                  105.182             32.253             92.806
 Electronic               0.000              0.000              0.000
 Translational            0.889              2.981             40.409
 Rotational               0.889              2.981             29.069
 Vibrational            103.404             26.291             23.328
 Vibration     1          0.595              1.979              4.957
 Vibration     2          0.603              1.951              3.504
 Vibration     3          0.610              1.930              3.062
 Vibration     4          0.620              1.897              2.604
 Vibration     5          0.677              1.720              1.566
 Vibration     6          0.699              1.655              1.364
 Vibration     7          0.718              1.602              1.226
 Vibration     8          0.742              1.534              1.079
 Vibration     9          0.802              1.377              0.818
 Vibration    10          0.864              1.231              0.637

 Optimization completed.
    -- Stationary point found.
 Normal termination of Gaussian 09 at Tue Jan 28 02:56:38 2020.
