 Gaussian 09, Revision D.01,
 Gaussian 09:  ES64L-G09RevD.01 24-Apr-2013

 -----------------------------
 # b3lyp 6-31G(2df,p) opt Freq
 -----------------------------

 -----
 titel
 -----
 Symbolic Z-matrix:
 Charge =  0 Multiplicity = 1

 SCF Done:  E(RB3LYP) =  -423.206889023     A.U. after   14 cycles
 Optimization completed.
    -- Stationary point found.
 Normal termination of Gaussian 09 at Mon Jan 27 22:08:03 2020.

 ----------------------------------------------------------------------
 #N Geom=AllCheck Guess=TCheck SCRF=Check GenChk RB3LYP/6-31G(2df,p) Fr
 eq
 ----------------------------------------------------------------------

 Structure from the checkpoint file:  "/scratch/puck/g09_dda1e50c-bb27-4563-92b1-dbe3f0f7814e/Gau-51240.chk"
 -----
 titel
 -----
 Charge =  0 Multiplicity = 1

                         Standard orientation:
 ---------------------------------------------------------------------
 Center     Atomic      Atomic             Coordinates (Angstroms)
 Number     Number       Type             X           Y           Z
 ---------------------------------------------------------------------
      1          6           0       -0.768901    1.993993    0.451796
      2          6           0       -0.675692    0.491712    0.683727
      3          6           0       -1.556453   -0.464142   -0.128124
      4          8           0       -2.655535   -0.373887   -0.592827
      5          6           0       -0.426559   -1.493715   -0.256151
      6          6           0        0.575606   -0.380147    0.229435
      7          6           0        1.573396   -0.751095    1.315928
      8          6           0        1.251163    0.239727   -0.972006
      9          8           0        2.422236    0.512603   -1.039129
     10          1           0       -0.002194    2.529446    1.020014
     11          1           0       -0.653587    2.253872   -0.604064
     12          1           0       -1.748161    2.358889    0.774598
     13          1           0       -0.838789    0.267835    1.746966
     14          1           0       -0.517908   -2.301065    0.477072
     15          1           0       -0.277133   -1.933560   -1.245814
     16          1           0        2.115409    0.132100    1.665222
     17          1           0        1.062604   -1.206084    2.170347
     18          1           0        2.317773   -1.459111    0.940613
     19          1           0        0.573008    0.429946   -1.836935
 ---------------------------------------------------------------------

 SCF Done:  E(RB3LYP) =  -423.206889023     A.U. after    1 cycles

 The electronic state is 1-A.
 Alpha  occ. eigenvalues --  -19.14812 -19.14675 -10.27904 -10.27736 -10.22133
 Alpha  occ. eigenvalues --  -10.21440 -10.20816 -10.19473 -10.18848  -1.05633
 Alpha  occ. eigenvalues --   -1.05468  -0.87591  -0.75782  -0.73382  -0.66433
 Alpha  occ. eigenvalues --   -0.65015  -0.55388  -0.52905  -0.49204  -0.47567
 Alpha  occ. eigenvalues --   -0.47237  -0.44782  -0.44423  -0.42759  -0.41373
 Alpha  occ. eigenvalues --   -0.39869  -0.39123  -0.38809  -0.38272  -0.35973
 Alpha  occ. eigenvalues --   -0.34667  -0.32357  -0.25868  -0.25153
 Alpha virt. eigenvalues --   -0.03358  -0.02759   0.07659   0.10574   0.11001
 Alpha virt. eigenvalues --    0.11668   0.12978   0.14082   0.14984   0.15193
 Alpha virt. eigenvalues --    0.16877   0.17381   0.18166   0.20344   0.22065

 Mulliken charges:
               1
     1  C   -0.422144
     2  C   -0.123175
     3  C    0.393429
     4  O   -0.293987
     5  C   -0.395058
     6  C    0.168651
     7  C   -0.465265
     8  C    0.140012
     9  O   -0.258118
    10  H    0.131698
    11  H    0.130727
    12  H    0.140621
    13  H    0.113528
    14  H    0.139019
    15  H    0.137316
    16  H    0.136422
    17  H    0.110141
    18  H    0.134059
    19  H    0.082125
 Sum of Mulliken charges =   0.00000

 Dipole moment (field-independent basis, Debye):
    X=              0.0747    Y=             -0.6294    Z=              1.8308  Tot=              1.9374
 Quadrupole moment (field-independent basis, Debye-Ang):
   XX=            -69.5116   YY=            -50.2335   ZZ=            -51.9657
   XY=             -3.0920   XZ=             -0.1942   YZ=              0.6239

  Exact polarizability:  86.646  -0.661  73.694   2.727   0.452  68.854
 Approx polarizability: 135.208   2.495 103.156   4.625   0.218 103.337

                      1                      2                      3
                      A                      A                      A
 Frequencies --     56.7573                84.6069               159.0916
 Red. masses --      5.2177                 4.7036                 1.0369
 Frc consts  --      0.0099                 0.0198                 0.0155
 IR Inten    --      5.7749                 5.0320                 0.1937

                      4                      5                      6
                      A                      A                      A
 Frequencies --    176.4428               196.2301               226.6644
 Red. masses --      2.3271                 1.2071                 2.7751
 Frc consts  --      0.0427                 0.0274                 0.0840
 IR Inten    --      1.0295                 0.5809                 2.9003

                      7                      8                      9
                      A                      A                      A
 Frequencies --    267.6157               286.2319               364.6693
 Red. masses --      3.0082                 2.6884                 2.4215
 Frc consts  --      0.1269                 0.1298                 0.1897
 IR Inten    --      3.8442                 1.2166                 0.0534

                     10                     11                     12
                      A                      A                      A
 Frequencies --    386.1457               453.0488               498.4046
 Red. masses --      2.9212                 3.9774                 2.7992
 Frc consts  --      0.2566                 0.4810                 0.4097
 IR Inten    --      0.4764                 2.4412                 5.2929

                     13                     14                     15
                      A                      A                      A
 Frequencies --    572.1699               691.2172               729.1211
 Red. masses --      2.7399                 3.6592                 2.9182
 Frc consts  --      0.5285                 1.0301                 0.9140
 IR Inten    --      1.2702                 0.8508                 1.2998

                     16                     17                     18
                      A                      A                      A
 Frequencies --    759.3225               829.0454               832.4534
 Red. masses --      2.8637                 3.1860                 1.9428
 Frc consts  --      0.9728                 1.2902                 0.7932
 IR Inten    --      4.4888                 8.5772                19.0970

                     19                     20                     21
                      A                      A                      A
 Frequencies --    929.5689               989.7392              1013.6602
 Red. masses --      1.6618                 1.2365                 1.3604
 Frc consts  --      0.8461                 0.7137                 0.8236
 IR Inten    --     11.8980                 0.8998                 4.8033

                     22                     23                     24
                      A                      A                      A
 Frequencies --   1039.3503              1062.2638              1108.9268
 Red. masses --      3.7315                 1.4682                 2.0269
 Frc consts  --      2.3750                 0.9761                 1.4685
 IR Inten    --     37.2909                 4.1304                 6.8292

                     25                     26                     27
                      A                      A                      A
 Frequencies --   1131.7848              1144.8408              1177.9727
 Red. masses --      2.1127                 2.0368                 2.0848
 Frc consts  --      1.5944                 1.5729                 1.7045
 IR Inten    --      4.4787                 6.5345                 2.7120

                     28                     29                     30
                      A                      A                      A
 Frequencies --   1209.8972              1231.3832              1302.5618
 Red. masses --      2.0754                 2.0311                 2.0937
 Frc consts  --      1.7900                 1.8145                 2.0929
 IR Inten    --     16.0739                 1.5205                 9.1908

                     31                     32                     33
                      A                      A                      A
 Frequencies --   1347.1506              1408.2145              1411.5754
 Red. masses --      1.9343                 1.2149                 1.2153
 Frc consts  --      2.0682                 1.4195                 1.4267
 IR Inten    --      5.5525                 3.0144                 0.7939

                     34                     35                     36
                      A                      A                      A
 Frequencies --   1435.2878              1440.2957              1483.6145
 Red. masses --      1.1821                 1.1478                 1.0453
 Frc consts  --      1.4348                 1.4029                 1.3556
 IR Inten    --      6.3726                 9.1195                 3.0605

                     37                     38                     39
                      A                      A                      A
 Frequencies --   1492.0845              1492.5625              1494.5309
 Red. masses --      1.0530                 1.0479                 1.0505
 Frc consts  --      1.3813                 1.3754                 1.3825
 IR Inten    --     11.4217                 1.3755                 5.2058

                     40                     41                     42
                      A                      A                      A
 Frequencies --   1826.2653              1890.5580              2854.0816
 Red. masses --     10.6863                12.6264                 1.0819
 Frc consts  --     20.9994                26.5895                 5.1923
 IR Inten    --    182.3013               255.7892                88.2020

                     43                     44                     45
                      A                      A                      A
 Frequencies --   3020.4460              3040.6117              3043.5674
 Red. masses --      1.0816                 1.0361                 1.0351
 Frc consts  --      5.8139                 5.6438                 5.6492
 IR Inten    --      6.2823                17.4502                15.0849

                     46                     47                     48
                      A                      A                      A
 Frequencies --   3059.3594              3111.4980              3113.8583
 Red. masses --      1.0588                 1.1018                 1.1020
 Frc consts  --      5.8390                 6.2846                 6.2957
 IR Inten    --      5.4030                14.0142                10.9283

                     49                     50                     51
                      A                      A                      A
 Frequencies --   3115.8173              3117.7241              3118.4830
 Red. masses --      1.1054                 1.1015                 1.1014
 Frc consts  --      6.3226                 6.3085                 6.3105
 IR Inten    --      8.2793                19.1259                10.3785

 - Thermochemistry -
 -------------------
 Temperature   298.150 Kelvin.  Pressure   1.00000 Atm.
 Atom     1 has atomic number  6 and mass  12.00000

 Molecular mass:   126.06808 amu.
 Principal axes and moments of inertia in atomic units:
                           1         2         3
     Eigenvalues --   744.693181437.040311588.12274
           X            0.99892  -0.04213   0.01968
           Y            0.04207   0.99911   0.00337
           Z           -0.01980  -0.00254   0.99980
 This molecule is an asymmetric top.
 Rotational symmetry number  1.
 Warning -- assumption of classical behavior for rotation
           may cause significant error
 Rotational temperatures (Kelvin)      0.11631     0.06027     0.05454
 Rotational constants (GHZ):           2.42347     1.25587     1.13640
 Zero-point vibrational energy     408098.7 (Joules/Mol)
                                   97.53793 (Kcal/Mol)
 Warning -- explicit consideration of  13 degrees of freedom as
           vibrations may cause significant error
 Vibrational temperatures:     81.66   121.73   228.90   253.86   282.33
          (Kelvin)            326.12   385.04   411.82   524.68   555.58
                              651.84   717.09   823.22   994.51  1049.04
                             1092.49  1192.81  1197.71  1337.44  1424.01
                             1458.43  1495.39  1528.36  1595.50  1628.38
                             1647.17  1694.84  1740.77  1771.68  1874.09
                             1938.25  2026.10  2030.94  2065.06  2072.26
                             2134.59  2146.77  2147.46  2150.29  2627.59
                             2720.09  4106.38  4345.74  4374.76  4379.01
                             4401.73  4476.75  4480.14  4482.96  4485.70
                             4486.80

 Zero-point correction=                           0.155437 (Hartree/Particle)
 Thermal correction to Energy=                    0.165215
 Thermal correction to Enthalpy=                  0.166159
 Thermal correction to Gibbs Free Energy=         0.120561
 Sum of electronic and zero-point Energies=           -423.051452
 Sum of electronic and thermal Energies=              -423.041674
 Sum of electronic and thermal Enthalpies=            -423.040730
 Sum of electronic and thermal Free Energies=         -423.086328

                     E (Thermal)             CV                S
                      KCal/Mol        Cal/Mol-Kelvin    Cal/Mol-Kelvin
 Total                  103.674             35.277             95.970
 Electronic               0.000              0.000              0.000
 Translational            0.889              2.981             40.409
 Rotational               0.889              2.981             28.921
 Vibrational            101.897             29.315             26.641
 Vibration     1          0.596              1.975              4.567
 Vibration     2          0.601              1.960              3.781
 Vibration     3          0.621              1.892              2.561
 Vibration     4          0.628              1.871              2.366
 Vibration     5          0.636              1.845              2.168
 Vibration     6          0.650              1.800              1.905
 Vibration     7          0.673              1.733              1.612
 Vibration     8          0.684              1.699              1.496
 Vibration     9          0.738              1.545              1.102
 Vibration    10          0.755              1.500              1.015
 Vibration    11          0.812              1.354              0.787
 Vibration    12          0.854              1.254              0.662
 Vibration    13          0.928              1.091              0.500

 Normal termination of Gaussian 09 at Mon Jan 27 23:49:05 2020.
