 Gaussian 09, Revision D.01,
 Gaussian 09:  ES64L-G09RevD.01 24-Apr-2013

 -----------------------------
 # b3lyp 6-31G(2df,p) opt Freq
 -----------------------------

 -----
 titel
 -----
 Symbolic Z-matrix:
 Charge =  0 Multiplicity = 1

 SCF Done:  E(RB3LYP) =  -423.116394118     A.U. after   14 cycles
 Optimization completed.
    -- Stationary point found.
 Normal termination of Gaussian 09 at Tue Jan 28 13:27:09 2020.

 ----------------------------------------------------------------------
 #N Geom=AllCheck Guess=TCheck SCRF=Check GenChk RB3LYP/6-31G(2df,p) Fr
 eq
 ----------------------------------------------------------------------

 Structure from the checkpoint file:  "/scratch/puck/g09_df927cf2-8f01-41ff-a0d9-2e360d13aef7/Gau-108950.chk"
 -----
 titel
 -----
 Charge =  0 Multiplicity = 1

                         Standard orientation:
 ---------------------------------------------------------------------
 Center     Atomic      Atomic             Coordinates (Angstroms)
 Number     Number       Type             X           Y           Z
 ---------------------------------------------------------------------
      1          6           0       -1.327007    2.080415   -0.349426
      2          8           0       -1.710882    0.890654    0.320093
      3          6           0       -1.310246   -0.261277   -0.350061
      4          6           0       -1.311543   -1.534174    0.452687
      5          6           0       -0.002532   -0.950846   -0.002028
      6          8           0        0.634652   -1.679666   -1.010178
      7          6           0        0.930010   -0.323402    1.028618
      8          6           0        1.970130    0.476265    0.385156
      9          6           0        2.813301    1.103399   -0.201141
     10          1           0       -1.777326    2.135529   -1.351771
     11          1           0       -1.694876    2.916736    0.249398
     12          1           0       -0.236286    2.156817   -0.450460
     13          1           0       -1.619203   -0.323892   -1.394720
     14          1           0       -1.564981   -1.445209    1.503666
     15          1           0       -1.644583   -2.443164   -0.034035
     16          1           0        1.267098   -1.084927   -1.434147
     17          1           0        0.341521    0.301160    1.708322
     18          1           0        1.397408   -1.115051    1.627284
     19          1           0        3.568390    1.671814   -0.685687
 ---------------------------------------------------------------------

 SCF Done:  E(RB3LYP) =  -423.116394118     A.U. after    1 cycles

 The electronic state is 1-A.
 Alpha  occ. eigenvalues --  -19.14875 -19.14184 -10.24303 -10.23144 -10.22446
 Alpha  occ. eigenvalues --  -10.21177 -10.19219 -10.18342 -10.18139  -1.04432
 Alpha  occ. eigenvalues --   -1.02716  -0.84667  -0.78544  -0.71300  -0.68850
 Alpha  occ. eigenvalues --   -0.59570  -0.57927  -0.54026  -0.52308  -0.49829
 Alpha  occ. eigenvalues --   -0.47103  -0.46275  -0.45357  -0.42872  -0.42300
 Alpha  occ. eigenvalues --   -0.39242  -0.37831  -0.34908  -0.32162  -0.30164
 Alpha  occ. eigenvalues --   -0.28996  -0.27432  -0.27086  -0.22789
 Alpha virt. eigenvalues --    0.04168   0.04969   0.08872   0.09695   0.11873
 Alpha virt. eigenvalues --    0.12494   0.13017   0.13902   0.14492   0.16189
 Alpha virt. eigenvalues --    0.16893   0.17692   0.18962   0.19451   0.22753

 Mulliken charges:
               1
     1  C   -0.247192
     2  O   -0.233454
     3  C    0.058289
     4  C   -0.371844
     5  C    0.356845
     6  O   -0.460245
     7  C   -0.406059
     8  C    0.282461
     9  C   -0.450226
    10  H    0.108816
    11  H    0.127059
    12  H    0.123482
    13  H    0.089461
    14  H    0.124465
    15  H    0.127379
    16  H    0.284492
    17  H    0.147044
    18  H    0.138356
    19  H    0.200872
 Sum of Mulliken charges =   0.00000

 Dipole moment (field-independent basis, Debye):
    X=              0.5889    Y=              1.2739    Z=             -0.4350  Tot=              1.4694
 Quadrupole moment (field-independent basis, Debye-Ang):
   XX=            -52.7428   YY=            -53.2559   ZZ=            -50.9003
   XY=              2.5984   XZ=             -0.8886   YZ=             -3.7423

  Exact polarizability:  86.008   9.405  80.200  -6.011  -5.963  66.630
 Approx polarizability: 120.369  16.660 112.721 -17.033 -11.530 104.656

                      1                      2                      3
                      A                      A                      A
 Frequencies --     74.5966               112.1880               134.7956
 Red. masses --      4.2005                 3.1333                 3.2330
 Frc consts  --      0.0138                 0.0232                 0.0346
 IR Inten    --      0.3287                 2.0303                 1.4718

                      4                      5                      6
                      A                      A                      A
 Frequencies --    177.5815               181.4122               237.9784
 Red. masses --      3.8615                 1.3212                 2.2280
 Frc consts  --      0.0717                 0.0256                 0.0743
 IR Inten    --      0.7232                 0.6146                 4.9274

                      7                      8                      9
                      A                      A                      A
 Frequencies --    331.5308               350.3033               358.5154
 Red. masses --      2.8513                 2.9744                 1.9727
 Frc consts  --      0.1846                 0.2150                 0.1494
 IR Inten    --      0.3171                 3.1658                27.4081

                     10                     11                     12
                      A                      A                      A
 Frequencies --    399.0245               425.3620               452.3651
 Red. masses --      2.0428                 2.3714                 2.7283
 Frc consts  --      0.1916                 0.2528                 0.3289
 IR Inten    --     39.0050                71.8355                 3.0595

                     13                     14                     15
                      A                      A                      A
 Frequencies --    514.5103               548.0366               622.0365
 Red. masses --      3.5083                 3.9287                 1.2085
 Frc consts  --      0.5472                 0.6952                 0.2755
 IR Inten    --      1.9240                 6.4286                49.0832

                     16                     17                     18
                      A                      A                      A
 Frequencies --    655.4001               781.3458               808.3212
 Red. masses --      1.2400                 4.0707                 1.7980
 Frc consts  --      0.3138                 1.4642                 0.6922
 IR Inten    --     38.8668                 8.6755                 3.7507

                     19                     20                     21
                      A                      A                      A
 Frequencies --    894.2768               906.6801               957.9672
 Red. masses --      2.1033                 1.9198                 2.7883
 Frc consts  --      0.9911                 0.9298                 1.5076
 IR Inten    --      8.0311                 6.7797                10.8124

                     22                     23                     24
                      A                      A                      A
 Frequencies --    975.7790              1018.4103              1049.0140
 Red. masses --      2.6087                 1.7925                 2.9258
 Frc consts  --      1.4635                 1.0954                 1.8969
 IR Inten    --      5.4343                21.6847                 1.5888

                     25                     26                     27
                      A                      A                      A
 Frequencies --   1074.1841              1118.1306              1159.5211
 Red. masses --      1.9623                 1.5475                 2.1771
 Frc consts  --      1.3341                 1.1399                 1.7246
 IR Inten    --     14.4756                38.4473                93.3359

                     28                     29                     30
                      A                      A                      A
 Frequencies --   1187.9305              1200.3612              1246.3270
 Red. masses --      1.2868                 1.4489                 1.8795
 Frc consts  --      1.0699                 1.2301                 1.7202
 IR Inten    --      2.9356                13.5804                66.1542

                     31                     32                     33
                      A                      A                      A
 Frequencies --   1278.1326              1283.8050              1306.9981
 Red. masses --      1.8314                 2.0231                 1.3265
 Frc consts  --      1.7627                 1.9646                 1.3350
 IR Inten    --      2.5784                45.3973                28.8249

                     34                     35                     36
                      A                      A                      A
 Frequencies --   1365.6110              1419.0293              1460.0803
 Red. masses --      1.4914                 1.3302                 1.0928
 Frc consts  --      1.6387                 1.5781                 1.3726
 IR Inten    --     27.0010                23.3909                 9.1857

                     37                     38                     39
                      A                      A                      A
 Frequencies --   1474.2566              1487.2518              1497.0847
 Red. masses --      1.2974                 1.0724                 1.5129
 Frc consts  --      1.6613                 1.3975                 1.9978
 IR Inten    --     13.9088                 3.2254                18.6765

                     40                     41                     42
                      A                      A                      A
 Frequencies --   1512.4496              2228.8614              2989.1450
 Red. masses --      1.0911                 5.9409                 1.0379
 Frc consts  --      1.4706                17.3887                 5.4637
 IR Inten    --      1.9358                 1.7240                54.0639

                     43                     44                     45
                      A                      A                      A
 Frequencies --   3031.8142              3050.2302              3085.3849
 Red. masses --      1.0630                 1.1000                 1.0967
 Frc consts  --      5.7567                 6.0297                 6.1511
 IR Inten    --     13.1780                36.8391                 2.6663

                     46                     47                     48
                      A                      A                      A
 Frequencies --   3093.1549              3121.2401              3139.5564
 Red. masses --      1.0874                 1.0991                 1.0548
 Frc consts  --      6.1298                 6.3090                 6.1257
 IR Inten    --     22.7680                26.0311                 4.6453

                     49                     50                     51
                      A                      A                      A
 Frequencies --   3234.2218              3503.2229              3762.1710
 Red. masses --      1.1173                 1.1614                 1.0653
 Frc consts  --      6.8858                 8.3978                 8.8841
 IR Inten    --      2.3962                68.4815                24.2083

 - Thermochemistry -
 -------------------
 Temperature   298.150 Kelvin.  Pressure   1.00000 Atm.
 Atom     1 has atomic number  6 and mass  12.00000

 Molecular mass:   126.06808 amu.
 Principal axes and moments of inertia in atomic units:
                           1         2         3
     Eigenvalues --   901.485281252.226031777.98010
           X            0.99997   0.00666   0.00248
           Y           -0.00656   0.99925  -0.03813
           Z           -0.00273   0.03811   0.99927
 This molecule is an asymmetric top.
 Rotational symmetry number  1.
 Warning -- assumption of classical behavior for rotation
           may cause significant error
 Rotational temperatures (Kelvin)      0.09608     0.06917     0.04871
 Rotational constants (GHZ):           2.00196     1.44123     1.01505
 Zero-point vibrational energy     408390.7 (Joules/Mol)
                                   97.60771 (Kcal/Mol)
 Warning -- explicit consideration of  14 degrees of freedom as
           vibrations may cause significant error
 Vibrational temperatures:    107.33   161.41   193.94   255.50   261.01
          (Kelvin)            342.40   477.00   504.01   515.82   574.11
                              612.00   650.85   740.26   788.50   894.97
                              942.97  1124.18  1162.99  1286.66  1304.51
                             1378.30  1403.93  1465.26  1509.30  1545.51
                             1608.74  1668.29  1709.16  1727.05  1793.18
                             1838.95  1847.11  1880.48  1964.81  2041.66
                             2100.73  2121.12  2139.82  2153.97  2176.07
                             3206.83  4300.71  4362.10  4388.60  4439.18
                             4450.35  4490.76  4517.12  4653.32  5040.35
                             5412.92

 Zero-point correction=                           0.155548 (Hartree/Particle)
 Thermal correction to Energy=                    0.165487
 Thermal correction to Enthalpy=                  0.166431
 Thermal correction to Gibbs Free Energy=         0.120914
 Sum of electronic and zero-point Energies=           -422.960846
 Sum of electronic and thermal Energies=              -422.950908
 Sum of electronic and thermal Enthalpies=            -422.949963
 Sum of electronic and thermal Free Energies=         -422.995481

                     E (Thermal)             CV                S
                      KCal/Mol        Cal/Mol-Kelvin    Cal/Mol-Kelvin
 Total                  103.844             36.859             95.799
 Electronic               0.000              0.000              0.000
 Translational            0.889              2.981             40.409
 Rotational               0.889              2.981             29.086
 Vibrational            102.067             30.898             26.305
 Vibration     1          0.599              1.966              4.028
 Vibration     2          0.607              1.939              3.231
 Vibration     3          0.613              1.919              2.876
 Vibration     4          0.628              1.870              2.354
 Vibration     5          0.630              1.865              2.314
 Vibration     6          0.656              1.782              1.818
 Vibration     7          0.714              1.613              1.253
 Vibration     8          0.727              1.575              1.165
 Vibration     9          0.733              1.558              1.129
 Vibration    10          0.765              1.472              0.966
 Vibration    11          0.787              1.415              0.874
 Vibration    12          0.811              1.356              0.789
 Vibration    13          0.870              1.218              0.623
 Vibration    14          0.903              1.144              0.548

 Normal termination of Gaussian 09 at Tue Jan 28 14:07:55 2020.
