 Gaussian 09, Revision D.01,
 Gaussian 09:  ES64L-G09RevD.01 24-Apr-2013

 -----------------------------
 # b3lyp 6-31G(2df,p) opt Freq
 -----------------------------

 -----
 titel
 -----
 Symbolic Z-matrix:
 Charge =  0 Multiplicity = 1

 SCF Done:  E(RB3LYP) =  -423.206893423     A.U. after   13 cycles
 Optimization completed.
    -- Stationary point found.
 Normal termination of Gaussian 09 at Mon Jan 27 22:00:54 2020.

 ----------------------------------------------------------------------
 #N Geom=AllCheck Guess=TCheck SCRF=Check GenChk RB3LYP/6-31G(2df,p) Fr
 eq
 ----------------------------------------------------------------------

 Structure from the checkpoint file:  "/scratch/puck/g09_281cce67-539b-4448-afea-06d30eee5da7/Gau-76331.chk"
 -----
 titel
 -----
 Charge =  0 Multiplicity = 1

                         Standard orientation:
 ---------------------------------------------------------------------
 Center     Atomic      Atomic             Coordinates (Angstroms)
 Number     Number       Type             X           Y           Z
 ---------------------------------------------------------------------
      1          6           0        0.253218    2.059672    0.760737
      2          6           0        0.016599    0.753442    0.016893
      3          6           0       -1.332098    0.705769   -0.756262
      4          6           0       -1.938660   -0.619888   -0.375100
      5          6           0       -1.218676   -1.278423    0.531630
      6          6           0        0.030584   -0.530778    0.919382
      7          8           0        1.244053   -1.202229    0.571192
      8          6           0        1.507753   -0.813181   -0.753694
      9          8           0        1.131966    0.540510   -0.861768
     10          1           0       -0.564706    2.262207    1.459507
     11          1           0        1.191736    2.011828    1.320097
     12          1           0        0.316058    2.894251    0.055658
     13          1           0       -1.986097    1.541306   -0.475511
     14          1           0       -1.153980    0.797734   -1.833282
     15          1           0       -2.875552   -0.968859   -0.797720
     16          1           0       -1.460535   -2.245730    0.956531
     17          1           0        0.092908   -0.317585    1.990930
     18          1           0        2.580704   -0.906886   -0.945068
     19          1           0        0.938991   -1.434192   -1.468048
 ---------------------------------------------------------------------

 SCF Done:  E(RB3LYP) =  -423.206893423     A.U. after    1 cycles

 The electronic state is 1-A.
 Alpha  occ. eigenvalues --  -19.14255 -19.13867 -10.26698 -10.24023 -10.23334
 Alpha  occ. eigenvalues --  -10.19209 -10.18600 -10.18190 -10.17665  -1.08225
 Alpha  occ. eigenvalues --   -0.98876  -0.84230  -0.75426  -0.71298  -0.67353
 Alpha  occ. eigenvalues --   -0.62454  -0.57478  -0.55103  -0.50577  -0.48926
 Alpha  occ. eigenvalues --   -0.47152  -0.45231  -0.42515  -0.41500  -0.40538
 Alpha  occ. eigenvalues --   -0.39513  -0.37480  -0.37157  -0.35214  -0.32853
 Alpha  occ. eigenvalues --   -0.31221  -0.27233  -0.25684  -0.24873
 Alpha virt. eigenvalues --    0.01064   0.09314   0.11300   0.12798   0.13045
 Alpha virt. eigenvalues --    0.14023   0.14518   0.16013   0.16308   0.17094
 Alpha virt. eigenvalues --    0.17232   0.18336   0.19039   0.20585   0.21429

 Mulliken charges:
               1
     1  C   -0.450362
     2  C    0.375952
     3  C   -0.304954
     4  C   -0.069125
     5  C   -0.101017
     6  C    0.003062
     7  O   -0.253174
     8  C    0.006083
     9  O   -0.290566
    10  H    0.114948
    11  H    0.126487
    12  H    0.125803
    13  H    0.107146
    14  H    0.120832
    15  H    0.100483
    16  H    0.101998
    17  H    0.087007
    18  H    0.116383
    19  H    0.083016
 Sum of Mulliken charges =   0.00000

 Dipole moment (field-independent basis, Debye):
    X=             -1.5752    Y=              0.2549    Z=              0.0013  Tot=              1.5957
 Quadrupole moment (field-independent basis, Debye-Ang):
   XX=            -52.4257   YY=            -53.2703   ZZ=            -52.6433
   XY=             -0.0170   XZ=             -0.2702   YZ=              1.9942

  Exact polarizability:  79.426  -1.455  76.330   3.463  -2.039  68.689
 Approx polarizability: 114.149  -7.369 108.684   8.662 -10.751 109.663

                      1                      2                      3
                      A                      A                      A
 Frequencies --     65.0832               192.8177               251.9283
 Red. masses --      3.3854                 2.6332                 1.0848
 Frc consts  --      0.0084                 0.0577                 0.0406
 IR Inten    --      0.6210                 0.6976                 0.3690

                      4                      5                      6
                      A                      A                      A
 Frequencies --    270.5447               304.2066               351.4361
 Red. masses --      2.4815                 2.8436                 2.4834
 Frc consts  --      0.1070                 0.1550                 0.1807
 IR Inten    --      2.7018                 3.1890                 2.5912

                      7                      8                      9
                      A                      A                      A
 Frequencies --    432.9735               489.4043               593.8769
 Red. masses --      2.6899                 2.6614                 5.1387
 Frc consts  --      0.2971                 0.3756                 1.0678
 IR Inten    --      2.1830                 5.3587                 4.7272

                     10                     11                     12
                      A                      A                      A
 Frequencies --    619.8501               713.8732               748.3295
 Red. masses --      3.9128                 2.4808                 2.5651
 Frc consts  --      0.8857                 0.7449                 0.8463
 IR Inten    --      3.3548                 9.0552                 6.0488

                     13                     14                     15
                      A                      A                      A
 Frequencies --    779.3387               862.6502               890.3833
 Red. masses --      4.5753                 2.9967                 2.3759
 Frc consts  --      1.6373                 1.3139                 1.1098
 IR Inten    --      3.5889                17.8227                 5.3651

                     16                     17                     18
                      A                      A                      A
 Frequencies --    927.0131               951.4186               967.3043
 Red. masses --      1.9725                 1.6322                 2.8052
 Frc consts  --      0.9987                 0.8705                 1.5465
 IR Inten    --      6.4284                 8.3530                21.4670

                     19                     20                     21
                      A                      A                      A
 Frequencies --    983.6986               987.3089              1023.2568
 Red. masses --      2.0631                 1.4045                 4.4506
 Frc consts  --      1.1762                 0.8066                 2.7456
 IR Inten    --     34.4455                 7.3155                25.2024

                     22                     23                     24
                      A                      A                      A
 Frequencies --   1039.8793              1102.0694              1111.5707
 Red. masses --      2.8633                 3.0041                 1.9880
 Frc consts  --      1.8242                 2.1498                 1.4472
 IR Inten    --     23.4599               126.5967                21.1988

                     25                     26                     27
                      A                      A                      A
 Frequencies --   1128.2104              1168.1482              1187.3210
 Red. masses --      1.2712                 1.7939                 2.2084
 Frc consts  --      0.9534                 1.4423                 1.8343
 IR Inten    --     10.2298                21.1314                44.8791

                     28                     29                     30
                      A                      A                      A
 Frequencies --   1204.5912              1227.9691              1240.2404
 Red. masses --      2.1860                 1.5930                 1.2444
 Frc consts  --      1.8689                 1.4152                 1.1278
 IR Inten    --      6.4124                20.7538                 2.6575

                     31                     32                     33
                      A                      A                      A
 Frequencies --   1285.8839              1339.1819              1352.4036
 Red. masses --      1.5576                 1.3399                 1.7740
 Frc consts  --      1.5174                 1.4158                 1.9117
 IR Inten    --      8.6870                 8.9468                 3.2289

                     34                     35                     36
                      A                      A                      A
 Frequencies --   1374.8046              1406.8084              1425.6596
 Red. masses --      1.7062                 1.2890                 1.2485
 Frc consts  --      1.9000                 1.5031                 1.4951
 IR Inten    --      9.8428                 5.6364                 7.5956

                     37                     38                     39
                      A                      A                      A
 Frequencies --   1474.3318              1486.0817              1494.0084
 Red. masses --      1.0887                 1.0537                 1.0510
 Frc consts  --      1.3943                 1.3710                 1.3821
 IR Inten    --      4.7143                 1.6994                 2.3967

                     40                     41                     42
                      A                      A                      A
 Frequencies --   1540.0930              1686.3773              2945.6574
 Red. masses --      1.0993                 6.2519                 1.0701
 Frc consts  --      1.5362                10.4753                 5.4705
 IR Inten    --      2.7963                 3.1567                92.6363

                     43                     44                     45
                      A                      A                      A
 Frequencies --   3026.8627              3037.5373              3061.2875
 Red. masses --      1.0630                 1.0360                 1.0856
 Frc consts  --      5.7379                 5.6320                 5.9939
 IR Inten    --     21.4814                18.7806                30.3733

                     46                     47                     48
                      A                      A                      A
 Frequencies --   3067.6428              3085.5501              3110.0938
 Red. masses --      1.0977                 1.0946                 1.1015
 Frc consts  --      6.0864                 6.1400                 6.2774
 IR Inten    --     12.1827                48.1682                19.6758

                     49                     50                     51
                      A                      A                      A
 Frequencies --   3117.9161              3178.2450              3209.1767
 Red. masses --      1.1025                 1.0863                 1.1024
 Frc consts  --      6.3146                 6.4648                 6.6890
 IR Inten    --     17.5287                10.2593                16.9201

 - Thermochemistry -
 -------------------
 Temperature   298.150 Kelvin.  Pressure   1.00000 Atm.
 Atom     1 has atomic number  6 and mass  12.00000

 Molecular mass:   126.06808 amu.
 Principal axes and moments of inertia in atomic units:
                           1         2         3
     Eigenvalues --   806.19427 898.347861213.00631
           X            0.99991   0.00979   0.00958
           Y           -0.01031   0.99843   0.05506
           Z           -0.00902  -0.05515   0.99844
 This molecule is an asymmetric top.
 Rotational symmetry number  1.
 Warning -- assumption of classical behavior for rotation
           may cause significant error
 Rotational temperatures (Kelvin)      0.10744     0.09641     0.07140
 Rotational constants (GHZ):           2.23859     2.00896     1.48783
 Zero-point vibrational energy     421817.0 (Joules/Mol)
                                  100.81669 (Kcal/Mol)
 Warning -- explicit consideration of  10 degrees of freedom as
           vibrations may cause significant error
 Vibrational temperatures:     93.64   277.42   362.47   389.25   437.68
          (Kelvin)            505.64   622.95   704.14   854.46   891.82
                             1027.10  1076.68  1121.29  1241.16  1281.06
                             1333.76  1368.88  1391.73  1415.32  1420.52
                             1472.24  1496.15  1585.63  1599.30  1623.24
                             1680.70  1708.29  1733.14  1766.77  1784.43
                             1850.10  1926.78  1945.80  1978.03  2024.08
                             2051.20  2121.23  2138.14  2149.54  2215.85
                             2426.32  4238.14  4354.97  4370.33  4404.50
                             4413.65  4439.41  4474.73  4485.98  4572.78
                             4617.28

 Zero-point correction=                           0.160662 (Hartree/Particle)
 Thermal correction to Energy=                    0.168321
 Thermal correction to Enthalpy=                  0.169265
 Thermal correction to Gibbs Free Energy=         0.128503
 Sum of electronic and zero-point Energies=           -423.046232
 Sum of electronic and thermal Energies=              -423.038573
 Sum of electronic and thermal Enthalpies=            -423.037629
 Sum of electronic and thermal Free Energies=         -423.078390

                     E (Thermal)             CV                S
                      KCal/Mol        Cal/Mol-Kelvin    Cal/Mol-Kelvin
 Total                  105.623             30.177             85.790
 Electronic               0.000              0.000              0.000
 Translational            0.889              2.981             40.409
 Rotational               0.889              2.981             28.265
 Vibrational            103.845             24.215             17.117
 Vibration     1          0.597              1.971              4.297
 Vibration     2          0.635              1.850              2.201
 Vibration     3          0.664              1.760              1.717
 Vibration     4          0.674              1.727              1.593
 Vibration     5          0.695              1.666              1.394
 Vibration     6          0.728              1.572              1.160
 Vibration     7          0.794              1.398              0.849
 Vibration     8          0.845              1.274              0.685
 Vibration     9          0.951              1.045              0.460
 Vibration    10          0.980              0.990              0.417

 Optimization completed.
    -- Stationary point found.
 Normal termination of Gaussian 09 at Mon Jan 27 22:44:40 2020.
