 Gaussian 09, Revision D.01,
 Gaussian 09:  ES64L-G09RevD.01 24-Apr-2013

 -----------------------------
 # b3lyp 6-31G(2df,p) opt Freq
 -----------------------------

 -----
 titel
 -----
 Symbolic Z-matrix:
 Charge =  0 Multiplicity = 1

 SCF Done:  E(RB3LYP) =  -423.120397192     A.U. after   13 cycles
 Optimization completed.
    -- Stationary point found.
 Normal termination of Gaussian 09 at Mon Jan 27 17:27:46 2020.

 ----------------------------------------------------------------------
 #N Geom=AllCheck Guess=TCheck SCRF=Check GenChk RB3LYP/6-31G(2df,p) Fr
 eq
 ----------------------------------------------------------------------

 Structure from the checkpoint file:  "/scratch/puck/g09_2e3f7d4f-0589-4a2f-b02b-bf9949e620f3/Gau-39354.chk"
 -----
 titel
 -----
 Charge =  0 Multiplicity = 1

                         Standard orientation:
 ---------------------------------------------------------------------
 Center     Atomic      Atomic             Coordinates (Angstroms)
 Number     Number       Type             X           Y           Z
 ---------------------------------------------------------------------
      1          8           0       -2.108790   -1.296524   -0.555089
      2          6           0       -1.432972   -0.219345   -0.023132
      3          6           0       -1.041813   -0.197279    1.430253
      4          6           0        0.014623    0.041433    0.376172
      5          8           0       -0.068822    1.407199   -0.070596
      6          6           0       -1.419221    1.203432   -0.569451
      7          6           0        1.312932   -0.651607    0.230269
      8          6           0        2.596549    0.129605    0.399774
      9          6           0        2.194888   -0.372496   -0.963532
     10          1           0       -1.812342   -1.423632   -1.463694
     11          1           0       -1.354445    0.605628    2.094214
     12          1           0       -1.015319   -1.188068    1.874413
     13          1           0       -2.132503    1.924782   -0.154012
     14          1           0       -1.437905    1.252604   -1.666179
     15          1           0        1.307977   -1.666605    0.614805
     16          1           0        2.506109    1.193984    0.582495
     17          1           0        3.421378   -0.352589    0.912226
     18          1           0        1.842824    0.366352   -1.674236
     19          1           0        2.745208   -1.200319   -1.396662
 ---------------------------------------------------------------------

 SCF Done:  E(RB3LYP) =  -423.120397192     A.U. after    1 cycles

 The electronic state is 1-A.
 Alpha  occ. eigenvalues --  -19.15694 -19.13979 -10.24131 -10.23783 -10.23318
 Alpha  occ. eigenvalues --  -10.19575 -10.18412 -10.18309 -10.18240  -1.05920
 Alpha  occ. eigenvalues --   -1.03137  -0.85601  -0.82151  -0.70345  -0.63202
 Alpha  occ. eigenvalues --   -0.59787  -0.58853  -0.56757  -0.51984  -0.49584
 Alpha  occ. eigenvalues --   -0.47092  -0.46756  -0.43198  -0.40838  -0.39074
 Alpha  occ. eigenvalues --   -0.38295  -0.36828  -0.35934  -0.35521  -0.30826
 Alpha  occ. eigenvalues --   -0.29788  -0.28737  -0.26024  -0.21534
 Alpha virt. eigenvalues --    0.06309   0.08142   0.10065   0.11535   0.12611
 Alpha virt. eigenvalues --    0.13092   0.14238   0.15404   0.16382   0.16886
 Alpha virt. eigenvalues --    0.18026   0.18452   0.21092   0.21577   0.23206

 Mulliken charges:
               1
     1  O   -0.445074
     2  C    0.254929
     3  C   -0.375774
     4  C    0.392713
     5  O   -0.322165
     6  C   -0.146099
     7  C   -0.112677
     8  C   -0.264388
     9  C   -0.273124
    10  H    0.289057
    11  H    0.110729
    12  H    0.121676
    13  H    0.109148
    14  H    0.098153
    15  H    0.090349
    16  H    0.132736
    17  H    0.110932
    18  H    0.121020
    19  H    0.107859
 Sum of Mulliken charges =   0.00000

 Dipole moment (field-independent basis, Debye):
    X=              0.1622    Y=             -0.8228    Z=             -0.9861  Tot=              1.2946
 Quadrupole moment (field-independent basis, Debye-Ang):
   XX=            -54.8050   YY=            -54.1315   ZZ=            -49.1668
   XY=             -4.4715   XZ=              2.1822   YZ=              0.7430

  Exact polarizability:  86.172  -3.005  68.907  -0.151  -1.052  74.054
 Approx polarizability: 115.430   1.530 103.644   0.777  -1.267 109.925

                      1                      2                      3
                      A                      A                      A
 Frequencies --     69.1125               120.1550               171.6134
 Red. masses --      3.0889                 3.1296                 3.1025
 Frc consts  --      0.0087                 0.0266                 0.0538
 IR Inten    --      0.5500                 0.7483                 0.3506

                      4                      5                      6
                      A                      A                      A
 Frequencies --    255.4070               305.5281               342.7347
 Red. masses --      2.8176                 2.9079                 1.2992
 Frc consts  --      0.1083                 0.1599                 0.0899
 IR Inten    --      4.9814                 7.5651                86.3373

                      7                      8                      9
                      A                      A                      A
 Frequencies --    376.4668               416.9040               468.6599
 Red. masses --      2.7161                 2.3902                 3.1836
 Frc consts  --      0.2268                 0.2448                 0.4120
 IR Inten    --     14.6075                 3.4253                 6.4583

                     10                     11                     12
                      A                      A                      A
 Frequencies --    562.2342               599.5081               695.4144
 Red. masses --      3.3300                 3.2864                 3.1464
 Frc consts  --      0.6202                 0.6959                 0.8965
 IR Inten    --      1.4409                 9.9511                 6.8581

                     13                     14                     15
                      A                      A                      A
 Frequencies --    778.5935               793.2767               826.1355
 Red. masses --      2.3439                 1.0761                 1.5918
 Frc consts  --      0.8372                 0.3990                 0.6401
 IR Inten    --      1.2916                 0.4733                 8.6892

                     16                     17                     18
                      A                      A                      A
 Frequencies --    873.8731               901.1805               917.9489
 Red. masses --      4.2168                 2.3604                 2.8199
 Frc consts  --      1.8973                 1.1294                 1.4000
 IR Inten    --      6.1023                22.1286                 2.8314

                     19                     20                     21
                      A                      A                      A
 Frequencies --    942.1484               977.1638               988.7159
 Red. masses --      2.7793                 3.9266                 2.1714
 Frc consts  --      1.4535                 2.2090                 1.2506
 IR Inten    --      0.6013                51.1735                17.8862

                     22                     23                     24
                      A                      A                      A
 Frequencies --   1025.1564              1053.0328              1067.9002
 Red. masses --      1.4701                 1.6357                 1.3565
 Frc consts  --      0.9103                 1.0686                 0.9114
 IR Inten    --     14.8309                12.7809                 5.7926

                     25                     26                     27
                      A                      A                      A
 Frequencies --   1072.6360              1086.9301              1124.7812
 Red. masses --      1.4295                 1.3682                 2.0855
 Frc consts  --      0.9690                 0.9523                 1.5545
 IR Inten    --      0.9213                 1.1665                48.4815

                     28                     29                     30
                      A                      A                      A
 Frequencies --   1126.0909              1144.5713              1203.0867
 Red. masses --      1.2085                 1.1472                 1.3532
 Frc consts  --      0.9029                 0.8855                 1.1540
 IR Inten    --      4.3616                 1.2585                 0.0713

                     31                     32                     33
                      A                      A                      A
 Frequencies --   1214.9753              1219.1380              1270.4255
 Red. masses --      2.5705                 2.3303                 1.7888
 Frc consts  --      2.2356                 2.0406                 1.7011
 IR Inten    --     16.3531                 7.1368                49.5839

                     34                     35                     36
                      A                      A                      A
 Frequencies --   1315.2784              1344.6509              1403.2212
 Red. masses --      1.6898                 1.8212                 2.0929
 Frc consts  --      1.7223                 1.9401                 2.4280
 IR Inten    --     45.9265                93.6576                11.2146

                     37                     38                     39
                      A                      A                      A
 Frequencies --   1436.9657              1460.3754              1489.4402
 Red. masses --      1.3913                 1.0882                 1.3597
 Frc consts  --      1.6926                 1.3673                 1.7772
 IR Inten    --      1.2193                 1.9515                 6.4189

                     40                     41                     42
                      A                      A                      A
 Frequencies --   1508.2308              1529.4043              3011.8013
 Red. masses --      1.3552                 1.9992                 1.0567
 Frc consts  --      1.8163                 2.7552                 5.6475
 IR Inten    --      1.8622                15.3106                72.5257

                     43                     44                     45
                      A                      A                      A
 Frequencies --   3066.5597              3104.0504              3136.6603
 Red. masses --      1.1086                 1.0557                 1.0512
 Frc consts  --      6.1423                 5.9928                 6.0934
 IR Inten    --     41.1682                12.9984                17.0656

                     46                     47                     48
                      A                      A                      A
 Frequencies --   3140.8536              3159.5017              3203.8307
 Red. masses --      1.0570                 1.0887                 1.1143
 Frc consts  --      6.1436                 6.4030                 6.7390
 IR Inten    --     11.8275                 6.3256                 7.3856

                     49                     50                     51
                      A                      A                      A
 Frequencies --   3220.9358              3235.4715              3788.6419
 Red. masses --      1.1179                 1.1158                 1.0659
 Frc consts  --      6.8333                 6.8819                 9.0143
 IR Inten    --      0.6471                13.2969                17.7771

 - Thermochemistry -
 -------------------
 Temperature   298.150 Kelvin.  Pressure   1.00000 Atm.
 Atom     1 has atomic number  8 and mass  15.99491

 Molecular mass:   126.06808 amu.
 Principal axes and moments of inertia in atomic units:
                           1         2         3
     Eigenvalues --   596.554581443.835691553.90085
           X            0.99968  -0.02500  -0.00275
           Y            0.02492   0.99934  -0.02645
           Z            0.00341   0.02638   0.99965
 This molecule is an asymmetric top.
 Rotational symmetry number  1.
 Warning -- assumption of classical behavior for rotation
           may cause significant error
 Rotational temperatures (Kelvin)      0.14519     0.05999     0.05574
 Rotational constants (GHZ):           3.02527     1.24996     1.16143
 Zero-point vibrational energy     415985.7 (Joules/Mol)
                                   99.42296 (Kcal/Mol)
 Warning -- explicit consideration of  11 degrees of freedom as
           vibrations may cause significant error
 Vibrational temperatures:     99.44   172.88   246.91   367.47   439.59
          (Kelvin)            493.12   541.65   599.83   674.30   808.93
                              862.56  1000.54  1120.22  1141.35  1188.62
                             1257.31  1296.60  1320.72  1355.54  1405.92
                             1422.54  1474.97  1515.08  1536.47  1543.28
                             1563.85  1618.31  1620.19  1646.78  1730.97
                             1748.08  1754.07  1827.86  1892.39  1934.65
                             2018.92  2067.47  2101.15  2142.97  2170.01
                             2200.47  4333.30  4412.09  4466.03  4512.95
                             4518.98  4545.81  4609.59  4634.20  4655.12
                             5451.00

 Zero-point correction=                           0.158441 (Hartree/Particle)
 Thermal correction to Energy=                    0.166816
 Thermal correction to Enthalpy=                  0.167760
 Thermal correction to Gibbs Free Energy=         0.125368
 Sum of electronic and zero-point Energies=           -422.961957
 Sum of electronic and thermal Energies=              -422.953582
 Sum of electronic and thermal Enthalpies=            -422.952637
 Sum of electronic and thermal Free Energies=         -422.995029

                     E (Thermal)             CV                S
                      KCal/Mol        Cal/Mol-Kelvin    Cal/Mol-Kelvin
 Total                  104.678             32.575             89.220
 Electronic               0.000              0.000              0.000
 Translational            0.889              2.981             40.409
 Rotational               0.889              2.981             28.683
 Vibrational            102.901             26.613             20.128
 Vibration     1          0.598              1.969              4.178
 Vibration     2          0.609              1.932              3.098
 Vibration     3          0.626              1.877              2.418
 Vibration     4          0.666              1.754              1.693
 Vibration     5          0.696              1.663              1.386
 Vibration     6          0.722              1.590              1.199
 Vibration     7          0.747              1.520              1.053
 Vibration     8          0.780              1.434              0.903
 Vibration     9          0.826              1.320              0.741
 Vibration    10          0.918              1.113              0.519
 Vibration    11          0.958              1.033              0.451

 Optimization completed.
    -- Stationary point found.
 Normal termination of Gaussian 09 at Mon Jan 27 18:29:22 2020.
