 Gaussian 09, Revision D.01,
 Gaussian 09:  ES64L-G09RevD.01 24-Apr-2013

 -----------------------------
 # b3lyp 6-31G(2df,p) opt Freq
 -----------------------------

 -----
 titel
 -----
 Symbolic Z-matrix:
 Charge =  0 Multiplicity = 1

 SCF Done:  E(RB3LYP) =  -423.171568620     A.U. after   14 cycles
 Optimization completed.
    -- Stationary point found.
 Normal termination of Gaussian 09 at Mon Jan 27 16:31:35 2020.

 ----------------------------------------------------------------------
 #N Geom=AllCheck Guess=TCheck SCRF=Check GenChk RB3LYP/6-31G(2df,p) Fr
 eq
 ----------------------------------------------------------------------

 Structure from the checkpoint file:  "/scratch/puck/g09_6d7d9137-fc0c-46f7-a5bc-8f44ed9591fd/Gau-40262.chk"
 -----
 titel
 -----
 Charge =  0 Multiplicity = 1

                         Standard orientation:
 ---------------------------------------------------------------------
 Center     Atomic      Atomic             Coordinates (Angstroms)
 Number     Number       Type             X           Y           Z
 ---------------------------------------------------------------------
      1          6           0        1.350982    1.590929   -0.425942
      2          6           0        0.804045    0.321688    0.172368
      3          8           0        0.117473    0.422674    1.443681
      4          6           0       -0.654160    0.075796    0.320514
      5          6           0       -1.806162    0.909894   -0.252170
      6          6           0       -2.466886   -0.424344   -0.713249
      7          6           0       -1.464294   -1.220481    0.174471
      8          6           0        1.683903   -0.888884    0.100306
      9          8           0        2.642625   -0.984345   -0.624005
     10          1           0        1.612519    1.426690   -1.474817
     11          1           0        0.623627    2.401389   -0.356043
     12          1           0        2.262715    1.894394    0.097054
     13          1           0       -2.363654    1.407942    0.546369
     14          1           0       -1.563594    1.645086   -1.022635
     15          1           0       -3.525070   -0.547337   -0.479413
     16          1           0       -2.319135   -0.613417   -1.778497
     17          1           0       -1.894999   -1.517388    1.135289
     18          1           0       -0.974321   -2.087502   -0.272917
     19          1           0        1.376552   -1.704078    0.790414
 ---------------------------------------------------------------------

 SCF Done:  E(RB3LYP) =  -423.171568620     A.U. after    1 cycles

 The electronic state is 1-A.
 Alpha  occ. eigenvalues --  -19.16491 -19.14473 -10.27219 -10.25574 -10.25116
 Alpha  occ. eigenvalues --  -10.19710 -10.19612 -10.19597 -10.18737  -1.08807
 Alpha  occ. eigenvalues --   -1.04973  -0.84738  -0.76240  -0.68928  -0.66516
 Alpha  occ. eigenvalues --   -0.64513  -0.57886  -0.53124  -0.51402  -0.48739
 Alpha  occ. eigenvalues --   -0.47535  -0.46088  -0.42676  -0.41319  -0.40464
 Alpha  occ. eigenvalues --   -0.39407  -0.38580  -0.37664  -0.36309  -0.33854
 Alpha  occ. eigenvalues --   -0.33519  -0.29374  -0.28069  -0.25352
 Alpha virt. eigenvalues --   -0.03622   0.07259   0.08493   0.10373   0.11790
 Alpha virt. eigenvalues --    0.12404   0.14505   0.14953   0.16221   0.16731
 Alpha virt. eigenvalues --    0.17014   0.18246   0.19342   0.19898   0.21254

 Mulliken charges:
               1
     1  C   -0.472041
     2  C    0.150245
     3  O   -0.311299
     4  C    0.414862
     5  C   -0.310654
     6  C   -0.214693
     7  C   -0.318519
     8  C    0.125759
     9  O   -0.254408
    10  H    0.141869
    11  H    0.128070
    12  H    0.139534
    13  H    0.122174
    14  H    0.112895
    15  H    0.110878
    16  H    0.114226
    17  H    0.121552
    18  H    0.114407
    19  H    0.085143
 Sum of Mulliken charges =   0.00000

 Dipole moment (field-independent basis, Debye):
    X=             -2.6610    Y=              0.4727    Z=             -0.4925  Tot=              2.7472
 Quadrupole moment (field-independent basis, Debye-Ang):
   XX=            -57.3558   YY=            -51.8880   ZZ=            -55.7837
   XY=              3.2522   XZ=              2.4571   YZ=             -2.4194

  Exact polarizability:  93.488   0.223  74.081  -3.915  -2.549  63.846
 Approx polarizability: 128.861  -2.857 102.536 -12.445   0.118 105.865

                      1                      2                      3
                      A                      A                      A
 Frequencies --     69.6365                96.5392               140.2362
 Red. masses --      3.7682                 1.8844                 1.2585
 Frc consts  --      0.0108                 0.0103                 0.0146
 IR Inten    --      2.4103                 2.3068                 0.5610

                      4                      5                      6
                      A                      A                      A
 Frequencies --    160.4548               204.1801               260.9971
 Red. masses --      2.5554                 2.5348                 3.1672
 Frc consts  --      0.0388                 0.0623                 0.1271
 IR Inten    --      1.6068                 0.9971                 7.7759

                      7                      8                      9
                      A                      A                      A
 Frequencies --    279.4876               415.8050               449.2136
 Red. masses --      2.3096                 3.7906                 2.5916
 Frc consts  --      0.1063                 0.3861                 0.3081
 IR Inten    --      5.0662                 3.6709                 2.9101

                     10                     11                     12
                      A                      A                      A
 Frequencies --    455.8930               509.4014               579.1259
 Red. masses --      4.1513                 4.4551                 5.3023
 Frc consts  --      0.5083                 0.6811                 1.0477
 IR Inten    --      9.3709                 4.0479                 6.4188

                     13                     14                     15
                      A                      A                      A
 Frequencies --    707.0766               756.4754               778.1597
 Red. masses --      1.5596                 2.9041                 1.2427
 Frc consts  --      0.4594                 0.9792                 0.4434
 IR Inten    --      1.1627                 9.6581                 1.0595

                     16                     17                     18
                      A                      A                      A
 Frequencies --    829.0419               893.2024               918.4930
 Red. masses --      2.5620                 2.8092                 2.8348
 Frc consts  --      1.0375                 1.3205                 1.4090
 IR Inten    --     22.0021                 9.9640                12.0241

                     19                     20                     21
                      A                      A                      A
 Frequencies --    931.5547               976.7888               997.1035
 Red. masses --      2.7895                 2.7541                 1.5681
 Frc consts  --      1.4263                 1.5482                 0.9186
 IR Inten    --      0.4573                 5.9063                 1.1570

                     22                     23                     24
                      A                      A                      A
 Frequencies --   1030.2619              1077.2274              1112.0505
 Red. masses --      1.1124                 2.1606                 3.0478
 Frc consts  --      0.6957                 1.4772                 2.2207
 IR Inten    --      1.1672                10.9892                 8.4308

                     25                     26                     27
                      A                      A                      A
 Frequencies --   1128.0917              1144.6563              1203.8895
 Red. masses --      2.3853                 2.5123                 1.3415
 Frc consts  --      1.7885                 1.9394                 1.1456
 IR Inten    --     19.8321                15.0673                 0.6753

                     28                     29                     30
                      A                      A                      A
 Frequencies --   1235.1378              1244.8637              1258.7579
 Red. masses --      1.3176                 1.1766                 1.9391
 Frc consts  --      1.1844                 1.0743                 1.8102
 IR Inten    --      5.3067                 0.3094                 7.2330

                     31                     32                     33
                      A                      A                      A
 Frequencies --   1275.2088              1286.5909              1392.5426
 Red. masses --      1.5829                 2.5032                 1.3763
 Frc consts  --      1.5165                 2.4413                 1.5724
 IR Inten    --      2.8806                11.4141                 5.7101

                     34                     35                     36
                      A                      A                      A
 Frequencies --   1409.5135              1454.3225              1466.8275
 Red. masses --      1.3003                 1.9458                 1.0925
 Frc consts  --      1.5221                 2.4248                 1.3849
 IR Inten    --      9.0229                14.8430                 4.0670

                     37                     38                     39
                      A                      A                      A
 Frequencies --   1479.0688              1480.6872              1493.9341
 Red. masses --      1.1054                 1.0788                 1.1267
 Frc consts  --      1.4248                 1.3936                 1.4815
 IR Inten    --      3.6517                 7.5288                 7.3301

                     40                     41                     42
                      A                      A                      A
 Frequencies --   1510.5322              1820.0726              2904.2043
 Red. masses --      1.4027                10.6736                 1.0845
 Frc consts  --      1.8857                20.8323                 5.3891
 IR Inten    --     10.4758               194.0434                72.8833

                     43                     44                     45
                      A                      A                      A
 Frequencies --   3052.9894              3060.4736              3064.0382
 Red. masses --      1.0358                 1.0579                 1.0595
 Frc consts  --      5.6880                 5.8381                 5.8605
 IR Inten    --      8.2156                36.3107                 4.2787

                     46                     47                     48
                      A                      A                      A
 Frequencies --   3078.9020              3110.7865              3116.1755
 Red. masses --      1.0612                 1.1065                 1.1068
 Frc consts  --      5.9270                 6.3086                 6.3323
 IR Inten    --     30.4363                 7.6268                 7.9264

                     49                     50                     51
                      A                      A                      A
 Frequencies --   3119.3958              3137.2335              3143.2143
 Red. masses --      1.1003                 1.1081                 1.1023
 Frc consts  --      6.3081                 6.4256                 6.4166
 IR Inten    --      9.7259                34.1612                 9.0387

 - Thermochemistry -
 -------------------
 Temperature   298.150 Kelvin.  Pressure   1.00000 Atm.
 Atom     1 has atomic number  6 and mass  12.00000

 Molecular mass:   126.06808 amu.
 Principal axes and moments of inertia in atomic units:
                           1         2         3
     Eigenvalues --   626.415851494.757051697.65787
           X            0.99941   0.03346   0.00796
           Y           -0.03267   0.99593  -0.08400
           Z           -0.01074   0.08370   0.99643
 This molecule is an asymmetric top.
 Rotational symmetry number  1.
 Warning -- assumption of classical behavior for rotation
           may cause significant error
 Rotational temperatures (Kelvin)      0.13827     0.05795     0.05102
 Rotational constants (GHZ):           2.88106     1.20738     1.06308
 Zero-point vibrational energy     410920.3 (Joules/Mol)
                                   98.21232 (Kcal/Mol)
 Warning -- explicit consideration of  12 degrees of freedom as
           vibrations may cause significant error
 Vibrational temperatures:    100.19   138.90   201.77   230.86   293.77
          (Kelvin)            375.52   402.12   598.25   646.32   655.93
                              732.91   833.23  1017.32  1088.40  1119.60
                             1192.80  1285.12  1321.50  1340.30  1405.38
                             1434.61  1482.32  1549.89  1599.99  1623.07
                             1646.90  1732.13  1777.09  1791.08  1811.07
                             1834.74  1851.12  2003.56  2027.97  2092.44
                             2110.43  2128.05  2130.38  2149.44  2173.32
                             2618.68  4178.50  4392.57  4403.33  4408.46
                             4429.85  4475.72  4483.48  4488.11  4513.77
                             4522.38

 Zero-point correction=                           0.156511 (Hartree/Particle)
 Thermal correction to Energy=                    0.165690
 Thermal correction to Enthalpy=                  0.166634
 Thermal correction to Gibbs Free Energy=         0.122271
 Sum of electronic and zero-point Energies=           -423.015057
 Sum of electronic and thermal Energies=              -423.005879
 Sum of electronic and thermal Enthalpies=            -423.004935
 Sum of electronic and thermal Free Energies=         -423.049298

                     E (Thermal)             CV                S
                      KCal/Mol        Cal/Mol-Kelvin    Cal/Mol-Kelvin
 Total                  103.972             33.667             93.370
 Electronic               0.000              0.000              0.000
 Translational            0.889              2.981             40.409
 Rotational               0.889              2.981             28.854
 Vibrational            102.195             27.706             24.107
 Vibration     1          0.598              1.969              4.164
 Vibration     2          0.603              1.952              3.523
 Vibration     3          0.615              1.913              2.801
 Vibration     4          0.622              1.891              2.544
 Vibration     5          0.640              1.834              2.095
 Vibration     6          0.669              1.744              1.655
 Vibration     7          0.680              1.712              1.537
 Vibration     8          0.779              1.436              0.906
 Vibration     9          0.808              1.363              0.798
 Vibration    10          0.814              1.348              0.778
 Vibration    11          0.865              1.229              0.635
 Vibration    12          0.936              1.076              0.487

 Optimization completed on the basis of negligible forces.
    -- Stationary point found.
 Normal termination of Gaussian 09 at Mon Jan 27 17:11:27 2020.
