 Gaussian 09, Revision D.01,
 Gaussian 09:  ES64L-G09RevD.01 24-Apr-2013

 -----------------------------
 # b3lyp 6-31G(2df,p) opt Freq
 -----------------------------

 -----
 titel
 -----
 Symbolic Z-matrix:
 Charge =  0 Multiplicity = 1

 SCF Done:  E(RB3LYP) =  -423.189360959     A.U. after   13 cycles
 Optimization completed.
    -- Stationary point found.
 Normal termination of Gaussian 09 at Mon Jan 27 11:19:43 2020.

 ----------------------------------------------------------------------
 #N Geom=AllCheck Guess=TCheck SCRF=Check GenChk RB3LYP/6-31G(2df,p) Fr
 eq
 ----------------------------------------------------------------------

 Structure from the checkpoint file:  "/scratch/puck/g09_575a2759-86aa-4d98-a573-870e06044635/Gau-164864.chk"
 -----
 titel
 -----
 Charge =  0 Multiplicity = 1

                         Standard orientation:
 ---------------------------------------------------------------------
 Center     Atomic      Atomic             Coordinates (Angstroms)
 Number     Number       Type             X           Y           Z
 ---------------------------------------------------------------------
      1          6           0        1.673517    0.291408   -0.627546
      2          6           0        0.985569   -1.049402   -0.269541
      3          8           0       -0.230266   -1.263445   -0.982052
      4          6           0       -1.271175   -0.536973   -0.313977
      5          6           0       -0.952013   -0.705178    1.178722
      6          6           0        0.548974   -0.449011    1.103637
      7          6           0        0.871038    0.973492    0.516870
      8          8           0       -0.291532    1.686326    0.135676
      9          6           0       -1.220542    0.959287   -0.666800
     10          1           0        2.742970    0.272608   -0.396556
     11          1           0        1.532902    0.664379   -1.644451
     12          1           0        1.576811   -1.965934   -0.320568
     13          1           0       -2.218329   -0.970648   -0.643963
     14          1           0       -1.477426    0.018265    1.806974
     15          1           0       -1.176957   -1.717941    1.523904
     16          1           0        1.135199   -0.731739    1.977696
     17          1           0        1.427475    1.658896    1.158718
     18          1           0       -2.195115    1.424306   -0.482961
     19          1           0       -0.985362    1.063024   -1.735978
 ---------------------------------------------------------------------

 SCF Done:  E(RB3LYP) =  -423.189360959     A.U. after    1 cycles

 The electronic state is 1-A.
 Alpha  occ. eigenvalues --  -19.13856 -19.13551 -10.23157 -10.23137 -10.22700
 Alpha  occ. eigenvalues --  -10.22383 -10.18600 -10.18436 -10.17610  -1.04724
 Alpha  occ. eigenvalues --   -1.01787  -0.82762  -0.77887  -0.70530  -0.67077
 Alpha  occ. eigenvalues --   -0.61825  -0.55440  -0.54282  -0.53107  -0.47934
 Alpha  occ. eigenvalues --   -0.47535  -0.45774  -0.43217  -0.41514  -0.39812
 Alpha  occ. eigenvalues --   -0.37987  -0.37086  -0.36364  -0.33996  -0.32897
 Alpha  occ. eigenvalues --   -0.30587  -0.28235  -0.25258  -0.23713
 Alpha virt. eigenvalues --    0.07525   0.10678   0.11592   0.12158   0.13682
 Alpha virt. eigenvalues --    0.14243   0.14671   0.15452   0.15790   0.17415
 Alpha virt. eigenvalues --    0.18720   0.19632   0.20165   0.20562   0.21965

 Mulliken charges:
               1
     1  C   -0.270334
     2  C    0.098704
     3  O   -0.275917
     4  C    0.059402
     5  C   -0.232482
     6  C   -0.074008
     7  C    0.106954
     8  O   -0.269207
     9  C   -0.088179
    10  H    0.101087
    11  H    0.109598
    12  H    0.074344
    13  H    0.081549
    14  H    0.113426
    15  H    0.104216
    16  H    0.070312
    17  H    0.081972
    18  H    0.106658
    19  H    0.101907
 Sum of Mulliken charges =   0.00000

 Dipole moment (field-independent basis, Debye):
    X=              0.1944    Y=             -0.4369    Z=              0.9644  Tot=              1.0765
 Quadrupole moment (field-independent basis, Debye-Ang):
   XX=            -48.0912   YY=            -57.6692   ZZ=            -53.2811
   XY=             -0.1140   XZ=              0.9315   YZ=             -2.6779

  Exact polarizability:  80.953  -0.429  68.898   0.639  -2.060  68.842
 Approx polarizability: 113.111  -1.472 103.279   1.911   1.211 103.899

                      1                      2                      3
                      A                      A                      A
 Frequencies --    199.4870               318.5022               359.5814
 Red. masses --      3.0814                 2.2632                 2.9850
 Frc consts  --      0.0722                 0.1353                 0.2274
 IR Inten    --      7.8414                 0.6524                 0.9858

                      4                      5                      6
                      A                      A                      A
 Frequencies --    398.4810               447.1962               517.8265
 Red. masses --      2.2013                 2.6077                 4.5335
 Frc consts  --      0.2059                 0.3073                 0.7162
 IR Inten    --      1.2099                 2.9459                 0.1979

                      7                      8                      9
                      A                      A                      A
 Frequencies --    578.3150               622.2025               747.8039
 Red. masses --      3.9009                 4.9070                 2.2133
 Frc consts  --      0.7687                 1.1193                 0.7292
 IR Inten    --      5.8552                 4.3427                 5.0827

                     10                     11                     12
                      A                      A                      A
 Frequencies --    793.1873               821.7842               836.2750
 Red. masses --      3.2783                 3.9543                 2.4160
 Frc consts  --      1.2152                 1.5734                 0.9955
 IR Inten    --      9.0567                 3.5590                 6.1232

                     13                     14                     15
                      A                      A                      A
 Frequencies --    854.5767               875.0495               924.7582
 Red. masses --      2.5448                 2.4484                 3.0424
 Frc consts  --      1.0950                 1.1046                 1.5329
 IR Inten    --      5.0600                19.2265                 9.4419

                     16                     17                     18
                      A                      A                      A
 Frequencies --    936.2168               949.7531               981.8110
 Red. masses --      2.6177                 2.0761                 1.9386
 Frc consts  --      1.3518                 1.1033                 1.1010
 IR Inten    --     17.0867                18.9063                 0.4289

                     19                     20                     21
                      A                      A                      A
 Frequencies --   1011.4813              1015.1159              1046.6296
 Red. masses --      2.2273                 1.5694                 1.8855
 Frc consts  --      1.3426                 0.9528                 1.2169
 IR Inten    --      5.5959                 2.4116                 1.9624

                     22                     23                     24
                      A                      A                      A
 Frequencies --   1057.8543              1103.3401              1115.1638
 Red. masses --      2.1593                 2.4786                 2.1787
 Frc consts  --      1.4237                 1.7778                 1.5963
 IR Inten    --     10.6380                14.7860                52.6961

                     25                     26                     27
                      A                      A                      A
 Frequencies --   1140.3850              1174.4764              1206.5846
 Red. masses --      2.2450                 1.5452                 1.6539
 Frc consts  --      1.7202                 1.2558                 1.4187
 IR Inten    --     74.1310                 0.7388                38.2582

                     28                     29                     30
                      A                      A                      A
 Frequencies --   1223.0429              1252.8533              1266.4141
 Red. masses --      1.9258                 1.5188                 1.6009
 Frc consts  --      1.6972                 1.4046                 1.5128
 IR Inten    --      6.6192                 2.6404                20.5348

                     31                     32                     33
                      A                      A                      A
 Frequencies --   1272.4896              1277.4424              1318.8217
 Red. masses --      1.2455                 1.6240                 1.3644
 Frc consts  --      1.1882                 1.5614                 1.3982
 IR Inten    --      7.9773                14.6531                 1.4134

                     34                     35                     36
                      A                      A                      A
 Frequencies --   1322.6241              1344.8898              1370.8702
 Red. masses --      1.4829                 1.4239                 1.2767
 Frc consts  --      1.5284                 1.5174                 1.4136
 IR Inten    --      0.0469                 1.4789                 8.9825

                     37                     38                     39
                      A                      A                      A
 Frequencies --   1377.0736              1404.8051              1460.0137
 Red. masses --      1.3452                 1.3552                 1.1167
 Frc consts  --      1.5030                 1.5758                 1.4025
 IR Inten    --      3.8010                 2.8659                 5.4983

                     40                     41                     42
                      A                      A                      A
 Frequencies --   1477.6868              1499.8694              3002.2397
 Red. masses --      1.1144                 1.0873                 1.0651
 Frc consts  --      1.4337                 1.4411                 5.6562
 IR Inten    --      3.9045                 2.1346                49.2158

                     43                     44                     45
                      A                      A                      A
 Frequencies --   3056.7844              3062.3775              3067.8904
 Red. masses --      1.0607                 1.0599                 1.0982
 Frc consts  --      5.8397                 5.8566                 6.0899
 IR Inten    --     14.2146                20.9853                20.2521

                     46                     47                     48
                      A                      A                      A
 Frequencies --   3086.7914              3090.3422              3092.2180
 Red. masses --      1.0873                 1.0885                 1.0894
 Frc consts  --      6.1037                 6.1246                 6.1374
 IR Inten    --     72.3019                70.2310                 7.8403

                     49                     50                     51
                      A                      A                      A
 Frequencies --   3116.9849              3117.8281              3120.1833
 Red. masses --      1.0985                 1.0998                 1.1032
 Frc consts  --      6.2883                 6.2990                 6.3277
 IR Inten    --     11.3090                15.1071                38.3664

 - Thermochemistry -
 -------------------
 Temperature   298.150 Kelvin.  Pressure   1.00000 Atm.
 Atom     1 has atomic number  6 and mass  12.00000

 Molecular mass:   126.06808 amu.
 Principal axes and moments of inertia in atomic units:
                           1         2         3
     Eigenvalues --   765.14399 778.79335 975.84140
           X            0.99934   0.03537  -0.00820
           Y           -0.03592   0.99593  -0.08272
           Z            0.00524   0.08296   0.99654
 This molecule is an asymmetric top.
 Rotational symmetry number  1.
 Warning -- assumption of classical behavior for rotation
           may cause significant error
 Rotational temperatures (Kelvin)      0.11320     0.11122     0.08876
 Rotational constants (GHZ):           2.35869     2.31736     1.84942
 Zero-point vibrational energy     428959.2 (Joules/Mol)
                                  102.52370 (Kcal/Mol)
 Warning -- explicit consideration of   7 degrees of freedom as
           vibrations may cause significant error
 Vibrational temperatures:    287.02   458.25   517.36   573.32   643.41
          (Kelvin)            745.04   832.07   895.21  1075.92  1141.22
                             1182.36  1203.21  1229.54  1259.00  1330.52
                             1347.01  1366.48  1412.61  1455.29  1460.52
                             1505.86  1522.01  1587.46  1604.47  1640.76
                             1689.81  1736.00  1759.68  1802.57  1822.09
                             1830.83  1837.95  1897.49  1902.96  1934.99
                             1972.37  1981.30  2021.20  2100.63  2126.06
                             2157.97  4319.55  4398.03  4406.07  4414.00
                             4441.20  4446.31  4449.01  4484.64  4485.85
                             4489.24

 Zero-point correction=                           0.163382 (Hartree/Particle)
 Thermal correction to Energy=                    0.169624
 Thermal correction to Enthalpy=                  0.170568
 Thermal correction to Gibbs Free Energy=         0.133188
 Sum of electronic and zero-point Energies=           -423.025979
 Sum of electronic and thermal Energies=              -423.019737
 Sum of electronic and thermal Enthalpies=            -423.018793
 Sum of electronic and thermal Free Energies=         -423.056173

                     E (Thermal)             CV                S
                      KCal/Mol        Cal/Mol-Kelvin    Cal/Mol-Kelvin
 Total                  106.441             26.994             78.673
 Electronic               0.000              0.000              0.000
 Translational            0.889              2.981             40.409
 Rotational               0.889              2.981             27.855
 Vibrational            104.663             21.032             10.410
 Vibration     1          0.638              1.841              2.138
 Vibration     2          0.705              1.638              1.318
 Vibration     3          0.734              1.556              1.124
 Vibration     4          0.765              1.473              0.968
 Vibration     5          0.806              1.367              0.804
 Vibration     6          0.873              1.211              0.615
 Vibration     7          0.935              1.078              0.488

 Normal termination of Gaussian 09 at Mon Jan 27 12:11:48 2020.
