 Gaussian 09, Revision D.01,
 Gaussian 09:  ES64L-G09RevD.01 24-Apr-2013

 -----------------------------
 # b3lyp 6-31G(2df,p) opt Freq
 -----------------------------

 -----
 titel
 -----
 Symbolic Z-matrix:
 Charge =  0 Multiplicity = 1

 SCF Done:  E(RB3LYP) =  -423.202962762     A.U. after   14 cycles
 Optimization completed.
    -- Stationary point found.
 Normal termination of Gaussian 09 at Mon Jan 27 23:04:30 2020.

 ----------------------------------------------------------------------
 #N Geom=AllCheck Guess=TCheck SCRF=Check GenChk RB3LYP/6-31G(2df,p) Fr
 eq
 ----------------------------------------------------------------------

 Structure from the checkpoint file:  "/scratch/puck/g09_456f160d-81d5-460c-a289-d6f0f1e3dec3/Gau-101802.chk"
 -----
 titel
 -----
 Charge =  0 Multiplicity = 1

                         Standard orientation:
 ---------------------------------------------------------------------
 Center     Atomic      Atomic             Coordinates (Angstroms)
 Number     Number       Type             X           Y           Z
 ---------------------------------------------------------------------
      1          8           0        2.415122   -0.715100   -0.472865
      2          6           0        1.077268   -0.292852   -0.612907
      3          6           0        0.885578    1.071137    0.086139
      4          6           0        0.609413    0.282878    1.398568
      5          6           0        0.119619   -0.883576    0.487038
      6          6           0       -1.298367   -0.639706    0.016229
      7          8           0       -2.092210   -1.527485   -0.188189
      8          6           0       -1.640377    0.839637   -0.194752
      9          6           0       -0.398289    1.739006   -0.428227
     10          1           0        2.465592   -1.643155   -0.725057
     11          1           0        0.742663   -0.375699   -1.657030
     12          1           0        1.742696    1.746854    0.053968
     13          1           0        1.535259    0.010759    1.904564
     14          1           0       -0.095088    0.703616    2.120565
     15          1           0        0.259349   -1.923072    0.788241
     16          1           0       -2.374640    0.913228   -1.000087
     17          1           0       -2.163945    1.152706    0.717637
     18          1           0       -0.284921    1.953194   -1.497108
     19          1           0       -0.539338    2.703105    0.070207
 ---------------------------------------------------------------------

 SCF Done:  E(RB3LYP) =  -423.202962762     A.U. after    1 cycles

 The electronic state is 1-A.
 Alpha  occ. eigenvalues --  -19.14899 -19.12287 -10.26401 -10.24380 -10.19588
 Alpha  occ. eigenvalues --  -10.19466 -10.19350 -10.19160 -10.19103  -1.03587
 Alpha  occ. eigenvalues --   -1.03185  -0.87118  -0.76451  -0.71485  -0.66411
 Alpha  occ. eigenvalues --   -0.62464  -0.56963  -0.52162  -0.51683  -0.48823
 Alpha  occ. eigenvalues --   -0.47452  -0.44207  -0.42447  -0.41660  -0.40181
 Alpha  occ. eigenvalues --   -0.39355  -0.37788  -0.36469  -0.33602  -0.33390
 Alpha  occ. eigenvalues --   -0.31887  -0.30141  -0.27224  -0.23562
 Alpha virt. eigenvalues --   -0.01029   0.07040   0.08122   0.10256   0.11348
 Alpha virt. eigenvalues --    0.13061   0.14910   0.15809   0.15917   0.16696
 Alpha virt. eigenvalues --    0.18350   0.19150   0.20764   0.21394   0.22167

 Mulliken charges:
               1
     1  O   -0.450141
     2  C    0.153107
     3  C   -0.020972
     4  C   -0.249527
     5  C   -0.159658
     6  C    0.402122
     7  O   -0.330255
     8  C   -0.313847
     9  C   -0.235791
    10  H    0.285955
    11  H    0.068738
    12  H    0.077582
    13  H    0.122815
    14  H    0.096866
    15  H    0.075669
    16  H    0.127463
    17  H    0.135354
    18  H    0.108713
    19  H    0.105806
 Sum of Mulliken charges =   0.00000

 Dipole moment (field-independent basis, Debye):
    X=              1.2115    Y=              1.3415    Z=              0.0415  Tot=              1.8080
 Quadrupole moment (field-independent basis, Debye-Ang):
   XX=            -60.6414   YY=            -52.2645   ZZ=            -51.1844
   XY=             -8.4534   XZ=             -1.2873   YZ=              0.7340

  Exact polarizability:  81.325  -0.122  77.620   1.816   0.118  65.475
 Approx polarizability: 117.264   6.412 115.053   2.427   2.548  99.706

                      1                      2                      3
                      A                      A                      A
 Frequencies --     86.9452               164.0913               249.1049
 Red. masses --      3.3153                 3.1057                 2.1826
 Frc consts  --      0.0148                 0.0493                 0.0798
 IR Inten    --      4.2919                 1.6743                 3.4031

                      4                      5                      6
                      A                      A                      A
 Frequencies --    297.4091               325.1474               365.0580
 Red. masses --      2.8529                 1.3221                 2.1362
 Frc consts  --      0.1487                 0.0824                 0.1677
 IR Inten    --     13.2574                97.1174                 2.8778

                      7                      8                      9
                      A                      A                      A
 Frequencies --    429.8628               445.2327               487.7771
 Red. masses --      5.5020                 5.3485                 4.5761
 Frc consts  --      0.5990                 0.6247                 0.6415
 IR Inten    --      6.9296                10.9083                 5.9229

                     10                     11                     12
                      A                      A                      A
 Frequencies --    543.9286               637.3891               748.8856
 Red. masses --      2.1099                 4.4759                 2.8913
 Frc consts  --      0.3678                 1.0714                 0.9554
 IR Inten    --      0.7234                 0.8743                 6.4677

                     13                     14                     15
                      A                      A                      A
 Frequencies --    794.8517               842.3263               886.9058
 Red. masses --      1.6635                 2.4190                 3.2551
 Frc consts  --      0.6192                 1.0112                 1.5086
 IR Inten    --      2.7239                 0.3464                 3.6542

                     16                     17                     18
                      A                      A                      A
 Frequencies --    895.5052               921.2989               931.3515
 Red. masses --      2.6763                 2.6873                 2.1068
 Frc consts  --      1.2645                 1.3439                 1.0767
 IR Inten    --     11.9799                 1.9630                 4.8775

                     19                     20                     21
                      A                      A                      A
 Frequencies --    949.4521              1030.3109              1044.7885
 Red. masses --      2.1250                 2.1430                 1.5441
 Frc consts  --      1.1286                 1.3403                 0.9931
 IR Inten    --     16.0294                39.4860                13.9697

                     22                     23                     24
                      A                      A                      A
 Frequencies --   1079.6399              1087.6103              1116.1905
 Red. masses --      3.0255                 1.3682                 3.5933
 Frc consts  --      2.0778                 0.9536                 2.6377
 IR Inten    --     17.7921                 3.9919                39.4926

                     25                     26                     27
                      A                      A                      A
 Frequencies --   1125.7638              1167.6902              1203.8926
 Red. masses --      1.2148                 1.1690                 1.5199
 Frc consts  --      0.9071                 0.9392                 1.2979
 IR Inten    --      2.4668                21.7598                48.8201

                     28                     29                     30
                      A                      A                      A
 Frequencies --   1216.9397              1239.8940              1245.0976
 Red. masses --      1.7624                 1.4106                 1.4507
 Frc consts  --      1.5378                 1.2777                 1.3251
 IR Inten    --      6.4588                13.7600                15.6463

                     31                     32                     33
                      A                      A                      A
 Frequencies --   1273.6664              1291.5623              1312.6741
 Red. masses --      1.4986                 1.6739                 1.4332
 Frc consts  --      1.4323                 1.6451                 1.4551
 IR Inten    --     12.8291                10.2640                 2.3264

                     34                     35                     36
                      A                      A                      A
 Frequencies --   1324.9743              1340.4671              1364.1627
 Red. masses --      1.5247                 1.5011                 1.4158
 Frc consts  --      1.5770                 1.5891                 1.5523
 IR Inten    --      9.9690                28.7508                 7.2048

                     37                     38                     39
                      A                      A                      A
 Frequencies --   1428.0161              1454.7199              1490.8277
 Red. masses --      1.4258                 1.0834                 1.1027
 Frc consts  --      1.7131                 1.3509                 1.4440
 IR Inten    --      3.6733                 4.1193                 5.2023

                     40                     41                     42
                      A                      A                      A
 Frequencies --   1502.7711              1815.9153              2991.4258
 Red. masses --      1.0975                11.9958                 1.0852
 Frc consts  --      1.4603                23.3062                 5.7216
 IR Inten    --      3.0707               219.9406                55.4189

                     43                     44                     45
                      A                      A                      A
 Frequencies --   3034.2955              3038.5327              3069.4748
 Red. masses --      1.0675                 1.0641                 1.0621
 Frc consts  --      5.7908                 5.7883                 5.8956
 IR Inten    --     12.5097                26.8494                30.9519

                     46                     47                     48
                      A                      A                      A
 Frequencies --   3077.6449              3091.8287              3102.7863
 Red. masses --      1.0999                 1.0880                 1.0893
 Frc consts  --      6.1382                 6.1281                 6.1788
 IR Inten    --     23.1734                40.2135                20.3025

                     49                     50                     51
                      A                      A                      A
 Frequencies --   3108.2555              3141.0571              3809.9160
 Red. masses --      1.0946                 1.1035                 1.0661
 Frc consts  --      6.2307                 6.4147                 9.1179
 IR Inten    --     14.0461                14.1934                25.9050

 - Thermochemistry -
 -------------------
 Temperature   298.150 Kelvin.  Pressure   1.00000 Atm.
 Atom     1 has atomic number  8 and mass  15.99491

 Molecular mass:   126.06808 amu.
 Principal axes and moments of inertia in atomic units:
                           1         2         3
     Eigenvalues --   702.342401152.831681472.34897
           X            0.99777  -0.06652   0.00602
           Y            0.06658   0.99773  -0.01026
           Z           -0.00532   0.01064   0.99993
 This molecule is an asymmetric top.
 Rotational symmetry number  1.
 Warning -- assumption of classical behavior for rotation
           may cause significant error
 Rotational temperatures (Kelvin)      0.12332     0.07513     0.05883
 Rotational constants (GHZ):           2.56960     1.56549     1.22576
 Zero-point vibrational energy     422433.2 (Joules/Mol)
                                  100.96396 (Kcal/Mol)
 Warning -- explicit consideration of  10 degrees of freedom as
           vibrations may cause significant error
 Vibrational temperatures:    125.09   236.09   358.41   427.90   467.81
          (Kelvin)            525.24   618.48   640.59   701.80   782.59
                              917.06  1077.48  1143.61  1211.92  1276.06
                             1288.43  1325.54  1340.01  1366.05  1482.39
                             1503.22  1553.36  1564.83  1605.95  1619.72
                             1680.04  1732.13  1750.90  1783.93  1791.42
                             1832.52  1858.27  1888.64  1906.34  1928.63
                             1962.72  2054.59  2093.01  2144.97  2162.15
                             2612.69  4303.99  4365.67  4371.77  4416.28
                             4428.04  4448.45  4464.21  4472.08  4519.27
                             5481.61

 Zero-point correction=                           0.160896 (Hartree/Particle)
 Thermal correction to Energy=                    0.168695
 Thermal correction to Enthalpy=                  0.169639
 Thermal correction to Gibbs Free Energy=         0.128695
 Sum of electronic and zero-point Energies=           -423.042066
 Sum of electronic and thermal Energies=              -423.034268
 Sum of electronic and thermal Enthalpies=            -423.033324
 Sum of electronic and thermal Free Energies=         -423.074268

                     E (Thermal)             CV                S
                      KCal/Mol        Cal/Mol-Kelvin    Cal/Mol-Kelvin
 Total                  105.858             30.923             86.175
 Electronic               0.000              0.000              0.000
 Translational            0.889              2.981             40.409
 Rotational               0.889              2.981             28.568
 Vibrational            104.080             24.961             17.198
 Vibration     1          0.601              1.958              3.728
 Vibration     2          0.623              1.887              2.502
 Vibration     3          0.662              1.764              1.737
 Vibration     4          0.691              1.679              1.431
 Vibration     5          0.709              1.625              1.284
 Vibration     6          0.738              1.544              1.100
 Vibration     7          0.791              1.405              0.859
 Vibration     8          0.805              1.371              0.810
 Vibration     9          0.844              1.277              0.689
 Vibration    10          0.899              1.153              0.557

 Optimization completed.
    -- Stationary point found.
 Normal termination of Gaussian 09 at Mon Jan 27 23:53:26 2020.
