 Gaussian 09, Revision D.01,
 Gaussian 09:  ES64L-G09RevD.01 24-Apr-2013

 -----------------------------
 # b3lyp 6-31G(2df,p) opt Freq
 -----------------------------

 -----
 titel
 -----
 Symbolic Z-matrix:
 Charge =  0 Multiplicity = 1

 SCF Done:  E(RB3LYP) =  -423.156019255     A.U. after   15 cycles
 Optimization completed.
    -- Stationary point found.
 Normal termination of Gaussian 09 at Tue Jan 28 08:22:08 2020.

 ----------------------------------------------------------------------
 #N Geom=AllCheck Guess=TCheck SCRF=Check GenChk RB3LYP/6-31G(2df,p) Fr
 eq
 ----------------------------------------------------------------------

 Structure from the checkpoint file:  "/scratch/puck/g09_913230d2-3c45-4e62-91a6-6c70edbb3042/Gau-106669.chk"
 -----
 titel
 -----
 Charge =  0 Multiplicity = 1

                         Standard orientation:
 ---------------------------------------------------------------------
 Center     Atomic      Atomic             Coordinates (Angstroms)
 Number     Number       Type             X           Y           Z
 ---------------------------------------------------------------------
      1          6           0       -1.733528    1.775875   -0.413845
      2          6           0       -0.583762    0.945378   -0.988255
      3          6           0       -0.084014   -0.199293   -0.051638
      4          6           0        0.630468    0.352920    1.215640
      5          8           0        1.675583    1.241595    0.899275
      6          6           0        0.906855   -1.026171   -0.884056
      7          8           0        2.101774   -1.026941   -0.721151
      8          6           0       -1.169261   -1.097992    0.331922
      9          6           0       -2.032413   -1.871363    0.653882
     10          1           0       -2.049450    2.528222   -1.142476
     11          1           0       -2.597031    1.148399   -0.176063
     12          1           0       -1.433132    2.304336    0.495266
     13          1           0       -0.894590    0.502160   -1.941964
     14          1           0        0.279628    1.586773   -1.187033
     15          1           0       -0.092202    0.903517    1.823039
     16          1           0        0.981705   -0.500623    1.811789
     17          1           0        2.347241    0.707558    0.455031
     18          1           0        0.436056   -1.630812   -1.687609
     19          1           0       -2.803145   -2.542880    0.943127
 ---------------------------------------------------------------------

 SCF Done:  E(RB3LYP) =  -423.156019255     A.U. after    1 cycles

 The electronic state is 1-A.
 Alpha  occ. eigenvalues --  -19.16396 -19.13402 -10.28997 -10.23553 -10.23052
 Alpha  occ. eigenvalues --  -10.20084 -10.19634 -10.18973 -10.18154  -1.07119
 Alpha  occ. eigenvalues --   -1.01829  -0.84180  -0.75618  -0.72693  -0.67346
 Alpha  occ. eigenvalues --   -0.61774  -0.59036  -0.54441  -0.51077  -0.49883
 Alpha  occ. eigenvalues --   -0.47454  -0.45790  -0.44495  -0.42037  -0.41185
 Alpha  occ. eigenvalues --   -0.40037  -0.37024  -0.35968  -0.35393  -0.33673
 Alpha  occ. eigenvalues --   -0.29742  -0.29193  -0.26762  -0.25650
 Alpha virt. eigenvalues --   -0.04274   0.03613   0.04893   0.08932   0.11406
 Alpha virt. eigenvalues --    0.11603   0.12510   0.12947   0.14764   0.15870
 Alpha virt. eigenvalues --    0.17560   0.18056   0.19163   0.21741   0.22796

 Mulliken charges:
               1
     1  C   -0.403182
     2  C   -0.201108
     3  C   -0.061636
     4  C   -0.091667
     5  O   -0.425515
     6  C    0.150868
     7  O   -0.267894
     8  C    0.310100
     9  C   -0.460064
    10  H    0.120450
    11  H    0.131627
    12  H    0.131391
    13  H    0.102838
    14  H    0.128901
    15  H    0.121075
    16  H    0.106590
    17  H    0.297205
    18  H    0.105707
    19  H    0.204316
 Sum of Mulliken charges =   0.00000

 Dipole moment (field-independent basis, Debye):
    X=             -2.2120    Y=             -0.7860    Z=             -0.6354  Tot=              2.4319
 Quadrupole moment (field-independent basis, Debye-Ang):
   XX=            -55.3117   YY=            -53.7290   ZZ=            -52.4705
   XY=              1.8064   XZ=             -0.7667   YZ=             -2.5142

  Exact polarizability:  88.925   8.111  79.354  -3.607  -2.597  66.307
 Approx polarizability: 138.776  20.588 115.883  -8.242  -5.591  96.515

                      1                      2                      3
                      A                      A                      A
 Frequencies --     62.4382                82.3919               135.4491
 Red. masses --      2.4794                 4.4293                 3.9469
 Frc consts  --      0.0057                 0.0177                 0.0427
 IR Inten    --      0.6077                 1.7772                 0.1969

                      4                      5                      6
                      A                      A                      A
 Frequencies --    152.7334               171.2757               217.8692
 Red. masses --      3.4350                 2.0536                 2.3130
 Frc consts  --      0.0472                 0.0355                 0.0647
 IR Inten    --      3.6482                 4.0020                 2.2554

                      7                      8                      9
                      A                      A                      A
 Frequencies --    263.3903               274.2455               309.7852
 Red. masses --      2.3404                 1.9386                 2.5676
 Frc consts  --      0.0957                 0.0859                 0.1452
 IR Inten    --      2.2286                 2.5290                 7.1349

                     10                     11                     12
                      A                      A                      A
 Frequencies --    366.2490               449.0063               505.9021
 Red. masses --      3.3364                 4.0950                 6.0314
 Frc consts  --      0.2637                 0.4864                 0.9095
 IR Inten    --      0.7674                 0.7229                 9.9777

                     13                     14                     15
                      A                      A                      A
 Frequencies --    512.7162               579.2075               602.2932
 Red. masses --      5.2288                 1.2951                 2.5687
 Frc consts  --      0.8099                 0.2560                 0.5490
 IR Inten    --      9.3388               107.4971                32.1128

                     16                     17                     18
                      A                      A                      A
 Frequencies --    637.8019               654.5526               759.7790
 Red. masses --      1.2285                 1.2406                 2.4526
 Frc consts  --      0.2944                 0.3132                 0.8342
 IR Inten    --     43.1137                44.0675                 5.4821

                     19                     20                     21
                      A                      A                      A
 Frequencies --    786.4434               878.8494               956.0619
 Red. masses --      1.4407                 2.5617                 1.9006
 Frc consts  --      0.5250                 1.1658                 1.0236
 IR Inten    --     11.7489                18.6327                 5.6207

                     22                     23                     24
                      A                      A                      A
 Frequencies --   1003.3812              1027.6471              1044.1919
 Red. masses --      1.5562                 2.0039                 2.4763
 Frc consts  --      0.9231                 1.2469                 1.5908
 IR Inten    --     11.0149                 8.3597                11.1409

                     25                     26                     27
                      A                      A                      A
 Frequencies --   1085.2828              1106.9228              1175.9625
 Red. masses --      3.7448                 2.9969                 3.5234
 Frc consts  --      2.5987                 2.1635                 2.8708
 IR Inten    --    112.8225                 2.8054                 3.3137

                     28                     29                     30
                      A                      A                      A
 Frequencies --   1194.5613              1250.6217              1326.0142
 Red. masses --      2.5222                 1.2664                 1.1899
 Frc consts  --      2.1205                 1.1670                 1.2327
 IR Inten    --      7.0531                17.8490                 0.6313

                     31                     32                     33
                      A                      A                      A
 Frequencies --   1363.9688              1385.5856              1408.2441
 Red. masses --      1.3548                 1.2222                 1.2291
 Frc consts  --      1.4850                 1.3825                 1.4361
 IR Inten    --      6.4457                 2.0956                 3.3390

                     34                     35                     36
                      A                      A                      A
 Frequencies --   1422.5368              1437.2931              1478.0684
 Red. masses --      1.2298                 1.2090                 1.0794
 Frc consts  --      1.4662                 1.4715                 1.3894
 IR Inten    --     11.4548                73.3377                 3.1197

                     37                     38                     39
                      A                      A                      A
 Frequencies --   1491.8757              1501.9095              1509.2887
 Red. masses --      1.0550                 1.0547                 1.0588
 Frc consts  --      1.3834                 1.4017                 1.4211
 IR Inten    --      0.7283                 6.2836                 3.1290

                     40                     41                     42
                      A                      A                      A
 Frequencies --   1810.8550              2225.6494              2914.9036
 Red. masses --     10.3718                 5.9439                 1.0855
 Frc consts  --     20.0388                17.3476                 5.4340
 IR Inten    --    177.1420                 0.5236                74.9950

                     43                     44                     45
                      A                      A                      A
 Frequencies --   3012.1686              3034.2448              3045.6788
 Red. masses --      1.0684                 1.0640                 1.0349
 Frc consts  --      5.7113                 5.7716                 5.6560
 IR Inten    --     38.7418                21.5264                18.1626

                     46                     47                     48
                      A                      A                      A
 Frequencies --   3091.7764              3099.8501              3114.2098
 Red. masses --      1.0976                 1.0958                 1.1008
 Frc consts  --      6.1819                 6.2037                 6.2898
 IR Inten    --      2.4256                22.1744                23.8638

                     49                     50                     51
                      A                      A                      A
 Frequencies --   3124.4788              3498.7523              3766.6198
 Red. masses --      1.1025                 1.1614                 1.0650
 Frc consts  --      6.3414                 8.3762                 8.9027
 IR Inten    --     23.6672                74.0820                65.9467

 - Thermochemistry -
 -------------------
 Temperature   298.150 Kelvin.  Pressure   1.00000 Atm.
 Atom     1 has atomic number  6 and mass  12.00000

 Molecular mass:   126.06808 amu.
 Principal axes and moments of inertia in atomic units:
                           1         2         3
     Eigenvalues --   976.674931253.266481616.36333
           X            0.99848  -0.05260   0.01642
           Y            0.05313   0.99801  -0.03386
           Z           -0.01461   0.03468   0.99929
 This molecule is an asymmetric top.
 Rotational symmetry number  1.
 Warning -- assumption of classical behavior for rotation
           may cause significant error
 Rotational temperatures (Kelvin)      0.08868     0.06911     0.05359
 Rotational constants (GHZ):           1.84784     1.44003     1.11654
 Zero-point vibrational energy     408590.4 (Joules/Mol)
                                   97.65545 (Kcal/Mol)
 Warning -- explicit consideration of  15 degrees of freedom as
           vibrations may cause significant error
 Vibrational temperatures:     89.83   118.54   194.88   219.75   246.43
          (Kelvin)            313.46   378.96   394.58   445.71   526.95
                              646.02   727.88   737.68   833.35   866.56
                              917.65   941.75  1093.15  1131.52  1264.47
                             1375.56  1443.64  1478.55  1502.36  1561.48
                             1592.61  1691.95  1718.71  1799.36  1907.84
                             1962.44  1993.55  2026.15  2046.71  2067.94
                             2126.61  2146.47  2160.91  2171.53  2605.41
                             3202.21  4193.89  4333.83  4365.60  4382.05
                             4448.37  4459.99  4480.65  4495.42  5033.92
                             5419.32

 Zero-point correction=                           0.155624 (Hartree/Particle)
 Thermal correction to Energy=                    0.166002
 Thermal correction to Enthalpy=                  0.166946
 Thermal correction to Gibbs Free Energy=         0.120188
 Sum of electronic and zero-point Energies=           -423.000395
 Sum of electronic and thermal Energies=              -422.990017
 Sum of electronic and thermal Enthalpies=            -422.989073
 Sum of electronic and thermal Free Energies=         -423.035831

                     E (Thermal)             CV                S
                      KCal/Mol        Cal/Mol-Kelvin    Cal/Mol-Kelvin
 Total                  104.168             37.428             98.411
 Electronic               0.000              0.000              0.000
 Translational            0.889              2.981             40.409
 Rotational               0.889              2.981             29.072
 Vibrational            102.390             31.466             28.931
 Vibration     1          0.597              1.972              4.379
 Vibration     2          0.600              1.961              3.833
 Vibration     3          0.613              1.918              2.867
 Vibration     4          0.619              1.900              2.638
 Vibration     5          0.626              1.878              2.421
 Vibration     6          0.646              1.814              1.977
 Vibration     7          0.670              1.740              1.639
 Vibration     8          0.677              1.721              1.569
 Vibration     9          0.699              1.655              1.363
 Vibration    10          0.739              1.542              1.095
 Vibration    11          0.808              1.363              0.799
 Vibration    12          0.861              1.237              0.644
 Vibration    13          0.868              1.222              0.627
 Vibration    14          0.936              1.076              0.487
 Vibration    15          0.961              1.027              0.446

 Optimization completed.
    -- Stationary point found.
 Normal termination of Gaussian 09 at Tue Jan 28 09:08:45 2020.
