 Gaussian 09, Revision D.01,
 Gaussian 09:  ES64L-G09RevD.01 24-Apr-2013

 -----------------------------
 # b3lyp 6-31G(2df,p) opt Freq
 -----------------------------

 -----
 titel
 -----
 Symbolic Z-matrix:
 Charge =  0 Multiplicity = 1

 SCF Done:  E(RB3LYP) =  -423.123195649     A.U. after   13 cycles
 Optimization completed.
    -- Stationary point found.
 Normal termination of Gaussian 09 at Mon Jan 27 12:11:27 2020.

 ----------------------------------------------------------------------
 #N Geom=AllCheck Guess=TCheck SCRF=Check GenChk RB3LYP/6-31G(2df,p) Fr
 eq
 ----------------------------------------------------------------------

 Structure from the checkpoint file:  "/scratch/puck/g09_601d093b-47da-4b0a-af9e-e1e4759edf2b/Gau-35062.chk"
 -----
 titel
 -----
 Charge =  0 Multiplicity = 1

                         Standard orientation:
 ---------------------------------------------------------------------
 Center     Atomic      Atomic             Coordinates (Angstroms)
 Number     Number       Type             X           Y           Z
 ---------------------------------------------------------------------
      1          6           0       -2.813505   -0.541096   -0.365541
      2          6           0       -2.671871    0.902114    0.039231
      3          6           0       -1.603205   -0.097711    0.417655
      4          6           0       -0.266948   -0.027169   -0.253618
      5          8           0        0.455529   -1.300443   -0.185275
      6          6           0        1.527767   -0.717619    0.568608
      7          6           0        2.631986   -0.093122   -0.300751
      8          8           0        1.917988    1.170957   -0.358185
      9          6           0        0.879722    0.677727    0.505252
     10          1           0       -3.551873   -1.150919    0.142262
     11          1           0       -2.671023   -0.793320   -1.410977
     12          1           0       -2.437019    1.626315   -0.734099
     13          1           0       -3.310373    1.286337    0.826407
     14          1           0       -1.564604   -0.399909    1.460882
     15          1           0       -0.364686    0.319729   -1.290349
     16          1           0        1.799701   -1.298644    1.451506
     17          1           0        3.603707    0.026407    0.195048
     18          1           0        2.765084   -0.553533   -1.285446
     19          1           0        0.639267    1.354678    1.327424
 ---------------------------------------------------------------------

 SCF Done:  E(RB3LYP) =  -423.123195649     A.U. after    1 cycles

 The electronic state is 1-A.
 Alpha  occ. eigenvalues --  -19.13799 -19.13574 -10.23813 -10.23679 -10.23463
 Alpha  occ. eigenvalues --  -10.23065 -10.19427 -10.19091 -10.18892  -1.06705
 Alpha  occ. eigenvalues --   -1.00995  -0.86171  -0.73456  -0.71578  -0.66119
 Alpha  occ. eigenvalues --   -0.60311  -0.58447  -0.53558  -0.52478  -0.49494
 Alpha  occ. eigenvalues --   -0.48901  -0.47258  -0.45401  -0.41293  -0.40843
 Alpha  occ. eigenvalues --   -0.37139  -0.36811  -0.35447  -0.34191  -0.30350
 Alpha  occ. eigenvalues --   -0.29601  -0.28734  -0.25473  -0.24420
 Alpha virt. eigenvalues --    0.06237   0.09100   0.09468   0.10421   0.11531
 Alpha virt. eigenvalues --    0.12987   0.13927   0.14192   0.15660   0.16197
 Alpha virt. eigenvalues --    0.16951   0.18508   0.19460   0.19886   0.22277

 Mulliken charges:
               1
     1  C   -0.266232
     2  C   -0.274640
     3  C    0.016285
     4  C    0.094369
     5  O   -0.312704
     6  C    0.063478
     7  C   -0.096284
     8  O   -0.295669
     9  C    0.040018
    10  H    0.116007
    11  H    0.119710
    12  H    0.118131
    13  H    0.115762
    14  H    0.084078
    15  H    0.084506
    16  H    0.088452
    17  H    0.103446
    18  H    0.114389
    19  H    0.086898
 Sum of Mulliken charges =   0.00000

 Dipole moment (field-independent basis, Debye):
    X=             -0.4440    Y=              0.0072    Z=              1.2512  Tot=              1.3276
 Quadrupole moment (field-independent basis, Debye-Ang):
   XX=            -49.3949   YY=            -57.7581   ZZ=            -50.7353
   XY=             -3.3931   XZ=              0.9428   YZ=              0.1463

  Exact polarizability:  95.843  -3.158  66.571   0.589   0.445  65.291
 Approx polarizability: 116.081  -3.497 104.836   1.258   0.087  99.236

                      1                      2                      3
                      A                      A                      A
 Frequencies --     76.0185                89.4319               146.9012
 Red. masses --      3.2717                 3.2418                 2.7641
 Frc consts  --      0.0111                 0.0153                 0.0351
 IR Inten    --      0.2698                 2.0754                 0.2373

                      4                      5                      6
                      A                      A                      A
 Frequencies --    235.0590               308.6732               374.3128
 Red. masses --      3.2832                 3.6371                 2.9124
 Frc consts  --      0.1069                 0.2042                 0.2404
 IR Inten    --      5.6703                 0.3123                 2.3291

                      7                      8                      9
                      A                      A                      A
 Frequencies --    414.0677               480.6215               741.8480
 Red. masses --      3.7530                 3.1656                 3.9039
 Frc consts  --      0.3791                 0.4308                 1.2658
 IR Inten    --      2.5563                 6.9473                 7.8789

                     10                     11                     12
                      A                      A                      A
 Frequencies --    775.4090               800.5460               828.4289
 Red. masses --      1.1501                 1.6715                 1.2907
 Frc consts  --      0.4074                 0.6311                 0.5219
 IR Inten    --      0.7365                 5.7144                 2.5053

                     13                     14                     15
                      A                      A                      A
 Frequencies --    859.5290               877.5393               921.2467
 Red. masses --      2.5600                 2.0040                 3.9405
 Frc consts  --      1.1143                 0.9092                 1.9704
 IR Inten    --      9.6369                 6.0046                45.2827

                     16                     17                     18
                      A                      A                      A
 Frequencies --    929.2974               948.4790               974.3546
 Red. masses --      3.5011                 3.2872                 2.4874
 Frc consts  --      1.7814                 1.7423                 1.3913
 IR Inten    --      7.8896                24.5266                 1.8149

                     19                     20                     21
                      A                      A                      A
 Frequencies --    987.9277              1003.4572              1036.2985
 Red. masses --      3.9467                 4.5853                 2.2294
 Frc consts  --      2.2695                 2.7203                 1.4106
 IR Inten    --     16.1116                89.4341                27.8731

                     22                     23                     24
                      A                      A                      A
 Frequencies --   1061.6905              1070.7520              1080.9655
 Red. masses --      1.3410                 3.3849                 1.3679
 Frc consts  --      0.8906                 2.2865                 0.9417
 IR Inten    --      5.3544               115.4836                 0.9141

                     25                     26                     27
                      A                      A                      A
 Frequencies --   1086.3251              1132.9117              1163.7023
 Red. masses --      2.5576                 1.1365                 1.1817
 Frc consts  --      1.7783                 0.8595                 0.9428
 IR Inten    --     12.5494                 1.3942                10.4971

                     28                     29                     30
                      A                      A                      A
 Frequencies --   1187.0529              1195.7956              1205.5516
 Red. masses --      2.0165                 1.3953                 1.4950
 Frc consts  --      1.6741                 1.1755                 1.2801
 IR Inten    --      9.5505                 0.4567                 1.3044

                     31                     32                     33
                      A                      A                      A
 Frequencies --   1215.0659              1227.1781              1251.2285
 Red. masses --      1.8155                 1.7980                 1.6710
 Frc consts  --      1.5792                 1.5954                 1.5413
 IR Inten    --      1.7373                 4.7918                 0.9289

                     34                     35                     36
                      A                      A                      A
 Frequencies --   1295.9903              1306.5081              1338.3187
 Red. masses --      1.2736                 1.3526                 1.3805
 Frc consts  --      1.2603                 1.3603                 1.4568
 IR Inten    --     15.6594                 1.3199                 6.1014

                     37                     38                     39
                      A                      A                      A
 Frequencies --   1359.2152              1435.6105              1470.0234
 Red. masses --      1.5571                 1.6796                 1.0866
 Frc consts  --      1.6949                 2.0395                 1.3835
 IR Inten    --      0.1175                 8.7157                 1.4060

                     40                     41                     42
                      A                      A                      A
 Frequencies --   1500.5929              1505.7791              3017.6178
 Red. masses --      1.1056                 1.3949                 1.0580
 Frc consts  --      1.4668                 1.8635                 5.6763
 IR Inten    --      0.9112                 1.0782                70.2904

                     43                     44                     45
                      A                      A                      A
 Frequencies --   3028.5319              3080.0464              3089.0731
 Red. masses --      1.0852                 1.1065                 1.0884
 Frc consts  --      5.8642                 6.1844                 6.1191
 IR Inten    --     27.1471                28.7412                33.6435

                     46                     47                     48
                      A                      A                      A
 Frequencies --   3101.7888              3133.5862              3137.3510
 Red. masses --      1.0938                 1.0511                 1.0599
 Frc consts  --      6.2001                 6.0813                 6.1469
 IR Inten    --     47.8352                17.2532                16.2631

                     49                     50                     51
                      A                      A                      A
 Frequencies --   3143.5192              3212.4228              3227.2754
 Red. masses --      1.0869                 1.1177                 1.1154
 Frc consts  --      6.3281                 6.7957                 6.8449
 IR Inten    --      7.7182                 0.4218                17.0801

 - Thermochemistry -
 -------------------
 Temperature   298.150 Kelvin.  Pressure   1.00000 Atm.
 Atom     1 has atomic number  6 and mass  12.00000

 Molecular mass:   126.06808 amu.
 Principal axes and moments of inertia in atomic units:
                           1         2         3
     Eigenvalues --   401.217021737.656131940.34391
           X            0.99993  -0.01174   0.00241
           Y            0.01172   0.99990   0.00784
           Z           -0.00250  -0.00781   0.99997
 This molecule is an asymmetric top.
 Rotational symmetry number  1.
 Rotational temperatures (Kelvin)      0.21588     0.04985     0.04464
 Rotational constants (GHZ):           4.49817     1.03861     0.93011
 Zero-point vibrational energy     419117.2 (Joules/Mol)
                                  100.17140 (Kcal/Mol)
 Warning -- explicit consideration of   8 degrees of freedom as
           vibrations may cause significant error
 Vibrational temperatures:    109.37   128.67   211.36   338.20   444.11
          (Kelvin)            538.55   595.75   691.51  1067.35  1115.64
                             1151.81  1191.92  1236.67  1262.58  1325.47
                             1337.05  1364.65  1401.88  1421.41  1443.75
                             1491.00  1527.53  1540.57  1555.27  1562.98
                             1630.01  1674.31  1707.90  1720.48  1734.52
                             1748.21  1765.63  1800.24  1864.64  1879.77
                             1925.54  1955.61  2065.52  2115.03  2159.02
                             2166.48  4341.67  4357.38  4431.49  4444.48
                             4462.78  4508.53  4513.94  4522.82  4621.95
                             4643.32

 Zero-point correction=                           0.159633 (Hartree/Particle)
 Thermal correction to Energy=                    0.167492
 Thermal correction to Enthalpy=                  0.168436
 Thermal correction to Gibbs Free Energy=         0.126588
 Sum of electronic and zero-point Energies=           -422.963562
 Sum of electronic and thermal Energies=              -422.955704
 Sum of electronic and thermal Enthalpies=            -422.954760
 Sum of electronic and thermal Free Energies=         -422.996607

                     E (Thermal)             CV                S
                      KCal/Mol        Cal/Mol-Kelvin    Cal/Mol-Kelvin
 Total                  105.103             29.902             88.075
 Electronic               0.000              0.000              0.000
 Translational            0.889              2.981             40.409
 Rotational               0.889              2.981             28.694
 Vibrational            103.325             23.940             18.973
 Vibration     1          0.599              1.965              3.991
 Vibration     2          0.602              1.957              3.672
 Vibration     3          0.617              1.906              2.712
 Vibration     4          0.655              1.787              1.840
 Vibration     5          0.698              1.657              1.369
 Vibration     6          0.745              1.525              1.062
 Vibration     7          0.778              1.440              0.912
 Vibration     8          0.837              1.293              0.708

 Normal termination of Gaussian 09 at Mon Jan 27 12:51:10 2020.
