 Gaussian 09, Revision D.01,
 Gaussian 09:  ES64L-G09RevD.01 24-Apr-2013

 -----------------------------
 # b3lyp 6-31G(2df,p) opt Freq
 -----------------------------

 -----
 titel
 -----
 Symbolic Z-matrix:
 Charge =  0 Multiplicity = 1

 SCF Done:  E(RB3LYP) =  -423.176866316     A.U. after   14 cycles
 Optimization completed.
    -- Stationary point found.
 Normal termination of Gaussian 09 at Tue Jan 28 09:42:28 2020.

 ----------------------------------------------------------------------
 #N Geom=AllCheck Guess=TCheck SCRF=Check GenChk RB3LYP/6-31G(2df,p) Fr
 eq
 ----------------------------------------------------------------------

 Structure from the checkpoint file:  "/scratch/puck/g09_ee58fece-5bf3-48da-b0da-0bbf0a44e563/Gau-147213.chk"
 -----
 titel
 -----
 Charge =  0 Multiplicity = 1

                         Standard orientation:
 ---------------------------------------------------------------------
 Center     Atomic      Atomic             Coordinates (Angstroms)
 Number     Number       Type             X           Y           Z
 ---------------------------------------------------------------------
      1          6           0        2.931490   -0.880124    0.038976
      2          6           0        1.592283   -0.227867   -0.082711
      3          6           0        1.292641    0.895970   -0.747904
      4          6           0       -0.137147    1.262765   -0.546468
      5          8           0       -0.483812    1.520085    0.840407
      6          6           0       -0.734826    0.216306    0.309405
      7          6           0       -2.182870   -0.208317    0.260802
      8          8           0       -2.397711   -1.288109   -0.636528
      9          6           0        0.365294   -0.797637    0.612038
     10          1           0        3.270016   -0.893692    1.082791
     11          1           0        2.893663   -1.926729   -0.288855
     12          1           0        3.688135   -0.360720   -0.555069
     13          1           0        1.989777    1.492698   -1.323970
     14          1           0       -0.699394    1.851051   -1.266930
     15          1           0       -2.500203   -0.574665    1.243623
     16          1           0       -2.801765    0.668038    0.020798
     17          1           0       -2.165665   -0.982410   -1.519799
     18          1           0        0.522039   -0.910091    1.692005
     19          1           0        0.094377   -1.785866    0.219547
 ---------------------------------------------------------------------

 SCF Done:  E(RB3LYP) =  -423.176866316     A.U. after    1 cycles

 The electronic state is 1-A.
 Alpha  occ. eigenvalues --  -19.14421 -19.14249 -10.23442 -10.23339 -10.23149
 Alpha  occ. eigenvalues --  -10.19617 -10.18679 -10.18643 -10.17772  -1.06531
 Alpha  occ. eigenvalues --   -1.02153  -0.82772  -0.73950  -0.72113  -0.68820
 Alpha  occ. eigenvalues --   -0.62525  -0.56677  -0.53330  -0.52346  -0.47899
 Alpha  occ. eigenvalues --   -0.45234  -0.44170  -0.42900  -0.42567  -0.40954
 Alpha  occ. eigenvalues --   -0.39448  -0.38175  -0.36596  -0.34660  -0.33719
 Alpha  occ. eigenvalues --   -0.30150  -0.28484  -0.25334  -0.23660
 Alpha virt. eigenvalues --    0.00485   0.06786   0.10229   0.10783   0.12633
 Alpha virt. eigenvalues --    0.13684   0.14354   0.15226   0.15876   0.16846
 Alpha virt. eigenvalues --    0.17286   0.17823   0.19179   0.21201   0.22714

 Mulliken charges:
               1
     1  C   -0.486189
     2  C    0.312681
     3  C   -0.191661
     4  C   -0.071024
     5  O   -0.302979
     6  C    0.372633
     7  C   -0.166107
     8  O   -0.408097
     9  C   -0.373706
    10  H    0.132703
    11  H    0.127095
    12  H    0.125784
    13  H    0.094356
    14  H    0.089151
    15  H    0.116907
    16  H    0.100825
    17  H    0.284871
    18  H    0.119609
    19  H    0.123148
 Sum of Mulliken charges =   0.00000

 Dipole moment (field-independent basis, Debye):
    X=              1.0431    Y=             -0.4327    Z=             -1.5167  Tot=              1.8910
 Quadrupole moment (field-independent basis, Debye-Ang):
   XX=            -52.5044   YY=            -56.9167   ZZ=            -50.4153
   XY=             -3.3522   XZ=              1.1273   YZ=             -4.2047

  Exact polarizability:  87.738  -5.049  76.842  -2.328  -9.786  65.826
 Approx polarizability: 108.755  -6.798 126.694  -3.148 -16.270 107.602

                      1                      2                      3
                      A                      A                      A
 Frequencies --     90.2462               111.5874               179.0146
 Red. masses --      3.0849                 3.5630                 1.1357
 Frc consts  --      0.0148                 0.0261                 0.0214
 IR Inten    --      3.9569                 0.4708                 0.1063

                      4                      5                      6
                      A                      A                      A
 Frequencies --    214.3250               238.9364               325.8525
 Red. masses --      3.0322                 2.0112                 2.5773
 Frc consts  --      0.0821                 0.0676                 0.1612
 IR Inten    --      1.9708                 6.2693                 0.4218

                      7                      8                      9
                      A                      A                      A
 Frequencies --    342.3632               391.6536               425.4784
 Red. masses --      1.3648                 1.8448                 3.1996
 Frc consts  --      0.0943                 0.1667                 0.3413
 IR Inten    --     98.2694                25.7923                 5.1090

                     10                     11                     12
                      A                      A                      A
 Frequencies --    480.9165               525.3800               569.3566
 Red. masses --      3.4698                 4.0199                 3.8317
 Frc consts  --      0.4728                 0.6537                 0.7318
 IR Inten    --      7.5507                 1.7425                17.2803

                     13                     14                     15
                      A                      A                      A
 Frequencies --    686.1690               744.9872               821.1973
 Red. masses --      4.0364                 3.9735                 1.8857
 Frc consts  --      1.1197                 1.2993                 0.7492
 IR Inten    --      0.9772                10.4111                 7.4101

                     16                     17                     18
                      A                      A                      A
 Frequencies --    863.2574               880.5284               900.6611
 Red. masses --      2.5354                 3.3168                 3.1971
 Frc consts  --      1.1132                 1.5151                 1.5280
 IR Inten    --     39.1489                 4.8556                 8.9821

                     19                     20                     21
                      A                      A                      A
 Frequencies --    948.7129               970.5055               992.0961
 Red. masses --      1.7850                 1.5431                 1.7239
 Frc consts  --      0.9466                 0.8563                 0.9997
 IR Inten    --      0.9423                 7.4632                 5.7293

                     22                     23                     24
                      A                      A                      A
 Frequencies --   1032.2933              1058.2220              1073.8763
 Red. masses --      1.4338                 2.4785                 2.3298
 Frc consts  --      0.9002                 1.6353                 1.5830
 IR Inten    --      4.6834                44.4718                34.9435

                     25                     26                     27
                      A                      A                      A
 Frequencies --   1095.8897              1165.4315              1179.0657
 Red. masses --      2.1020                 1.3979                 1.4955
 Frc consts  --      1.4873                 1.1186                 1.2249
 IR Inten    --      9.7203                16.5739                 2.7420

                     28                     29                     30
                      A                      A                      A
 Frequencies --   1191.4538              1240.8047              1278.2616
 Red. masses --      1.5265                 1.8874                 1.4175
 Frc consts  --      1.2767                 1.7121                 1.3646
 IR Inten    --     15.7654                 3.5195                 2.4853

                     31                     32                     33
                      A                      A                      A
 Frequencies --   1318.3164              1343.9974              1362.5556
 Red. masses --      2.3635                 2.1932                 1.3275
 Frc consts  --      2.4202                 2.3341                 1.4521
 IR Inten    --      6.4076                16.7330                 3.6760

                     34                     35                     36
                      A                      A                      A
 Frequencies --   1413.0594              1416.0538              1442.8095
 Red. masses --      1.3041                 1.2494                 2.6901
 Frc consts  --      1.5342                 1.4761                 3.2994
 IR Inten    --      0.3487                51.2031                 5.7592

                     37                     38                     39
                      A                      A                      A
 Frequencies --   1459.1478              1478.9350              1486.3603
 Red. masses --      1.2520                 1.0472                 1.0687
 Frc consts  --      1.5705                 1.3495                 1.3911
 IR Inten    --      2.0861                 6.9640                 8.0237

                     40                     41                     42
                      A                      A                      A
 Frequencies --   1503.0976              1695.3978              3005.4779
 Red. masses --      1.0841                 6.6856                 1.0651
 Frc consts  --      1.4431                11.3223                 5.6686
 IR Inten    --      0.8009                14.8805                46.5185

                     43                     44                     45
                      A                      A                      A
 Frequencies --   3018.1998              3030.1590              3064.3185
 Red. masses --      1.0386                 1.0583                 1.1001
 Frc consts  --      5.5744                 5.7250                 6.0861
 IR Inten    --     23.0650                20.6413                 1.7582

                     46                     47                     48
                      A                      A                      A
 Frequencies --   3066.7561              3069.3018              3112.7365
 Red. masses --      1.1002                 1.0981                 1.0993
 Frc consts  --      6.0967                 6.0951                 6.2754
 IR Inten    --     22.0968                28.3635                18.3559

                     49                     50                     51
                      A                      A                      A
 Frequencies --   3148.4158              3203.1004              3810.0881
 Red. masses --      1.0902                 1.0949                 1.0661
 Frc consts  --      6.3670                 6.6187                 9.1185
 IR Inten    --     30.2013                13.7858                14.2628

 - Thermochemistry -
 -------------------
 Temperature   298.150 Kelvin.  Pressure   1.00000 Atm.
 Atom     1 has atomic number  6 and mass  12.00000

 Molecular mass:   126.06808 amu.
 Principal axes and moments of inertia in atomic units:
                           1         2         3
     Eigenvalues --   618.482011490.930931780.70511
           X            0.99957  -0.02923   0.00127
           Y            0.02925   0.99718  -0.06909
           Z            0.00075   0.06910   0.99761
 This molecule is an asymmetric top.
 Rotational symmetry number  1.
 Warning -- assumption of classical behavior for rotation
           may cause significant error
 Rotational temperatures (Kelvin)      0.14004     0.05809     0.04864
 Rotational constants (GHZ):           2.91802     1.21048     1.01350
 Zero-point vibrational energy     415503.8 (Joules/Mol)
                                   99.30779 (Kcal/Mol)
 Warning -- explicit consideration of  12 degrees of freedom as
           vibrations may cause significant error
 Vibrational temperatures:    129.84   160.55   257.56   308.37   343.78
          (Kelvin)            468.83   492.58   563.50   612.17   691.93
                              755.90   819.18   987.24  1071.87  1181.52
                             1242.03  1266.88  1295.85  1364.98  1396.34
                             1427.40  1485.24  1522.54  1545.07  1576.74
                             1676.79  1696.41  1714.23  1785.24  1839.13
                             1896.76  1933.71  1960.41  2033.07  2037.38
                             2075.88  2099.39  2127.85  2138.54  2162.62
                             2439.30  4324.21  4342.51  4359.72  4408.87
                             4412.37  4416.04  4478.53  4529.86  4608.54
                             5481.86

 Zero-point correction=                           0.158257 (Hartree/Particle)
 Thermal correction to Energy=                    0.167028
 Thermal correction to Enthalpy=                  0.167972
 Thermal correction to Gibbs Free Energy=         0.124873
 Sum of electronic and zero-point Energies=           -423.018609
 Sum of electronic and thermal Energies=              -423.009839
 Sum of electronic and thermal Enthalpies=            -423.008894
 Sum of electronic and thermal Free Energies=         -423.051993

                     E (Thermal)             CV                S
                      KCal/Mol        Cal/Mol-Kelvin    Cal/Mol-Kelvin
 Total                  104.811             33.339             90.709
 Electronic               0.000              0.000              0.000
 Translational            0.889              2.981             40.409
 Rotational               0.889              2.981             28.886
 Vibrational            103.034             27.378             21.414
 Vibration     1          0.602              1.956              3.655
 Vibration     2          0.607              1.940              3.241
 Vibration     3          0.629              1.868              2.339
 Vibration     4          0.644              1.819              2.007
 Vibration     5          0.657              1.781              1.811
 Vibration     6          0.710              1.624              1.281
 Vibration     7          0.721              1.591              1.201
 Vibration     8          0.759              1.488              0.994
 Vibration     9          0.787              1.415              0.874
 Vibration    10          0.837              1.292              0.708
 Vibration    11          0.880              1.194              0.598
 Vibration    12          0.925              1.098              0.505

 Normal termination of Gaussian 09 at Tue Jan 28 10:25:25 2020.
