 Gaussian 09, Revision D.01,
 Gaussian 09:  ES64L-G09RevD.01 24-Apr-2013

 -----------------------------
 # b3lyp 6-31G(2df,p) opt Freq
 -----------------------------

 -----
 titel
 -----
 Symbolic Z-matrix:
 Charge =  0 Multiplicity = 1

 SCF Done:  E(RB3LYP) =  -423.197661757     A.U. after   14 cycles
 Optimization completed.
    -- Stationary point found.
 Normal termination of Gaussian 09 at Tue Jan 28 00:42:23 2020.

 ----------------------------------------------------------------------
 #N Geom=AllCheck Guess=TCheck SCRF=Check GenChk RB3LYP/6-31G(2df,p) Fr
 eq
 ----------------------------------------------------------------------

 Structure from the checkpoint file:  "/scratch/puck/g09_7c5e11ad-a91b-48de-a737-09a0e98e3169/Gau-81517.chk"
 -----
 titel
 -----
 Charge =  0 Multiplicity = 1

                         Standard orientation:
 ---------------------------------------------------------------------
 Center     Atomic      Atomic             Coordinates (Angstroms)
 Number     Number       Type             X           Y           Z
 ---------------------------------------------------------------------
      1          6           0        3.257743   -0.001479   -0.504498
      2          6           0        2.022262   -0.474160    0.244159
      3          6           0        0.769977   -0.895583   -0.574840
      4          6           0       -0.121377   -0.182489    0.507859
      5          6           0        1.142290    0.574039    0.981845
      6          6           0       -1.266261    0.615400   -0.038163
      7          8           0       -1.206025    1.773752   -0.388172
      8          6           0       -2.611015   -0.108711   -0.211492
      9          8           0       -2.805172   -1.247303    0.124448
     10          1           0        3.007685    0.805324   -1.202613
     11          1           0        4.017691    0.379348    0.186870
     12          1           0        3.710914   -0.815676   -1.081134
     13          1           0        2.289764   -1.281104    0.935519
     14          1           0        0.724607   -0.369584   -1.533776
     15          1           0        0.587317   -1.958770   -0.740226
     16          1           0       -0.493144   -0.916718    1.225411
     17          1           0        1.192758    1.558037    0.506720
     18          1           0        1.278643    0.690237    2.059207
     19          1           0       -3.388379    0.535211   -0.675402
 ---------------------------------------------------------------------

 SCF Done:  E(RB3LYP) =  -423.197661757     A.U. after    1 cycles

 The electronic state is 1-A.
 Alpha  occ. eigenvalues --  -19.17041 -19.15664 -10.28706 -10.28110 -10.20178
 Alpha  occ. eigenvalues --  -10.19699 -10.19612 -10.18613 -10.17814  -1.07646
 Alpha  occ. eigenvalues --   -1.05846  -0.85901  -0.74576  -0.69626  -0.66880
 Alpha  occ. eigenvalues --   -0.63881  -0.56047  -0.53341  -0.50267  -0.48051
 Alpha  occ. eigenvalues --   -0.47571  -0.44812  -0.44496  -0.41855  -0.41252
 Alpha  occ. eigenvalues --   -0.39778  -0.38409  -0.38064  -0.34043  -0.32863
 Alpha  occ. eigenvalues --   -0.31878  -0.31226  -0.30761  -0.24664
 Alpha virt. eigenvalues --   -0.09292   0.02980   0.08118   0.10030   0.11312
 Alpha virt. eigenvalues --    0.13163   0.14295   0.15180   0.16140   0.16597
 Alpha virt. eigenvalues --    0.17708   0.18527   0.18941   0.19812   0.20940

 Mulliken charges:
               1
     1  C   -0.408539
     2  C    0.058187
     3  C   -0.248750
     4  C   -0.081255
     5  C   -0.261950
     6  C    0.271202
     7  O   -0.287154
     8  C    0.090011
     9  O   -0.219219
    10  H    0.117245
    11  H    0.117995
    12  H    0.116106
    13  H    0.076542
    14  H    0.111271
    15  H    0.115575
    16  H    0.102226
    17  H    0.121537
    18  H    0.102933
    19  H    0.106037
 Sum of Mulliken charges =   0.00000

 Dipole moment (field-independent basis, Debye):
    X=              1.3575    Y=             -0.5554    Z=              0.1985  Tot=              1.4801
 Quadrupole moment (field-independent basis, Debye-Ang):
   XX=            -53.9833   YY=            -59.6419   ZZ=            -51.5972
   XY=             -3.0686   XZ=              0.8513   YZ=              1.3554

  Exact polarizability:  93.408  -0.463  76.370   2.180  -2.228  63.020
 Approx polarizability: 111.068   1.487 133.312   2.051  -9.993  96.390

                      1                      2                      3
                      A                      A                      A
 Frequencies --      4.9747                65.9438               122.9359
 Red. masses --      4.2855                 3.3305                 3.4920
 Frc consts  --      0.0001                 0.0085                 0.0311
 IR Inten    --      0.1752                 0.1120                16.7920

                      4                      5                      6
                      A                      A                      A
 Frequencies --    150.4841               206.7288               239.6398
 Red. masses --      3.4577                 2.4640                 1.3076
 Frc consts  --      0.0461                 0.0620                 0.0442
 IR Inten    --      1.1557                 4.6938                 0.5830

                      7                      8                      9
                      A                      A                      A
 Frequencies --    281.3581               322.0254               406.6271
 Red. masses --      3.5284                 2.4528                 1.9816
 Frc consts  --      0.1646                 0.1499                 0.1930
 IR Inten    --      8.7280                 5.5259                 0.5466

                     10                     11                     12
                      A                      A                      A
 Frequencies --    506.5522               536.5256               604.9970
 Red. masses --      5.3332                 3.7474                 3.0043
 Frc consts  --      0.8063                 0.6356                 0.6479
 IR Inten    --      1.8394                33.7734                 5.3199

                     13                     14                     15
                      A                      A                      A
 Frequencies --    655.2609               747.7053               809.5584
 Red. masses --      3.8418                 2.7739                 1.2483
 Frc consts  --      0.9719                 0.9137                 0.4820
 IR Inten    --     26.9383                 0.6370                 2.8996

                     16                     17                     18
                      A                      A                      A
 Frequencies --    878.9355               900.2033               931.7921
 Red. masses --      3.1351                 2.0813                 1.9831
 Frc consts  --      1.4270                 0.9937                 1.0145
 IR Inten    --      1.1992                 0.0579                 2.6819

                     19                     20                     21
                      A                      A                      A
 Frequencies --    949.0802               985.4076               998.8361
 Red. masses --      1.5605                 2.2713                 1.2211
 Frc consts  --      0.8282                 1.2994                 0.7178
 IR Inten    --      2.6453                 1.1474                 1.6293

                     22                     23                     24
                      A                      A                      A
 Frequencies --   1052.9298              1115.9616              1132.5032
 Red. masses --      2.1817                 2.7724                 1.8196
 Frc consts  --      1.4251                 2.0342                 1.3750
 IR Inten    --      1.5399                 1.9732                 1.8356

                     25                     26                     27
                      A                      A                      A
 Frequencies --   1142.9046              1174.9841              1233.7238
 Red. masses --      1.8622                 2.7197                 1.4088
 Frc consts  --      1.4332                 2.2122                 1.2633
 IR Inten    --      1.9158                22.9896                 9.6769

                     28                     29                     30
                      A                      A                      A
 Frequencies --   1236.5864              1252.9874              1269.8038
 Red. masses --      1.3275                 1.2601                 1.4329
 Frc consts  --      1.1960                 1.1656                 1.3613
 IR Inten    --      1.0944                 1.3771                 0.8137

                     31                     32                     33
                      A                      A                      A
 Frequencies --   1293.5035              1360.6286              1366.9912
 Red. masses --      1.3381                 1.3282                 1.3799
 Frc consts  --      1.3191                 1.4488                 1.5192
 IR Inten    --      0.9642                 2.9826                 5.3073

                     34                     35                     36
                      A                      A                      A
 Frequencies --   1390.3122              1413.3144              1474.3782
 Red. masses --      1.6940                 1.3191                 1.0866
 Frc consts  --      1.9293                 1.5524                 1.3917
 IR Inten    --     34.2333                 5.2479                 1.7720

                     37                     38                     39
                      A                      A                      A
 Frequencies --   1493.6530              1496.1541              1500.4978
 Red. masses --      1.0687                 1.0536                 1.0975
 Frc consts  --      1.4047                 1.3895                 1.4559
 IR Inten    --      0.4495                 2.7998                13.1111

                     40                     41                     42
                      A                      A                      A
 Frequencies --   1792.3937              1822.6854              2919.9561
 Red. masses --     11.3140                10.9863                 1.0878
 Frc consts  --     21.4158                21.5044                 5.4645
 IR Inten    --     88.5076                93.2307               110.3921

                     43                     44                     45
                      A                      A                      A
 Frequencies --   3024.3452              3039.1784              3054.7146
 Red. masses --      1.0351                 1.0841                 1.0593
 Frc consts  --      5.5782                 5.8999                 5.8239
 IR Inten    --     24.8287                12.3909                33.4954

                     46                     47                     48
                      A                      A                      A
 Frequencies --   3062.5723              3092.2432              3092.5547
 Red. masses --      1.0586                 1.0973                 1.0918
 Frc consts  --      5.8500                 6.1818                 6.1520
 IR Inten    --     12.9546                18.0875                10.7140

                     49                     50                     51
                      A                      A                      A
 Frequencies --   3095.0203              3118.6225              3125.3139
 Red. masses --      1.0990                 1.1073                 1.1050
 Frc consts  --      6.2027                 6.3452                 6.3589
 IR Inten    --     27.2688                17.0007                34.2618

 - Thermochemistry -
 -------------------
 Temperature   298.150 Kelvin.  Pressure   1.00000 Atm.
 Atom     1 has atomic number  6 and mass  12.00000

 Molecular mass:   126.06808 amu.
 Principal axes and moments of inertia in atomic units:
                           1         2         3
     Eigenvalues --   522.521151953.895762201.06537
           X            0.99998  -0.00533  -0.00304
           Y            0.00540   0.99974   0.02200
           Z            0.00292  -0.02201   0.99975
 This molecule is an asymmetric top.
 Rotational symmetry number  1.
 Warning -- assumption of classical behavior for rotation
           may cause significant error
 Rotational temperatures (Kelvin)      0.16576     0.04433     0.03935
 Rotational constants (GHZ):           3.45391     0.92366     0.81994
 Zero-point vibrational energy     412394.6 (Joules/Mol)
                                   98.56467 (Kcal/Mol)
 Warning -- explicit consideration of  12 degrees of freedom as
           vibrations may cause significant error
 Vibrational temperatures:      7.16    94.88   176.88   216.51   297.44
          (Kelvin)            344.79   404.81   463.32   585.05   728.81
                              771.94   870.45   942.77  1075.78  1164.77
                             1264.59  1295.19  1340.64  1365.51  1417.78
                             1437.10  1514.93  1605.62  1629.42  1644.38
                             1690.54  1775.05  1779.17  1802.77  1826.96
                             1861.06  1957.64  1966.79  2000.35  2033.44
                             2121.30  2149.03  2152.63  2158.88  2578.85
                             2622.43  4201.16  4351.35  4372.69  4395.05
                             4406.35  4449.04  4449.49  4453.04  4487.00
                             4496.62

 Zero-point correction=                           0.157073 (Hartree/Particle)
 Thermal correction to Energy=                    0.166562
 Thermal correction to Enthalpy=                  0.167506
 Thermal correction to Gibbs Free Energy=         0.119794
 Sum of electronic and zero-point Energies=           -423.040589
 Sum of electronic and thermal Energies=              -423.031100
 Sum of electronic and thermal Enthalpies=            -423.030156
 Sum of electronic and thermal Free Energies=         -423.077867

                     E (Thermal)             CV                S
                      KCal/Mol        Cal/Mol-Kelvin    Cal/Mol-Kelvin
 Total                  104.519             33.545            100.417
 Electronic               0.000              0.000              0.000
 Translational            0.889              2.981             40.409
 Rotational               0.889              2.981             29.198
 Vibrational            102.741             27.583             30.810
 Vibration     1          0.593              1.987              9.398
 Vibration     2          0.597              1.971              4.271
 Vibration     3          0.610              1.930              3.054
 Vibration     4          0.618              1.902              2.666
 Vibration     5          0.641              1.830              2.072
 Vibration     6          0.657              1.780              1.806
 Vibration     7          0.681              1.708              1.525
 Vibration     8          0.707              1.631              1.300
 Vibration     9          0.771              1.456              0.939
 Vibration    10          0.862              1.235              0.642
 Vibration    11          0.892              1.169              0.573
 Vibration    12          0.964              1.021              0.441

 Optimization completed.
    -- Stationary point found.
 Normal termination of Gaussian 09 at Tue Jan 28 01:21:25 2020.
