 Gaussian 09, Revision D.01,
 Gaussian 09:  ES64L-G09RevD.01 24-Apr-2013

 -----------------------------
 # b3lyp 6-31G(2df,p) opt Freq
 -----------------------------

 -----
 titel
 -----
 Symbolic Z-matrix:
 Charge =  0 Multiplicity = 1

 SCF Done:  E(RB3LYP) =  -423.082447061     A.U. after   14 cycles
 Optimization completed.
    -- Stationary point found.
 Normal termination of Gaussian 09 at Tue Jan 28 14:13:03 2020.

 ----------------------------------------------------------------------
 #N Geom=AllCheck Guess=TCheck SCRF=Check GenChk RB3LYP/6-31G(2df,p) Fr
 eq
 ----------------------------------------------------------------------

 Structure from the checkpoint file:  "/scratch/puck/g09_eeaed054-d158-43a0-93dd-643640038108/Gau-44175.chk"
 -----
 titel
 -----
 Charge =  0 Multiplicity = 1

                         Standard orientation:
 ---------------------------------------------------------------------
 Center     Atomic      Atomic             Coordinates (Angstroms)
 Number     Number       Type             X           Y           Z
 ---------------------------------------------------------------------
      1          8           0       -3.334759    0.135075   -0.000025
      2          6           0       -2.000837   -0.355655   -0.000084
      3          6           0       -1.079056    0.861978    0.000089
      4          6           0        0.386307    0.523407    0.000018
      5          6           0        1.607253    1.475407   -0.000045
      6          6           0        2.266936    0.081672   -0.000042
      7          6           0        1.143411   -0.527282    0.889463
      8          8           0        0.874752   -1.654509    0.000043
      9          6           0        1.143345   -0.527320   -0.889439
     10          1           0       -3.929849   -0.620091    0.000264
     11          1           0       -1.802232   -0.979645    0.883456
     12          1           0       -1.802228   -0.979382   -0.883816
     13          1           0       -1.315182    1.476948   -0.877567
     14          1           0       -1.315153    1.476683    0.877937
     15          1           0        1.749094    2.084585   -0.897644
     16          1           0        1.749162    2.084621    0.897518
     17          1           0        3.319086   -0.200162   -0.000075
     18          1           0        1.111668   -0.690620    1.967031
     19          1           0        1.111530   -0.690701   -1.966999
 ---------------------------------------------------------------------

 SCF Done:  E(RB3LYP) =  -423.082447061     A.U. after    1 cycles

 The electronic state is 1-A.
 Alpha  occ. eigenvalues --  -19.12927 -19.12914 -10.24558 -10.24554 -10.22226
 Alpha  occ. eigenvalues --  -10.20700 -10.20167 -10.18994 -10.18213  -1.05971
 Alpha  occ. eigenvalues --   -1.00987  -0.86794  -0.76319  -0.65478  -0.65299
 Alpha  occ. eigenvalues --   -0.64295  -0.59339  -0.52685  -0.51411  -0.47094
 Alpha  occ. eigenvalues --   -0.46315  -0.45457  -0.44977  -0.42345  -0.38569
 Alpha  occ. eigenvalues --   -0.37906  -0.37436  -0.33484  -0.31266  -0.30894
 Alpha  occ. eigenvalues --   -0.30115  -0.29505  -0.26241  -0.23232
 Alpha virt. eigenvalues --    0.07583   0.08193   0.10457   0.11088   0.12034
 Alpha virt. eigenvalues --    0.12445   0.14963   0.15327   0.16111   0.16966
 Alpha virt. eigenvalues --    0.17066   0.17689   0.18378   0.18923   0.20177

 Mulliken charges:
               1
     1  O   -0.420368
     2  C   -0.081178
     3  C   -0.332538
     4  C    0.325881
     5  C   -0.331356
     6  C   -0.095265
     7  C    0.047893
     8  O   -0.329316
     9  C    0.047888
    10  H    0.285470
    11  H    0.096715
    12  H    0.096703
    13  H    0.110607
    14  H    0.110603
    15  H    0.099343
    16  H    0.099343
    17  H    0.084509
    18  H    0.092532
    19  H    0.092533
 Sum of Mulliken charges =   0.00000

 Dipole moment (field-independent basis, Debye):
    X=              0.4953    Y=              0.4419    Z=              0.0004  Tot=              0.6638
 Quadrupole moment (field-independent basis, Debye-Ang):
   XX=            -51.7604   YY=            -56.9550   ZZ=            -49.8520
   XY=              6.7622   XZ=             -0.0019   YZ=             -0.0003

  Exact polarizability:  85.343   2.025  72.350  -0.001   0.000  67.851
 Approx polarizability: 110.026   0.912 111.690  -0.001  -0.001 108.277

                      1                      2                      3
                      A                      A                      A
 Frequencies --     83.1322                91.6954               129.2896
 Red. masses --      2.2043                 3.0694                 5.2740
 Frc consts  --      0.0090                 0.0152                 0.0519
 IR Inten    --      2.6143                 3.4727                 3.8990

                      4                      5                      6
                      A                      A                      A
 Frequencies --    265.9929               299.6049               319.8173
 Red. masses --      1.0779                 2.2575                 4.4123
 Frc consts  --      0.0449                 0.1194                 0.2659
 IR Inten    --    103.6554                 0.3667                 2.7916

                      7                      8                      9
                      A                      A                      A
 Frequencies --    358.4027               405.4149               551.1628
 Red. masses --      5.3321                 2.0056                 4.0861
 Frc consts  --      0.4035                 0.1942                 0.7313
 IR Inten    --      4.3491                 0.1922                12.6950

                     10                     11                     12
                      A                      A                      A
 Frequencies --    717.0956               726.1302               778.9651
 Red. masses --      3.0453                 2.9025                 4.5278
 Frc consts  --      0.9226                 0.9017                 1.6187
 IR Inten    --      0.0456                 1.0096                 2.5341

                     13                     14                     15
                      A                      A                      A
 Frequencies --    787.8944               827.6194               859.2240
 Red. masses --      1.4797                 2.6902                 2.1034
 Frc consts  --      0.5412                 1.0857                 0.9149
 IR Inten    --      2.2181                12.3296                10.2920

                     16                     17                     18
                      A                      A                      A
 Frequencies --    875.9542               910.2090               920.1187
 Red. masses --      2.3834                 3.0741                 2.2152
 Frc consts  --      1.0775                 1.5006                 1.1050
 IR Inten    --      5.3033                26.3637                 7.9858

                     19                     20                     21
                      A                      A                      A
 Frequencies --    995.8741               995.9075              1034.4136
 Red. masses --      3.1377                 1.2318                 1.4067
 Frc consts  --      1.8335                 0.7198                 0.8868
 IR Inten    --      1.5788                 1.5769                 4.2903

                     22                     23                     24
                      A                      A                      A
 Frequencies --   1040.8948              1067.1230              1082.3590
 Red. masses --      3.3372                 1.2021                 3.8845
 Frc consts  --      2.1303                 0.8066                 2.6812
 IR Inten    --     77.9793                 0.3316                26.6564

                     25                     26                     27
                      A                      A                      A
 Frequencies --   1097.2167              1143.4825              1151.7201
 Red. masses --      3.4588                 1.6799                 1.6005
 Frc consts  --      2.4533                 1.2942                 1.2509
 IR Inten    --     17.3860                 1.2094                 0.3774

                     28                     29                     30
                      A                      A                      A
 Frequencies --   1168.9755              1173.4457              1209.2367
 Red. masses --      1.3595                 1.7246                 1.8151
 Frc consts  --      1.0945                 1.3992                 1.5637
 IR Inten    --      2.6814                 3.2606                 1.5161

                     31                     32                     33
                      A                      A                      A
 Frequencies --   1240.2950              1241.2089              1264.8694
 Red. masses --      1.2710                 1.5645                 1.5942
 Frc consts  --      1.1520                 1.4201                 1.5027
 IR Inten    --      2.8577                19.0103                43.3559

                     34                     35                     36
                      A                      A                      A
 Frequencies --   1292.9660              1314.6298              1344.2054
 Red. masses --      1.7047                 1.1038                 1.6848
 Frc consts  --      1.6791                 1.1240                 1.7936
 IR Inten    --      1.2586                 0.8067                 4.6869

                     37                     38                     39
                      A                      A                      A
 Frequencies --   1379.0819              1463.5650              1485.0022
 Red. masses --      3.1758                 1.4529                 1.0874
 Frc consts  --      3.5587                 1.8336                 1.4129
 IR Inten    --     18.0582                 7.3806                 1.6944

                     40                     41                     42
                      A                      A                      A
 Frequencies --   1516.5627              1518.2065              2989.6308
 Red. masses --      1.1044                 1.1367                 1.0551
 Frc consts  --      1.4965                 1.5437                 5.5563
 IR Inten    --      0.4283                 2.0660                36.8888

                     43                     44                     45
                      A                      A                      A
 Frequencies --   3016.2491              3026.1786              3047.2094
 Red. masses --      1.1054                 1.0588                 1.0552
 Frc consts  --      5.9252                 5.7128                 5.7729
 IR Inten    --     27.5610                27.1068                49.1685

                     46                     47                     48
                      A                      A                      A
 Frequencies --   3065.5059              3102.0591              3113.5636
 Red. masses --      1.1037                 1.1096                 1.0897
 Frc consts  --      6.1107                 6.2910                 6.2238
 IR Inten    --     31.1403                27.9174                78.4830

                     49                     50                     51
                      A                      A                      A
 Frequencies --   3115.0689              3134.2373              3831.6033
 Red. masses --      1.0894                 1.0983                 1.0664
 Frc consts  --      6.2281                 6.3568                 9.2239
 IR Inten    --     11.9646                36.5411                21.0224

 - Thermochemistry -
 -------------------
 Temperature   298.150 Kelvin.  Pressure   1.00000 Atm.
 Atom     1 has atomic number  8 and mass  15.99491

 Molecular mass:   126.06808 amu.
 Principal axes and moments of inertia in atomic units:
                           1         2         3
     Eigenvalues --   494.453661624.839281894.05500
           X            0.99975   0.02238   0.00000
           Y           -0.02238   0.99975   0.00000
           Z            0.00000   0.00000   1.00000
 This molecule is an asymmetric top.
 Rotational symmetry number  1.
 Warning -- assumption of classical behavior for rotation
           may cause significant error
 Rotational temperatures (Kelvin)      0.17517     0.05331     0.04573
 Rotational constants (GHZ):           3.64997     1.11072     0.95285
 Zero-point vibrational energy     416122.6 (Joules/Mol)
                                   99.45570 (Kcal/Mol)
 Warning -- explicit consideration of   9 degrees of freedom as
           vibrations may cause significant error
 Vibrational temperatures:    119.61   131.93   186.02   382.70   431.06
          (Kelvin)            460.15   515.66   583.30   793.00  1031.74
                             1044.74  1120.76  1133.60  1190.76  1236.23
                             1260.30  1309.59  1323.84  1432.84  1432.89
                             1488.29  1497.61  1535.35  1557.27  1578.65
                             1645.21  1657.07  1681.89  1688.32  1739.82
                             1784.51  1785.82  1819.86  1860.29  1891.46
                             1934.01  1984.19  2105.74  2136.58  2181.99
                             2184.36  4301.41  4339.70  4353.99  4384.25
                             4410.57  4463.17  4479.72  4481.88  4509.46
                             5512.82

 Zero-point correction=                           0.158493 (Hartree/Particle)
 Thermal correction to Energy=                    0.166735
 Thermal correction to Enthalpy=                  0.167679
 Thermal correction to Gibbs Free Energy=         0.125208
 Sum of electronic and zero-point Energies=           -422.923954
 Sum of electronic and thermal Energies=              -422.915712
 Sum of electronic and thermal Enthalpies=            -422.914768
 Sum of electronic and thermal Free Energies=         -422.957239

                     E (Thermal)             CV                S
                      KCal/Mol        Cal/Mol-Kelvin    Cal/Mol-Kelvin
 Total                  104.628             31.415             89.387
 Electronic               0.000              0.000              0.000
 Translational            0.889              2.981             40.409
 Rotational               0.889              2.981             28.811
 Vibrational            102.850             25.454             20.168
 Vibration     1          0.600              1.961              3.816
 Vibration     2          0.602              1.955              3.624
 Vibration     3          0.612              1.924              2.957
 Vibration     4          0.672              1.735              1.622
 Vibration     5          0.692              1.674              1.419
 Vibration     6          0.706              1.636              1.311
 Vibration     7          0.733              1.558              1.129
 Vibration     8          0.770              1.458              0.943
 Vibration     9          0.906              1.137              0.542

 Optimization completed.
    -- Stationary point found.
 Normal termination of Gaussian 09 at Tue Jan 28 14:59:34 2020.
