 Gaussian 09, Revision D.01,
 Gaussian 09:  ES64L-G09RevD.01 24-Apr-2013

 -----------------------------
 # b3lyp 6-31G(2df,p) opt Freq
 -----------------------------

 -----
 titel
 -----
 Symbolic Z-matrix:
 Charge =  0 Multiplicity = 1

 SCF Done:  E(RB3LYP) =  -423.163615744     A.U. after   15 cycles
 Optimization completed.
    -- Stationary point found.
 Normal termination of Gaussian 09 at Tue Jan 28 08:13:10 2020.

 ----------------------------------------------------------------------
 #N Geom=AllCheck Guess=TCheck SCRF=Check GenChk RB3LYP/6-31G(2df,p) Fr
 eq
 ----------------------------------------------------------------------

 Structure from the checkpoint file:  "/scratch/puck/g09_930f93d5-6fe3-45ac-9903-d7169a0b3dc8/Gau-91805.chk"
 -----
 titel
 -----
 Charge =  0 Multiplicity = 1

                         Standard orientation:
 ---------------------------------------------------------------------
 Center     Atomic      Atomic             Coordinates (Angstroms)
 Number     Number       Type             X           Y           Z
 ---------------------------------------------------------------------
      1          6           0       -2.668605   -1.157177   -0.508723
      2          6           0       -1.305162   -0.516038   -0.756372
      3          6           0       -0.703151    0.117380    0.485195
      4          8           0       -1.179906   -0.018968    1.589034
      5          6           0        0.510561    1.049808    0.292177
      6          8           0        0.056997    2.249096   -0.332898
      7          6           0        1.618832    0.495770   -0.614914
      8          6           0        2.149225   -0.777044   -0.146068
      9          6           0        2.563544   -1.831262    0.255252
     10          1           0       -3.400140   -0.411859   -0.184224
     11          1           0       -3.043124   -1.632252   -1.419578
     12          1           0       -2.604566   -1.912812    0.277737
     13          1           0       -0.584966   -1.263618   -1.117232
     14          1           0       -1.350757    0.252514   -1.537733
     15          1           0        0.914318    1.247246    1.293027
     16          1           0       -0.516464    2.707852    0.290476
     17          1           0        1.225509    0.394375   -1.633051
     18          1           0        2.413587    1.248658   -0.666702
     19          1           0        2.938414   -2.759748    0.608907
 ---------------------------------------------------------------------

 SCF Done:  E(RB3LYP) =  -423.163615744     A.U. after    1 cycles

 The electronic state is 1-A.
 Alpha  occ. eigenvalues --  -19.15902 -19.13435 -10.26762 -10.24918 -10.21802
 Alpha  occ. eigenvalues --  -10.19207 -10.19007 -10.17992 -10.17601  -1.05072
 Alpha  occ. eigenvalues --   -1.03164  -0.81166  -0.77543  -0.73116  -0.67419
 Alpha  occ. eigenvalues --   -0.63458  -0.56066  -0.52404  -0.51948  -0.48426
 Alpha  occ. eigenvalues --   -0.46705  -0.45029  -0.44116  -0.42834  -0.41257
 Alpha  occ. eigenvalues --   -0.37932  -0.37505  -0.36371  -0.35258  -0.34332
 Alpha  occ. eigenvalues --   -0.30608  -0.27549  -0.27278  -0.23958
 Alpha virt. eigenvalues --   -0.02014   0.04574   0.04951   0.07207   0.10092
 Alpha virt. eigenvalues --    0.11183   0.12499   0.13759   0.15470   0.16482
 Alpha virt. eigenvalues --    0.17221   0.18058   0.19222   0.20862   0.22824

 Mulliken charges:
               1
     1  C   -0.380968
     2  C   -0.291785
     3  C    0.371130
     4  O   -0.309523
     5  C    0.030203
     6  O   -0.428702
     7  C   -0.365125
     8  C    0.290601
     9  C   -0.443086
    10  H    0.124966
    11  H    0.110680
    12  H    0.135888
    13  H    0.137924
    14  H    0.130584
    15  H    0.098653
    16  H    0.297424
    17  H    0.143351
    18  H    0.145486
    19  H    0.202300
 Sum of Mulliken charges =   0.00000

 Dipole moment (field-independent basis, Debye):
    X=              0.3674    Y=              0.3889    Z=             -1.2039  Tot=              1.3174
 Quadrupole moment (field-independent basis, Debye-Ang):
   XX=            -53.1160   YY=            -48.0997   ZZ=            -56.9729
   XY=             -2.7826   XZ=              3.4268   YZ=              2.1989

  Exact polarizability:  79.511  -5.433  83.575   1.514  -4.081  67.185
 Approx polarizability: 100.309 -12.789 128.591  -0.621 -14.262 110.776

                      1                      2                      3
                      A                      A                      A
 Frequencies --     36.9317                59.6881                96.9660
 Red. masses --      5.6687                 3.4527                 2.0857
 Frc consts  --      0.0046                 0.0072                 0.0116
 IR Inten    --      3.7434                 1.2570                 0.2308

                      4                      5                      6
                      A                      A                      A
 Frequencies --    132.5244               187.4110               193.3510
 Red. masses --      3.6710                 1.3314                 3.2264
 Frc consts  --      0.0380                 0.0276                 0.0711
 IR Inten    --      1.5102                 1.0756                 1.2625

                      7                      8                      9
                      A                      A                      A
 Frequencies --    248.5817               283.7525               339.3802
 Red. masses --      2.8495                 3.5906                 3.8970
 Frc consts  --      0.1037                 0.1703                 0.2645
 IR Inten    --      1.2039                 5.2281                10.4011

                     10                     11                     12
                      A                      A                      A
 Frequencies --    345.9764               357.2675               479.9392
 Red. masses --      1.3539                 2.2742                 5.4010
 Frc consts  --      0.0955                 0.1710                 0.7330
 IR Inten    --    114.6141                 7.5095                 1.9461

                     13                     14                     15
                      A                      A                      A
 Frequencies --    539.3356               571.2292               597.6596
 Red. masses --      4.2818                 2.7876                 2.3949
 Frc consts  --      0.7338                 0.5359                 0.5040
 IR Inten    --      8.0972                 5.7492                 8.7873

                     16                     17                     18
                      A                      A                      A
 Frequencies --    637.6217               654.0150               745.1191
 Red. masses --      1.2169                 1.2284                 3.0054
 Frc consts  --      0.2915                 0.3096                 0.9831
 IR Inten    --     46.2256                43.1555                 0.2744

                     19                     20                     21
                      A                      A                      A
 Frequencies --    824.4508               910.2495               965.6212
 Red. masses --      1.5189                 1.8865                 3.7139
 Frc consts  --      0.6083                 0.9210                 2.0403
 IR Inten    --      8.9156                16.3950                20.7200

                     22                     23                     24
                      A                      A                      A
 Frequencies --   1000.7774              1032.3724              1057.1576
 Red. masses --      1.6702                 2.3745                 4.2218
 Frc consts  --      0.9856                 1.4911                 2.7799
 IR Inten    --      1.3263                38.6280                28.1008

                     25                     26                     27
                      A                      A                      A
 Frequencies --   1083.8763              1095.6365              1149.9948
 Red. masses --      2.2395                 1.9263                 1.7826
 Frc consts  --      1.5501                 1.3624                 1.3890
 IR Inten    --      1.2115                14.3756                23.2716

                     28                     29                     30
                      A                      A                      A
 Frequencies --   1214.4695              1264.8632              1280.7071
 Red. masses --      1.4520                 1.2396                 1.1917
 Frc consts  --      1.2618                 1.1684                 1.1517
 IR Inten    --     18.6233                28.1189                 0.1707

                     31                     32                     33
                      A                      A                      A
 Frequencies --   1325.8466              1348.1331              1372.4573
 Red. masses --      1.2976                 1.4460                 1.8843
 Frc consts  --      1.3439                 1.5484                 2.0913
 IR Inten    --      3.0370                10.1649                24.1857

                     34                     35                     36
                      A                      A                      A
 Frequencies --   1411.1219              1414.8069              1454.5484
 Red. masses --      1.3970                 1.2310                 1.0914
 Frc consts  --      1.6390                 1.4517                 1.3605
 IR Inten    --     10.2468                 5.0276                10.9402

                     37                     38                     39
                      A                      A                      A
 Frequencies --   1476.9092              1494.3120              1499.0905
 Red. masses --      1.0836                 1.0385                 1.0499
 Frc consts  --      1.3926                 1.3662                 1.3902
 IR Inten    --      2.8060                 5.1130                 7.0338

                     40                     41                     42
                      A                      A                      A
 Frequencies --   1806.7818              2242.2762              3022.8134
 Red. masses --     11.1437                 5.9187                 1.0634
 Frc consts  --     21.4333                17.5329                 5.7249
 IR Inten    --    113.9765                 0.6830                11.5360

                     43                     44                     45
                      A                      A                      A
 Frequencies --   3033.0310              3040.3212              3050.8181
 Red. masses --      1.0830                 1.0611                 1.0357
 Frc consts  --      5.8698                 5.7790                 5.6795
 IR Inten    --     16.4778                15.3585                24.2839

                     46                     47                     48
                      A                      A                      A
 Frequencies --   3062.0088              3076.2673              3119.3828
 Red. masses --      1.0948                 1.1012                 1.1022
 Frc consts  --      6.0479                 6.1400                 6.3188
 IR Inten    --      4.2191                12.0334                22.1350

                     49                     50                     51
                      A                      A                      A
 Frequencies --   3129.9070              3505.3622              3814.9967
 Red. masses --      1.1014                 1.1629                 1.0665
 Frc consts  --      6.3571                 8.4186                 9.1449
 IR Inten    --     17.2502                65.7325                37.0285

 - Thermochemistry -
 -------------------
 Temperature   298.150 Kelvin.  Pressure   1.00000 Atm.
 Atom     1 has atomic number  6 and mass  12.00000

 Molecular mass:   126.06808 amu.
 Principal axes and moments of inertia in atomic units:
                           1         2         3
     Eigenvalues --   937.786581509.955921931.34454
           X            0.99884   0.04227   0.02292
           Y           -0.04272   0.99889   0.01972
           Z           -0.02206  -0.02067   0.99954
 This molecule is an asymmetric top.
 Rotational symmetry number  1.
 Warning -- assumption of classical behavior for rotation
           may cause significant error
 Rotational temperatures (Kelvin)      0.09236     0.05736     0.04485
 Rotational constants (GHZ):           1.92447     1.19523     0.93445
 Zero-point vibrational energy     407257.4 (Joules/Mol)
                                   97.33685 (Kcal/Mol)
 Warning -- explicit consideration of  15 degrees of freedom as
           vibrations may cause significant error
 Vibrational temperatures:     53.14    85.88   139.51   190.67   269.64
          (Kelvin)            278.19   357.65   408.26   488.29   497.78
                              514.03   690.52   775.98   821.87   859.90
                              917.39   940.98  1072.06  1186.20  1309.64
                             1389.31  1439.89  1485.35  1521.01  1559.45
                             1576.37  1654.58  1747.35  1819.85  1842.65
                             1907.60  1939.66  1974.66  2030.29  2035.59
                             2092.77  2124.94  2149.98  2156.85  2599.55
                             3226.13  4349.15  4363.85  4374.34  4389.44
                             4405.54  4426.06  4488.09  4503.23  5043.43
                             5488.92

 Zero-point correction=                           0.155116 (Hartree/Particle)
 Thermal correction to Energy=                    0.165799
 Thermal correction to Enthalpy=                  0.166743
 Thermal correction to Gibbs Free Energy=         0.118420
 Sum of electronic and zero-point Energies=           -423.008500
 Sum of electronic and thermal Energies=              -422.997817
 Sum of electronic and thermal Enthalpies=            -422.996873
 Sum of electronic and thermal Free Energies=         -423.045196

                     E (Thermal)             CV                S
                      KCal/Mol        Cal/Mol-Kelvin    Cal/Mol-Kelvin
 Total                  104.040             37.732            101.704
 Electronic               0.000              0.000              0.000
 Translational            0.889              2.981             40.409
 Rotational               0.889              2.981             29.393
 Vibrational            102.263             31.771             31.902
 Vibration     1          0.594              1.982              5.417
 Vibration     2          0.597              1.974              4.467
 Vibration     3          0.603              1.951              3.514
 Vibration     4          0.613              1.921              2.909
 Vibration     5          0.632              1.857              2.253
 Vibration     6          0.635              1.849              2.195
 Vibration     7          0.662              1.765              1.741
 Vibration     8          0.682              1.704              1.511
 Vibration     9          0.719              1.597              1.215
 Vibration    10          0.724              1.583              1.184
 Vibration    11          0.732              1.560              1.134
 Vibration    12          0.836              1.295              0.710
 Vibration    13          0.894              1.163              0.567
 Vibration    14          0.927              1.093              0.502
 Vibration    15          0.956              1.037              0.454

 Optimization completed.
    -- Stationary point found.
 Normal termination of Gaussian 09 at Tue Jan 28 08:51:38 2020.
