 Gaussian 09, Revision D.01,
 Gaussian 09:  ES64L-G09RevD.01 24-Apr-2013

 -----------------------------
 # b3lyp 6-31G(2df,p) opt Freq
 -----------------------------

 -----
 titel
 -----
 Symbolic Z-matrix:
 Charge =  0 Multiplicity = 1

 SCF Done:  E(RB3LYP) =  -423.115321147     A.U. after   14 cycles
 Optimization completed.
    -- Stationary point found.
 Normal termination of Gaussian 09 at Mon Jan 27 16:34:36 2020.

 ----------------------------------------------------------------------
 #N Geom=AllCheck Guess=TCheck SCRF=Check GenChk RB3LYP/6-31G(2df,p) Fr
 eq
 ----------------------------------------------------------------------

 Structure from the checkpoint file:  "/scratch/puck/g09_2d38ed35-0f6f-46c1-9fda-16615e1fe3d4/Gau-30550.chk"
 -----
 titel
 -----
 Charge =  0 Multiplicity = 1

                         Standard orientation:
 ---------------------------------------------------------------------
 Center     Atomic      Atomic             Coordinates (Angstroms)
 Number     Number       Type             X           Y           Z
 ---------------------------------------------------------------------
      1          6           0        0.569390    1.981120   -0.152105
      2          6           0        0.290830    0.519746    0.188173
      3          6           0       -1.106397    0.345823    0.828477
      4          6           0       -2.190399    0.201166   -0.218015
      5          8           0       -2.926043   -0.748329   -0.308825
      6          6           0        0.803800   -0.538829   -0.856192
      7          6           0        0.888978   -1.621894    0.241545
      8          6           0        1.492095   -0.299663    0.777023
      9          8           0        2.193516   -0.151288   -0.517962
     10          1           0        0.562912    2.593135    0.757171
     11          1           0        1.538555    2.086527   -0.638689
     12          1           0       -0.201939    2.384663   -0.817736
     13          1           0       -1.172214   -0.513868    1.496382
     14          1           0       -1.324779    1.244801    1.419976
     15          1           0       -2.262730    1.046451   -0.940390
     16          1           0        0.557330   -0.639958   -1.914269
     17          1           0       -0.028234   -2.022480    0.672061
     18          1           0        1.631445   -2.394201    0.042517
     19          1           0        2.070085   -0.112947    1.683834
 ---------------------------------------------------------------------

 SCF Done:  E(RB3LYP) =  -423.115321147     A.U. after    1 cycles

 The electronic state is 1-A.
 Alpha  occ. eigenvalues --  -19.14488 -19.13874 -10.27753 -10.25526 -10.25429
 Alpha  occ. eigenvalues --  -10.22096 -10.20068 -10.19701 -10.18125  -1.06348
 Alpha  occ. eigenvalues --   -1.05139  -0.82544  -0.75748  -0.72092  -0.65911
 Alpha  occ. eigenvalues --   -0.63717  -0.58587  -0.52738  -0.51638  -0.49245
 Alpha  occ. eigenvalues --   -0.46134  -0.45243  -0.44303  -0.41333  -0.40670
 Alpha  occ. eigenvalues --   -0.40157  -0.38009  -0.37382  -0.34707  -0.33578
 Alpha  occ. eigenvalues --   -0.32451  -0.31356  -0.25487  -0.24531
 Alpha virt. eigenvalues --   -0.02729   0.08201   0.09327   0.09866   0.11243
 Alpha virt. eigenvalues --    0.11893   0.12230   0.12964   0.13859   0.14819
 Alpha virt. eigenvalues --    0.16695   0.17315   0.18305   0.19488   0.21519

 Mulliken charges:
               1
     1  C   -0.476426
     2  C    0.339643
     3  C   -0.377749
     4  C    0.168940
     5  O   -0.240553
     6  C    0.007627
     7  C   -0.237236
     8  C    0.002247
     9  O   -0.309802
    10  H    0.116186
    11  H    0.147789
    12  H    0.116065
    13  H    0.123556
    14  H    0.119753
    15  H    0.078105
    16  H    0.099209
    17  H    0.113994
    18  H    0.113830
    19  H    0.094824
 Sum of Mulliken charges =   0.00000

 Dipole moment (field-independent basis, Debye):
    X=              0.3875    Y=              1.3051    Z=              1.2056  Tot=              1.8185
 Quadrupole moment (field-independent basis, Debye-Ang):
   XX=            -65.9130   YY=            -52.5379   ZZ=            -50.7161
   XY=             -5.2088   XZ=              1.2218   YZ=             -0.1445

  Exact polarizability:  80.140   0.948  79.303   2.898  -0.793  67.548
 Approx polarizability: 117.513   8.417 116.277   3.155   0.120 107.356

                      1                      2                      3
                      A                      A                      A
 Frequencies --     29.9561                52.1663               159.6148
 Red. masses --      5.7262                 3.2196                 2.8637
 Frc consts  --      0.0030                 0.0052                 0.0430
 IR Inten    --      4.6699                 4.9554                 2.5428

                      4                      5                      6
                      A                      A                      A
 Frequencies --    226.9953               258.4697               343.7666
 Red. masses --      1.0639                 2.6479                 3.2090
 Frc consts  --      0.0323                 0.1042                 0.2234
 IR Inten    --      0.1360                 0.5738                 2.3957

                      7                      8                      9
                      A                      A                      A
 Frequencies --    371.1649               400.5925               464.1668
 Red. masses --      2.9444                 2.9450                 2.5751
 Frc consts  --      0.2390                 0.2784                 0.3269
 IR Inten    --      2.0406                 2.7415                 7.8077

                     10                     11                     12
                      A                      A                      A
 Frequencies --    543.7768               625.7776               678.7715
 Red. masses --      2.4400                 3.1848                 2.8799
 Frc consts  --      0.4251                 0.7348                 0.7818
 IR Inten    --      4.5873                 7.0662                 4.3119

                     13                     14                     15
                      A                      A                      A
 Frequencies --    736.4520               802.1377               831.9095
 Red. masses --      4.4629                 2.9668                 1.7215
 Frc consts  --      1.4261                 1.1247                 0.7019
 IR Inten    --      6.1064                 7.4889                 2.1161

                     16                     17                     18
                      A                      A                      A
 Frequencies --    867.6227               880.2061               912.7471
 Red. masses --      2.8856                 2.6839                 2.2670
 Frc consts  --      1.2798                 1.2251                 1.1128
 IR Inten    --     11.4152                23.7425                 5.1616

                     19                     20                     21
                      A                      A                      A
 Frequencies --    951.4578               991.3497              1014.5922
 Red. masses --      2.4152                 1.6407                 1.1169
 Frc consts  --      1.2882                 0.9500                 0.6774
 IR Inten    --     12.6294                 4.0214                 1.3928

                     22                     23                     24
                      A                      A                      A
 Frequencies --   1031.7928              1048.6609              1107.4960
 Red. masses --      1.5734                 1.8880                 2.2403
 Frc consts  --      0.9869                 1.2233                 1.6189
 IR Inten    --      0.4595                12.5747                16.1512

                     25                     26                     27
                      A                      A                      A
 Frequencies --   1113.2066              1153.9998              1167.2662
 Red. masses --      2.0656                 1.7070                 1.4284
 Frc consts  --      1.5081                 1.3393                 1.1467
 IR Inten    --      2.9101                 2.9125                 1.7042

                     28                     29                     30
                      A                      A                      A
 Frequencies --   1174.3110              1204.7114              1214.3393
 Red. masses --      1.7972                 1.5453                 2.8009
 Frc consts  --      1.4602                 1.3214                 2.4334
 IR Inten    --     14.5800                12.0159                28.1722

                     31                     32                     33
                      A                      A                      A
 Frequencies --   1239.6672              1276.0315              1298.5783
 Red. masses --      1.5068                 1.6113                 1.5350
 Frc consts  --      1.3643                 1.5458                 1.5251
 IR Inten    --      4.8353                 0.3157                 7.1693

                     34                     35                     36
                      A                      A                      A
 Frequencies --   1326.9679              1400.4995              1429.2665
 Red. masses --      2.1976                 1.2602                 1.1893
 Frc consts  --      2.2799                 1.4564                 1.4314
 IR Inten    --      1.5922                12.0971                 4.6157

                     37                     38                     39
                      A                      A                      A
 Frequencies --   1465.2650              1489.5774              1504.7284
 Red. masses --      1.1075                 1.0578                 1.1196
 Frc consts  --      1.4009                 1.3828                 1.4935
 IR Inten    --      8.7834                 2.0204                 2.9886

                     40                     41                     42
                      A                      A                      A
 Frequencies --   1510.1157              1828.6705              2868.9698
 Red. masses --      1.0564                10.0181                 1.0816
 Frc consts  --      1.4194                19.7382                 5.2450
 IR Inten    --      7.5584               164.6113                93.2182

                     43                     44                     45
                      A                      A                      A
 Frequencies --   3028.4757              3033.8217              3085.3471
 Red. masses --      1.0606                 1.0468                 1.1000
 Frc consts  --      5.7313                 5.6768                 6.1698
 IR Inten    --      3.5826                35.0424                20.4193

                     46                     47                     48
                      A                      A                      A
 Frequencies --   3088.2600              3103.2999              3112.2341
 Red. masses --      1.0584                 1.0894                 1.0944
 Frc consts  --      5.9475                 6.1814                 6.2454
 IR Inten    --     18.1909                81.5491                 4.1779

                     49                     50                     51
                      A                      A                      A
 Frequencies --   3124.3794              3153.7159              3165.6932
 Red. masses --      1.0919                 1.0965                 1.1112
 Frc consts  --      6.2800                 6.4255                 6.5610
 IR Inten    --     18.2615                 5.5075                20.4638

 - Thermochemistry -
 -------------------
 Temperature   298.150 Kelvin.  Pressure   1.00000 Atm.
 Atom     1 has atomic number  6 and mass  12.00000

 Molecular mass:   126.06808 amu.
 Principal axes and moments of inertia in atomic units:
                           1         2         3
     Eigenvalues --   619.920291425.937181718.32468
           X            0.99987  -0.01584   0.00214
           Y            0.01588   0.99967  -0.02042
           Z           -0.00181   0.02045   0.99979
 This molecule is an asymmetric top.
 Rotational symmetry number  1.
 Warning -- assumption of classical behavior for rotation
           may cause significant error
 Rotational temperatures (Kelvin)      0.13972     0.06074     0.05041
 Rotational constants (GHZ):           2.91125     1.26565     1.05029
 Zero-point vibrational energy     412071.9 (Joules/Mol)
                                   98.48755 (Kcal/Mol)
 Warning -- explicit consideration of  10 degrees of freedom as
           vibrations may cause significant error
 Vibrational temperatures:     43.10    75.06   229.65   326.60   371.88
          (Kelvin)            494.60   534.02   576.36   667.83   782.37
                              900.35   976.60  1059.59  1154.10  1196.93
                             1248.31  1266.42  1313.24  1368.93  1426.33
                             1459.77  1484.52  1508.79  1593.44  1601.65
                             1660.35  1679.43  1689.57  1733.31  1747.16
                             1783.60  1835.92  1868.36  1909.21  2015.00
                             2056.39  2108.19  2143.17  2164.97  2172.72
                             2631.05  4127.80  4357.30  4364.99  4439.12
                             4443.31  4464.95  4477.81  4495.28  4537.49
                             4554.72

 Zero-point correction=                           0.156950 (Hartree/Particle)
 Thermal correction to Energy=                    0.165659
 Thermal correction to Enthalpy=                  0.166603
 Thermal correction to Gibbs Free Energy=         0.122277
 Sum of electronic and zero-point Energies=           -422.958371
 Sum of electronic and thermal Energies=              -422.949662
 Sum of electronic and thermal Enthalpies=            -422.948718
 Sum of electronic and thermal Free Energies=         -422.993044

                     E (Thermal)             CV                S
                      KCal/Mol        Cal/Mol-Kelvin    Cal/Mol-Kelvin
 Total                  103.953             32.483             93.293
 Electronic               0.000              0.000              0.000
 Translational            0.889              2.981             40.409
 Rotational               0.889              2.981             28.809
 Vibrational            102.175             26.521             24.075
 Vibration     1          0.594              1.984              5.832
 Vibration     2          0.596              1.977              4.734
 Vibration     3          0.621              1.892              2.554
 Vibration     4          0.651              1.800              1.903
 Vibration     5          0.667              1.748              1.672
 Vibration     6          0.723              1.588              1.195
 Vibration     7          0.743              1.531              1.075
 Vibration     8          0.766              1.469              0.960
 Vibration     9          0.822              1.330              0.754
 Vibration    10          0.899              1.153              0.557

 Optimization completed.
    -- Stationary point found.
 Normal termination of Gaussian 09 at Mon Jan 27 17:20:18 2020.
