 Gaussian 09, Revision D.01,
 Gaussian 09:  ES64L-G09RevD.01 24-Apr-2013

 -----------------------------
 # b3lyp 6-31G(2df,p) opt Freq
 -----------------------------

 -----
 titel
 -----
 Symbolic Z-matrix:
 Charge =  0 Multiplicity = 1

 SCF Done:  E(RB3LYP) =  -423.182171455     A.U. after   13 cycles
 Optimization completed.
    -- Stationary point found.
 Normal termination of Gaussian 09 at Tue Jan 28 03:00:20 2020.

 ----------------------------------------------------------------------
 #N Geom=AllCheck Guess=TCheck SCRF=Check GenChk RB3LYP/6-31G(2df,p) Fr
 eq
 ----------------------------------------------------------------------

 Structure from the checkpoint file:  "/scratch/puck/g09_31e84547-40f6-42e4-af81-1e4d2ca13e35/Gau-6298.chk"
 -----
 titel
 -----
 Charge =  0 Multiplicity = 1

                         Standard orientation:
 ---------------------------------------------------------------------
 Center     Atomic      Atomic             Coordinates (Angstroms)
 Number     Number       Type             X           Y           Z
 ---------------------------------------------------------------------
      1          8           0        2.460540   -0.149382    0.275696
      2          6           0        1.257505   -0.440722   -0.426105
      3          6           0        0.747041    0.897186   -0.995104
      4          6           0       -0.176797    1.457141    0.084486
      5          6           0       -1.518119    0.773412    0.257502
      6          8           0       -1.826851   -0.280310   -0.624439
      7          6           0       -1.095225   -1.434438   -0.198144
      8          6           0        0.144440   -0.902858    0.544133
      9          6           0       -0.385579    0.405600    1.163248
     10          1           0        2.747880   -0.952354    0.722152
     11          1           0        1.444998   -1.185052   -1.215105
     12          1           0        1.596026    1.556489   -1.186571
     13          1           0        0.211541    0.739786   -1.936064
     14          1           0       -0.111691    2.506248    0.351126
     15          1           0       -2.385362    1.337404    0.584126
     16          1           0       -1.714962   -2.046294    0.474293
     17          1           0       -0.857538   -2.028571   -1.086654
     18          1           0        0.517959   -1.624806    1.275950
     19          1           0       -0.357955    0.602760    2.226588
 ---------------------------------------------------------------------

 SCF Done:  E(RB3LYP) =  -423.182171455     A.U. after    1 cycles

 The electronic state is 1-A.
 Alpha  occ. eigenvalues --  -19.13766 -19.13385 -10.22925 -10.22761 -10.22696
 Alpha  occ. eigenvalues --  -10.19199 -10.18520 -10.18395 -10.17522  -1.03954
 Alpha  occ. eigenvalues --   -1.01601  -0.86190  -0.77181  -0.72809  -0.65062
 Alpha  occ. eigenvalues --   -0.58475  -0.57151  -0.55224  -0.52761  -0.50638
 Alpha  occ. eigenvalues --   -0.46021  -0.43857  -0.43433  -0.42880  -0.38893
 Alpha  occ. eigenvalues --   -0.38691  -0.35927  -0.34704  -0.32747  -0.32066
 Alpha  occ. eigenvalues --   -0.30567  -0.27642  -0.26238  -0.23089
 Alpha virt. eigenvalues --    0.07697   0.08842   0.10346   0.11814   0.12892
 Alpha virt. eigenvalues --    0.14765   0.15103   0.16037   0.16535   0.18121
 Alpha virt. eigenvalues --    0.18619   0.19004   0.19354   0.21658   0.23428

 Mulliken charges:
               1
     1  O   -0.444004
     2  C    0.146137
     3  C   -0.239388
     4  C   -0.076593
     5  C    0.089508
     6  O   -0.259583
     7  C   -0.087944
     8  C   -0.104571
     9  C   -0.104805
    10  H    0.277043
    11  H    0.058062
    12  H    0.111956
    13  H    0.111065
    14  H    0.083137
    15  H    0.093183
    16  H    0.092962
    17  H    0.105038
    18  H    0.062245
    19  H    0.086552
 Sum of Mulliken charges =   0.00000

 Dipole moment (field-independent basis, Debye):
    X=              0.4314    Y=             -1.2847    Z=              1.1902  Tot=              1.8036
 Quadrupole moment (field-independent basis, Debye-Ang):
   XX=            -57.5222   YY=            -48.2844   ZZ=            -52.2075
   XY=             -4.2501   XZ=             -1.6597   YZ=             -0.6211

  Exact polarizability:  75.226  -0.487  76.435  -1.543  -0.325  67.049
 Approx polarizability: 106.842   0.097 110.734   2.203  -1.374 103.613

                      1                      2                      3
                      A                      A                      A
 Frequencies --    124.1655               219.4732               268.4138
 Red. masses --      3.3518                 4.0766                 2.6517
 Frc consts  --      0.0304                 0.1157                 0.1126
 IR Inten    --      0.9138                 4.9474                 0.5307

                      4                      5                      6
                      A                      A                      A
 Frequencies --    309.0741               375.5514               417.7610
 Red. masses --      1.1467                 3.7577                 2.8188
 Frc consts  --      0.0645                 0.3123                 0.2898
 IR Inten    --    102.4539                 4.8579                 9.8245

                      7                      8                      9
                      A                      A                      A
 Frequencies --    511.0195               652.6987               715.4772
 Red. masses --      2.5014                 4.4153                 5.6300
 Frc consts  --      0.3849                 1.1082                 1.6981
 IR Inten    --      1.3743                 6.0574                 7.7943

                     10                     11                     12
                      A                      A                      A
 Frequencies --    728.4494               767.8086               792.2982
 Red. masses --      4.1694                 3.1435                 2.0348
 Frc consts  --      1.3035                 1.0919                 0.7526
 IR Inten    --      6.8802                 8.8589                 6.7596

                     13                     14                     15
                      A                      A                      A
 Frequencies --    805.3010               865.8248               903.5296
 Red. masses --      2.3465                 2.7643                 2.3326
 Frc consts  --      0.8966                 1.2210                 1.1219
 IR Inten    --      6.5874                 2.9841                 8.7654

                     16                     17                     18
                      A                      A                      A
 Frequencies --    928.8035               930.4980               957.5384
 Red. masses --      2.0642                 2.5781                 2.1070
 Frc consts  --      1.0492                 1.3151                 1.1382
 IR Inten    --      4.8234                 0.3096                11.1671

                     19                     20                     21
                      A                      A                      A
 Frequencies --    988.9564              1011.5654              1023.7898
 Red. masses --      2.0362                 1.9774                 2.2109
 Frc consts  --      1.1733                 1.1921                 1.3654
 IR Inten    --      5.6941                44.3711                 9.7758

                     22                     23                     24
                      A                      A                      A
 Frequencies --   1061.5125              1063.0703              1082.0151
 Red. masses --      2.2211                 1.9280                 1.7252
 Frc consts  --      1.4746                 1.2838                 1.1900
 IR Inten    --      3.3628                27.9374                 6.0379

                     25                     26                     27
                      A                      A                      A
 Frequencies --   1097.5059              1124.6242              1158.4065
 Red. masses --      1.4966                 2.3690                 2.0042
 Frc consts  --      1.0621                 1.7654                 1.5846
 IR Inten    --     14.4016                31.7782                46.1050

                     28                     29                     30
                      A                      A                      A
 Frequencies --   1196.7080              1211.2098              1235.9344
 Red. masses --      1.3296                 1.2135                 1.2877
 Frc consts  --      1.1219                 1.0489                 1.1589
 IR Inten    --     28.7231                 5.3478                 7.6399

                     31                     32                     33
                      A                      A                      A
 Frequencies --   1250.3101              1276.2509              1295.1657
 Red. masses --      1.5796                 1.3733                 1.5906
 Frc consts  --      1.4549                 1.3179                 1.5720
 IR Inten    --      3.7813                 0.0718                15.2646

                     34                     35                     36
                      A                      A                      A
 Frequencies --   1319.1428              1328.3853              1357.6488
 Red. masses --      1.2942                 1.5452                 1.3978
 Frc consts  --      1.3269                 1.6065                 1.5180
 IR Inten    --      1.1544                18.2367                27.1577

                     37                     38                     39
                      A                      A                      A
 Frequencies --   1379.4859              1406.4581              1425.5458
 Red. masses --      1.7238                 1.6535                 1.5879
 Frc consts  --      1.9328                 1.9271                 1.9013
 IR Inten    --     11.7147                 6.0075                 2.3673

                     40                     41                     42
                      A                      A                      A
 Frequencies --   1478.9039              1514.0787              2983.0427
 Red. masses --      1.1046                 1.0980                 1.0838
 Frc consts  --      1.4235                 1.4831                 5.6824
 IR Inten    --      5.9125                 0.9623                54.4170

                     43                     44                     45
                      A                      A                      A
 Frequencies --   2990.3617              3063.7963              3071.8092
 Red. masses --      1.0692                 1.0629                 1.0868
 Frc consts  --      5.6331                 5.8782                 6.0421
 IR Inten    --     78.4411                28.7175                30.6826

                     46                     47                     48
                      A                      A                      A
 Frequencies --   3073.9016              3117.1512              3161.8325
 Red. masses --      1.0944                 1.1028                 1.0895
 Frc consts  --      6.0928                 6.3132                 6.4174
 IR Inten    --     41.6022                 9.2131                13.7154

                     49                     50                     51
                      A                      A                      A
 Frequencies --   3171.8812              3197.6736              3813.2872
 Red. masses --      1.0909                 1.0950                 1.0660
 Frc consts  --      6.4666                 6.5968                 9.1331
 IR Inten    --     26.2953                15.8887                14.2290

 - Thermochemistry -
 -------------------
 Temperature   298.150 Kelvin.  Pressure   1.00000 Atm.
 Atom     1 has atomic number  8 and mass  15.99491

 Molecular mass:   126.06808 amu.
 Principal axes and moments of inertia in atomic units:
                           1         2         3
     Eigenvalues --   592.315051074.584161250.36291
           X            0.99979  -0.00735  -0.01889
           Y            0.00722   0.99995  -0.00697
           Z            0.01894   0.00683   0.99980
 This molecule is an asymmetric top.
 Rotational symmetry number  1.
 Warning -- assumption of classical behavior for rotation
           may cause significant error
 Rotational temperatures (Kelvin)      0.14623     0.08060     0.06927
 Rotational constants (GHZ):           3.04693     1.67948     1.44337
 Zero-point vibrational energy     425901.1 (Joules/Mol)
                                  101.79280 (Kcal/Mol)
 Warning -- explicit consideration of   7 degrees of freedom as
           vibrations may cause significant error
 Vibrational temperatures:    178.65   315.77   386.19   444.69   540.33
          (Kelvin)            601.06   735.24   939.09  1029.41  1048.07
                             1104.70  1139.94  1158.65  1245.73  1299.98
                             1336.34  1338.78  1377.68  1422.89  1455.42
                             1473.00  1527.28  1529.52  1556.78  1579.06
                             1618.08  1666.69  1721.79  1742.66  1778.23
                             1798.92  1836.24  1863.45  1897.95  1911.25
                             1953.35  1984.77  2023.58  2051.04  2127.81
                             2178.42  4291.93  4302.46  4408.11  4419.64
                             4422.65  4484.88  4549.17  4563.62  4600.73
                             5486.46

 Zero-point correction=                           0.162217 (Hartree/Particle)
 Thermal correction to Energy=                    0.169230
 Thermal correction to Enthalpy=                  0.170174
 Thermal correction to Gibbs Free Energy=         0.131031
 Sum of electronic and zero-point Energies=           -423.019954
 Sum of electronic and thermal Energies=              -423.012941
 Sum of electronic and thermal Enthalpies=            -423.011997
 Sum of electronic and thermal Free Energies=         -423.051140

                     E (Thermal)             CV                S
                      KCal/Mol        Cal/Mol-Kelvin    Cal/Mol-Kelvin
 Total                  106.193             28.909             82.383
 Electronic               0.000              0.000              0.000
 Translational            0.889              2.981             40.409
 Rotational               0.889              2.981             28.167
 Vibrational            104.416             22.947             13.807
 Vibration     1          0.610              1.929              3.034
 Vibration     2          0.647              1.811              1.963
 Vibration     3          0.673              1.731              1.606
 Vibration     4          0.698              1.656              1.367
 Vibration     5          0.746              1.522              1.057
 Vibration     6          0.781              1.432              0.900
 Vibration     7          0.866              1.226              0.631

 Optimization completed.
    -- Stationary point found.
 Normal termination of Gaussian 09 at Tue Jan 28 03:47:19 2020.
