 Gaussian 09, Revision D.01,
 Gaussian 09:  ES64L-G09RevD.01 24-Apr-2013

 -----------------------------
 # b3lyp 6-31G(2df,p) opt Freq
 -----------------------------

 -----
 titel
 -----
 Symbolic Z-matrix:
 Charge =  0 Multiplicity = 1

 SCF Done:  E(RB3LYP) =  -423.154012699     A.U. after   14 cycles
 Optimization completed.
    -- Stationary point found.
 Normal termination of Gaussian 09 at Mon Jan 27 22:03:25 2020.

 ----------------------------------------------------------------------
 #N Geom=AllCheck Guess=TCheck SCRF=Check GenChk RB3LYP/6-31G(2df,p) Fr
 eq
 ----------------------------------------------------------------------

 Structure from the checkpoint file:  "/scratch/puck/g09_cd131822-9f9f-493b-9394-3322202bb872/Gau-62713.chk"
 -----
 titel
 -----
 Charge =  0 Multiplicity = 1

                         Standard orientation:
 ---------------------------------------------------------------------
 Center     Atomic      Atomic             Coordinates (Angstroms)
 Number     Number       Type             X           Y           Z
 ---------------------------------------------------------------------
      1          6           0       -2.284544    1.307733   -0.014193
      2          6           0       -0.893792    0.778943    0.005606
      3          6           0        0.307537    1.363727    0.004798
      4          6           0        1.282946    0.169896   -0.002924
      5          8           0        2.653321    0.389865   -0.085203
      6          6           0        0.614178   -0.755347    1.080549
      7          6           0       -0.526147   -0.726894    0.000083
      8          8           0       -1.538781   -1.678338   -0.084598
      9          6           0        0.609412   -0.747352   -1.067727
     10          1           0       -2.295783    2.399918   -0.062435
     11          1           0       -2.841900    0.915926   -0.873555
     12          1           0       -2.847094    1.007078    0.880309
     13          1           0        0.581007    2.410832   -0.016558
     14          1           0        2.912374    0.958832    0.647502
     15          1           0        1.096889   -1.733379    1.165849
     16          1           0        0.399198   -0.318816    2.059648
     17          1           0       -2.062534   -1.640059    0.722698
     18          1           0        1.089996   -1.725751   -1.157635
     19          1           0        0.393986   -0.311024   -2.044570
 ---------------------------------------------------------------------

 SCF Done:  E(RB3LYP) =  -423.154012699     A.U. after    1 cycles

 The electronic state is 1-A.
 Alpha  occ. eigenvalues --  -19.14431 -19.14094 -10.24215 -10.24167 -10.18642
 Alpha  occ. eigenvalues --  -10.18296 -10.17713 -10.17704 -10.17009  -1.03161
 Alpha  occ. eigenvalues --   -1.02547  -0.88343  -0.76138  -0.69065  -0.66233
 Alpha  occ. eigenvalues --   -0.63630  -0.55417  -0.54419  -0.51937  -0.47625
 Alpha  occ. eigenvalues --   -0.45056  -0.43389  -0.42569  -0.40397  -0.39480
 Alpha  occ. eigenvalues --   -0.38515  -0.37770  -0.36867  -0.35197  -0.31631
 Alpha  occ. eigenvalues --   -0.29888  -0.28150  -0.24603  -0.22128
 Alpha virt. eigenvalues --    0.01577   0.06680   0.08354   0.12168   0.13086
 Alpha virt. eigenvalues --    0.13586   0.14548   0.15660   0.16291   0.16841
 Alpha virt. eigenvalues --    0.18304   0.20960   0.21611   0.21952   0.22910

 Mulliken charges:
               1
     1  C   -0.520432
     2  C    0.285550
     3  C   -0.310231
     4  C    0.384792
     5  O   -0.481074
     6  C   -0.344742
     7  C    0.318058
     8  O   -0.479618
     9  C   -0.273181
    10  H    0.128337
    11  H    0.139778
    12  H    0.116762
    13  H    0.096401
    14  H    0.278803
    15  H    0.099636
    16  H    0.080445
    17  H    0.280360
    18  H    0.102854
    19  H    0.097501
 Sum of Mulliken charges =   0.00000

 Dipole moment (field-independent basis, Debye):
    X=             -0.9748    Y=              1.2949    Z=              2.0726  Tot=              2.6311
 Quadrupole moment (field-independent basis, Debye-Ang):
   XX=            -52.5594   YY=            -52.7988   ZZ=            -51.9603
   XY=              1.0843   XZ=              0.7351   YZ=             -0.8778

  Exact polarizability:  89.478   0.262  76.101  -0.107   0.216  64.289
 Approx polarizability: 131.989   9.443 112.189  -0.892   1.427  98.973

                      1                      2                      3
                      A                      A                      A
 Frequencies --    147.9778               171.6971               209.8687
 Red. masses --      1.2899                 1.7460                 1.1432
 Frc consts  --      0.0166                 0.0303                 0.0297
 IR Inten    --      2.1234                 3.1038                30.3747

                      4                      5                      6
                      A                      A                      A
 Frequencies --    222.6398               238.8505               279.6807
 Red. masses --      2.5462                 1.2831                 3.7976
 Frc consts  --      0.0744                 0.0431                 0.1750
 IR Inten    --     29.4397                58.3075                 6.7030

                      7                      8                      9
                      A                      A                      A
 Frequencies --    314.1411               401.3550               465.9272
 Red. masses --      3.8191                 2.8742                 3.1170
 Frc consts  --      0.2221                 0.2728                 0.3987
 IR Inten    --     82.1317                 8.7939                11.0189

                     10                     11                     12
                      A                      A                      A
 Frequencies --    509.7397               518.1227               574.8089
 Red. masses --      2.5956                 2.3612                 3.3796
 Frc consts  --      0.3974                 0.3735                 0.6579
 IR Inten    --      2.1078                 3.1053                 3.3919

                     13                     14                     15
                      A                      A                      A
 Frequencies --    578.5572               616.2208               678.5859
 Red. masses --      2.8428                 5.5353                 2.9033
 Frc consts  --      0.5606                 1.2384                 0.7877
 IR Inten    --      5.7602                 0.6129                 2.4331

                     16                     17                     18
                      A                      A                      A
 Frequencies --    763.2996               783.1772               865.0365
 Red. masses --      1.4578                 3.0089                 3.2684
 Frc consts  --      0.5004                 1.0874                 1.4410
 IR Inten    --     16.7477                 4.3738                10.5020

                     19                     20                     21
                      A                      A                      A
 Frequencies --    903.0089               942.1235              1000.4657
 Red. masses --      2.6957                 1.9106                 1.6436
 Frc consts  --      1.2951                 0.9992                 0.9693
 IR Inten    --      4.1322                 4.0888                 8.5379

                     22                     23                     24
                      A                      A                      A
 Frequencies --   1014.4496              1026.8401              1036.8715
 Red. masses --      2.5436                 1.6306                 1.2213
 Frc consts  --      1.5422                 1.0130                 0.7736
 IR Inten    --      5.3417                 7.2269                 6.1071

                     25                     26                     27
                      A                      A                      A
 Frequencies --   1068.6999              1101.8119              1143.3076
 Red. masses --      1.6066                 2.1860                 1.5938
 Frc consts  --      1.0811                 1.5636                 1.2275
 IR Inten    --      3.4786                79.2211                16.2898

                     28                     29                     30
                      A                      A                      A
 Frequencies --   1153.9095              1161.9127              1182.1152
 Red. masses --      2.5202                 1.3465                 1.5439
 Frc consts  --      1.9771                 1.0710                 1.2711
 IR Inten    --      5.0152                 5.8512                16.0641

                     31                     32                     33
                      A                      A                      A
 Frequencies --   1238.9369              1309.3624              1318.9671
 Red. masses --      2.3426                 2.8641                 2.0395
 Frc consts  --      2.1185                 2.8931                 2.0904
 IR Inten    --    136.4680                41.2547               198.3453

                     34                     35                     36
                      A                      A                      A
 Frequencies --   1342.6352              1384.6130              1410.4772
 Red. masses --      1.9500                 2.1926                 1.2666
 Frc consts  --      2.0711                 2.4767                 1.4846
 IR Inten    --     15.4601                 2.6150                 0.8115

                     37                     38                     39
                      A                      A                      A
 Frequencies --   1472.4060              1475.8588              1484.5758
 Red. masses --      1.1109                 1.0458                 1.0626
 Frc consts  --      1.4189                 1.3421                 1.3798
 IR Inten    --      2.7019                 6.7395                10.5641

                     40                     41                     42
                      A                      A                      A
 Frequencies --   1521.3891              1698.3980              3011.4808
 Red. masses --      1.2166                 7.6316                 1.0425
 Frc consts  --      1.6591                12.9702                 5.5703
 IR Inten    --      0.0609                 5.0794                33.5718

                     43                     44                     45
                      A                      A                      A
 Frequencies --   3045.1283              3060.5257              3062.1675
 Red. masses --      1.0544                 1.0925                 1.0572
 Frc consts  --      5.7609                 6.0291                 5.8409
 IR Inten    --     43.1772                15.6507                25.9939

                     46                     47                     48
                      A                      A                      A
 Frequencies --   3111.6713              3118.5387              3134.7324
 Red. masses --      1.0993                 1.1110                 1.1100
 Frc consts  --      6.2710                 6.3661                 6.4263
 IR Inten    --     15.0879                32.8873                31.1117

                     49                     50                     51
                      A                      A                      A
 Frequencies --   3210.4807              3806.7973              3808.5261
 Red. masses --      1.0979                 1.0658                 1.0658
 Frc consts  --      6.6672                 9.1001                 9.1087
 IR Inten    --      7.9573                21.5385                19.9883

 - Thermochemistry -
 -------------------
 Temperature   298.150 Kelvin.  Pressure   1.00000 Atm.
 Atom     1 has atomic number  6 and mass  12.00000

 Molecular mass:   126.06808 amu.
 Principal axes and moments of inertia in atomic units:
                           1         2         3
     Eigenvalues --   651.615891197.344061551.72063
           X            0.99882  -0.04855   0.00218
           Y            0.04856   0.99880  -0.00704
           Z           -0.00184   0.00714   0.99997
 This molecule is an asymmetric top.
 Rotational symmetry number  1.
 Warning -- assumption of classical behavior for rotation
           may cause significant error
 Rotational temperatures (Kelvin)      0.13292     0.07234     0.05582
 Rotational constants (GHZ):           2.76964     1.50729     1.16306
 Zero-point vibrational energy     413327.0 (Joules/Mol)
                                   98.78751 (Kcal/Mol)
 Warning -- explicit consideration of  14 degrees of freedom as
           vibrations may cause significant error
 Vibrational temperatures:    212.91   247.03   301.95   320.33   343.65
          (Kelvin)            402.40   451.98   577.46   670.36   733.40
                              745.46   827.02   832.41   886.60   976.33
                             1098.22  1126.82  1244.59  1299.23  1355.50
                             1439.45  1459.56  1477.39  1491.82  1537.62
                             1585.26  1644.96  1660.22  1671.73  1700.80
                             1782.55  1883.88  1897.70  1931.75  1992.15
                             2029.36  2118.46  2123.43  2135.97  2188.94
                             2443.61  4332.84  4381.25  4403.41  4405.77
                             4477.00  4486.88  4510.18  4619.16  5477.13
                             5479.61

 Zero-point correction=                           0.157428 (Hartree/Particle)
 Thermal correction to Energy=                    0.166228
 Thermal correction to Enthalpy=                  0.167172
 Thermal correction to Gibbs Free Energy=         0.124780
 Sum of electronic and zero-point Energies=           -422.996585
 Sum of electronic and thermal Energies=              -422.987785
 Sum of electronic and thermal Enthalpies=            -422.986841
 Sum of electronic and thermal Free Energies=         -423.029233

                     E (Thermal)             CV                S
                      KCal/Mol        Cal/Mol-Kelvin    Cal/Mol-Kelvin
 Total                  104.309             34.758             89.222
 Electronic               0.000              0.000              0.000
 Translational            0.889              2.981             40.409
 Rotational               0.889              2.981             28.584
 Vibrational            102.532             28.797             20.230
 Vibration     1          0.617              1.905              2.698
 Vibration     2          0.626              1.877              2.417
 Vibration     3          0.642              1.826              2.045
 Vibration     4          0.648              1.807              1.938
 Vibration     5          0.657              1.781              1.811
 Vibration     6          0.680              1.711              1.536
 Vibration     7          0.702              1.647              1.340
 Vibration     8          0.767              1.467              0.958
 Vibration     9          0.823              1.326              0.749
 Vibration    10          0.865              1.228              0.634
 Vibration    11          0.873              1.210              0.614
 Vibration    12          0.931              1.086              0.495
 Vibration    13          0.935              1.078              0.488
 Vibration    14          0.976              0.998              0.423

 Normal termination of Gaussian 09 at Mon Jan 27 22:46:30 2020.
