 Gaussian 09, Revision D.01,
 Gaussian 09:  ES64L-G09RevD.01 24-Apr-2013

 -----------------------------
 # b3lyp 6-31G(2df,p) opt Freq
 -----------------------------

 -----
 titel
 -----
 Symbolic Z-matrix:
 Charge =  0 Multiplicity = 1

 SCF Done:  E(RB3LYP) =  -423.116975582     A.U. after   13 cycles
 Optimization completed.
    -- Stationary point found.
 Normal termination of Gaussian 09 at Mon Jan 27 22:04:18 2020.

 ----------------------------------------------------------------------
 #N Geom=AllCheck Guess=TCheck SCRF=Check GenChk RB3LYP/6-31G(2df,p) Fr
 eq
 ----------------------------------------------------------------------

 Structure from the checkpoint file:  "/scratch/puck/g09_feeb8b16-6b60-45ab-8a5a-6ed2a3657b0d/Gau-189589.chk"
 -----
 titel
 -----
 Charge =  0 Multiplicity = 1

                         Standard orientation:
 ---------------------------------------------------------------------
 Center     Atomic      Atomic             Coordinates (Angstroms)
 Number     Number       Type             X           Y           Z
 ---------------------------------------------------------------------
      1          6           0        2.116575    1.346373    0.003455
      2          6           0        0.775177    0.750467    0.410162
      3          6           0        0.698090   -0.828731    0.398051
      4          8           0        1.837628   -1.507458   -0.092606
      5          6           0       -0.387528   -0.766417   -0.705663
      6          6           0       -1.859373   -0.675690   -0.237710
      7          8           0       -1.885119    0.049746    1.000657
      8          6           0       -1.806277    0.797738   -0.220059
      9          6           0       -0.328933    0.794490   -0.691226
     10          1           0        2.881572    1.169406    0.768577
     11          1           0        2.479669    0.912492   -0.932439
     12          1           0        2.031465    2.430207   -0.129639
     13          1           0        0.439419    1.169619    1.362100
     14          1           0        0.354724   -1.257292    1.347090
     15          1           0        2.522378   -1.471719    0.583011
     16          1           0       -0.194511   -1.341788   -1.609826
     17          1           0       -2.678052   -1.364826   -0.412648
     18          1           0       -2.575044    1.545400   -0.381394
     19          1           0       -0.128083    1.360819   -1.601294
 ---------------------------------------------------------------------

 SCF Done:  E(RB3LYP) =  -423.116975582     A.U. after    1 cycles

 The electronic state is 1-A.
 Alpha  occ. eigenvalues --  -19.15244 -19.13614 -10.23660 -10.23595 -10.22462
 Alpha  occ. eigenvalues --  -10.18628 -10.18476 -10.18034 -10.17261  -1.07724
 Alpha  occ. eigenvalues --   -1.01734  -0.84255  -0.74342  -0.68990  -0.65873
 Alpha  occ. eigenvalues --   -0.59500  -0.58216  -0.53536  -0.51551  -0.49634
 Alpha  occ. eigenvalues --   -0.47623  -0.43965  -0.43072  -0.40214  -0.39495
 Alpha  occ. eigenvalues --   -0.37863  -0.35709  -0.35291  -0.33515  -0.31933
 Alpha  occ. eigenvalues --   -0.29192  -0.27210  -0.25346  -0.24784
 Alpha virt. eigenvalues --    0.06357   0.07405   0.09775   0.11036   0.13053
 Alpha virt. eigenvalues --    0.14580   0.14961   0.15393   0.15931   0.16458
 Alpha virt. eigenvalues --    0.17391   0.17824   0.19439   0.20216   0.21071

 Mulliken charges:
               1
     1  C   -0.419074
     2  C   -0.023841
     3  C    0.110623
     4  O   -0.437104
     5  C   -0.072993
     6  C   -0.000840
     7  O   -0.235646
     8  C    0.004910
     9  C   -0.067155
    10  H    0.102494
    11  H    0.127310
    12  H    0.112252
    13  H    0.079449
    14  H    0.076378
    15  H    0.283115
    16  H    0.083339
    17  H    0.103889
    18  H    0.102082
    19  H    0.070814
 Sum of Mulliken charges =   0.00000

 Dipole moment (field-independent basis, Debye):
    X=              0.2877    Y=              0.5794    Z=             -0.4748  Tot=              0.8024
 Quadrupole moment (field-independent basis, Debye-Ang):
   XX=            -50.4950   YY=            -52.7299   ZZ=            -53.6682
   XY=              0.3762   XZ=              6.4385   YZ=             -1.9124

  Exact polarizability:  84.788   1.343  74.303   1.931  -0.345  63.065
 Approx polarizability: 109.654  -0.933 112.091  -0.507   0.625 103.570

                      1                      2                      3
                      A                      A                      A
 Frequencies --     87.1568               214.1287               223.6409
 Red. masses --      3.3857                 1.5175                 1.7714
 Frc consts  --      0.0152                 0.0410                 0.0522
 IR Inten    --      0.2989                 1.7588                 6.4179

                      4                      5                      6
                      A                      A                      A
 Frequencies --    247.9361               287.3524               299.7898
 Red. masses --      2.5724                 1.4110                 3.0691
 Frc consts  --      0.0932                 0.0686                 0.1625
 IR Inten    --      4.0920               103.3091                 6.2089

                      7                      8                      9
                      A                      A                      A
 Frequencies --    358.7311               365.2386               569.4397
 Red. masses --      4.3948                 3.1669                 3.3500
 Frc consts  --      0.3332                 0.2489                 0.6400
 IR Inten    --      3.7774                16.4411                 3.1820

                     10                     11                     12
                      A                      A                      A
 Frequencies --    598.9610               720.7227               759.8711
 Red. masses --      5.8935                 3.1067                 5.1199
 Frc consts  --      1.2457                 0.9508                 1.7418
 IR Inten    --     12.0917                 1.2287                 2.9237

                     13                     14                     15
                      A                      A                      A
 Frequencies --    798.8152               828.8345               850.0336
 Red. masses --      3.0168                 1.7687                 2.6036
 Frc consts  --      1.1342                 0.7159                 1.1084
 IR Inten    --      3.3584                 8.2288                 0.5853

                     16                     17                     18
                      A                      A                      A
 Frequencies --    877.4218               885.2955               925.6649
 Red. masses --      2.6696                 1.5750                 2.9432
 Frc consts  --      1.2109                 0.7273                 1.4859
 IR Inten    --      0.7377                18.3576                 8.6897

                     19                     20                     21
                      A                      A                      A
 Frequencies --    944.1622               989.2599              1007.4116
 Red. masses --      1.9445                 1.9888                 2.0034
 Frc consts  --      1.0213                 1.1468                 1.1979
 IR Inten    --      5.1130                 7.1203                25.4977

                     22                     23                     24
                      A                      A                      A
 Frequencies --   1013.8188              1049.0765              1091.3577
 Red. masses --      1.7270                 1.2960                 1.7875
 Frc consts  --      1.0458                 0.8404                 1.2544
 IR Inten    --      9.7315                 7.3029                11.8832

                     25                     26                     27
                      A                      A                      A
 Frequencies --   1099.8348              1126.5697              1135.3811
 Red. masses --      3.0963                 2.9141                 2.1223
 Frc consts  --      2.2067                 2.1791                 1.6119
 IR Inten    --     28.7437                24.6489                 1.4706

                     28                     29                     30
                      A                      A                      A
 Frequencies --   1195.9012              1203.6825              1220.7170
 Red. masses --      1.2352                 1.3652                 1.4436
 Frc consts  --      1.0409                 1.1654                 1.2674
 IR Inten    --      9.4223                 0.1157                10.4704

                     31                     32                     33
                      A                      A                      A
 Frequencies --   1241.3310              1260.0361              1270.9588
 Red. masses --      1.5002                 1.4206                 1.5125
 Frc consts  --      1.3620                 1.3289                 1.4395
 IR Inten    --     12.2069                 9.9652                 1.4001

                     34                     35                     36
                      A                      A                      A
 Frequencies --   1278.2769              1315.4119              1337.5488
 Red. masses --      1.7085                 1.3791                 1.7830
 Frc consts  --      1.6448                 1.4060                 1.8794
 IR Inten    --     19.5680                31.9937                 2.8919

                     37                     38                     39
                      A                      A                      A
 Frequencies --   1380.2726              1401.8455              1422.1587
 Red. masses --      2.5571                 1.3076                 1.4954
 Frc consts  --      2.8703                 1.5140                 1.7820
 IR Inten    --      4.6534                 0.7929                 8.6394

                     40                     41                     42
                      A                      A                      A
 Frequencies --   1491.6841              1499.7098              3026.7814
 Red. masses --      1.0476                 1.0467                 1.0612
 Frc consts  --      1.3734                 1.3871                 5.7279
 IR Inten    --      3.8224                 4.2929                52.9185

                     43                     44                     45
                      A                      A                      A
 Frequencies --   3027.6864              3073.0778              3086.8034
 Red. masses --      1.0605                 1.0856                 1.0997
 Frc consts  --      5.7276                 6.0402                 6.1737
 IR Inten    --     21.7416                14.1285                25.2607

                     46                     47                     48
                      A                      A                      A
 Frequencies --   3105.7178              3113.6089              3131.8019
 Red. masses --      1.0887                 1.0996                 1.0890
 Frc consts  --      6.1868                 6.2807                 6.2932
 IR Inten    --     22.6769                25.8658                14.1246

                     49                     50                     51
                      A                      A                      A
 Frequencies --   3170.1572              3185.4140              3814.7564
 Red. masses --      1.0870                 1.1016                 1.0661
 Frc consts  --      6.4365                 6.5859                 9.1405
 IR Inten    --     21.4625                33.1015                17.9937

 - Thermochemistry -
 -------------------
 Temperature   298.150 Kelvin.  Pressure   1.00000 Atm.
 Atom     1 has atomic number  6 and mass  12.00000

 Molecular mass:   126.06808 amu.
 Principal axes and moments of inertia in atomic units:
                           1         2         3
     Eigenvalues --   592.174321231.820041509.92427
           X            0.99911   0.03808   0.01793
           Y           -0.03781   0.99917  -0.01489
           Z           -0.01848   0.01420   0.99973
 This molecule is an asymmetric top.
 Rotational symmetry number  1.
 Warning -- assumption of classical behavior for rotation
           may cause significant error
 Rotational temperatures (Kelvin)      0.14626     0.07031     0.05736
 Rotational constants (GHZ):           3.04765     1.46510     1.19525
 Zero-point vibrational energy     416367.7 (Joules/Mol)
                                   99.51427 (Kcal/Mol)
 Warning -- explicit consideration of  10 degrees of freedom as
           vibrations may cause significant error
 Vibrational temperatures:    125.40   308.08   321.77   356.72   413.44
          (Kelvin)            431.33   516.13   525.50   819.30   861.77
                             1036.96  1093.28  1149.32  1192.51  1223.01
                             1262.41  1273.74  1331.82  1358.44  1423.32
                             1449.44  1458.66  1509.39  1570.22  1582.42
                             1620.88  1633.56  1720.63  1731.83  1756.34
                             1786.00  1812.91  1828.62  1839.15  1892.58
                             1924.43  1985.90  2016.94  2046.17  2146.20
                             2157.75  4354.86  4356.16  4421.47  4441.22
                             4468.43  4479.78  4505.96  4561.14  4583.09
                             5488.58

 Zero-point correction=                           0.158586 (Hartree/Particle)
 Thermal correction to Energy=                    0.166631
 Thermal correction to Enthalpy=                  0.167575
 Thermal correction to Gibbs Free Energy=         0.126241
 Sum of electronic and zero-point Energies=           -422.958389
 Sum of electronic and thermal Energies=              -422.950345
 Sum of electronic and thermal Enthalpies=            -422.949401
 Sum of electronic and thermal Free Energies=         -422.990734

                     E (Thermal)             CV                S
                      KCal/Mol        Cal/Mol-Kelvin    Cal/Mol-Kelvin
 Total                  104.562             31.750             86.994
 Electronic               0.000              0.000              0.000
 Translational            0.889              2.981             40.409
 Rotational               0.889              2.981             28.490
 Vibrational            102.785             25.788             18.096
 Vibration     1          0.601              1.958              3.723
 Vibration     2          0.644              1.819              2.008
 Vibration     3          0.649              1.805              1.929
 Vibration     4          0.662              1.766              1.745
 Vibration     5          0.685              1.697              1.490
 Vibration     6          0.692              1.674              1.418
 Vibration     7          0.734              1.557              1.128
 Vibration     8          0.738              1.544              1.100
 Vibration     9          0.925              1.097              0.505
 Vibration    10          0.957              1.034              0.451

 Normal termination of Gaussian 09 at Mon Jan 27 22:49:47 2020.
