 Gaussian 09, Revision D.01,
 Gaussian 09:  ES64L-G09RevD.01 24-Apr-2013

 -----------------------------
 # b3lyp 6-31G(2df,p) opt Freq
 -----------------------------

 -----
 titel
 -----
 Symbolic Z-matrix:
 Charge =  0 Multiplicity = 1

 SCF Done:  E(RB3LYP) =  -423.150890577     A.U. after   14 cycles
 Optimization completed.
    -- Stationary point found.
 Normal termination of Gaussian 09 at Mon Jan 27 12:00:05 2020.

 ----------------------------------------------------------------------
 #N Geom=AllCheck Guess=TCheck SCRF=Check GenChk RB3LYP/6-31G(2df,p) Fr
 eq
 ----------------------------------------------------------------------

 Structure from the checkpoint file:  "/scratch/puck/g09_b0950496-bce5-442a-90d3-f97067e2eebb/Gau-21044.chk"
 -----
 titel
 -----
 Charge =  0 Multiplicity = 1

                         Standard orientation:
 ---------------------------------------------------------------------
 Center     Atomic      Atomic             Coordinates (Angstroms)
 Number     Number       Type             X           Y           Z
 ---------------------------------------------------------------------
      1          6           0       -2.587322   -0.349032   -0.445900
      2          6           0       -2.048137   -0.461048    0.974236
      3          6           0       -1.156285   -0.054949   -0.171090
      4          6           0        0.033103   -0.878196   -0.629258
      5          6           0        1.194916   -0.029322   -0.121300
      6          6           0        2.608037   -0.293309   -0.395240
      7          8           0        2.043805   -0.568554    0.892876
      8          6           0        0.606392    1.363421    0.139918
      9          8           0       -0.756605    1.296499   -0.263738
     10          1           0       -2.834023   -1.258721   -0.983102
     11          1           0       -3.225766    0.498286   -0.669436
     12          1           0       -2.337143    0.316023    1.672737
     13          1           0       -1.929244   -1.448628    1.407361
     14          1           0        0.067097   -1.886893   -0.214036
     15          1           0        0.053765   -0.942483   -1.723387
     16          1           0        2.893246   -1.168504   -0.978977
     17          1           0        3.319033    0.532135   -0.427812
     18          1           0        0.702659    1.591048    1.211260
     19          1           0        1.088558    2.158788   -0.435915
 ---------------------------------------------------------------------

 SCF Done:  E(RB3LYP) =  -423.150890577     A.U. after    1 cycles

 The electronic state is 1-A.
 Alpha  occ. eigenvalues --  -19.15120 -19.14297 -10.24595 -10.23944 -10.23593
 Alpha  occ. eigenvalues --  -10.23002 -10.19087 -10.18455 -10.18151  -1.07426
 Alpha  occ. eigenvalues --   -1.04241  -0.85016  -0.76494  -0.70172  -0.66439
 Alpha  occ. eigenvalues --   -0.60465  -0.57850  -0.55922  -0.50435  -0.48813
 Alpha  occ. eigenvalues --   -0.48598  -0.46489  -0.44619  -0.42797  -0.41549
 Alpha  occ. eigenvalues --   -0.38189  -0.36756  -0.36343  -0.34145  -0.32544
 Alpha  occ. eigenvalues --   -0.29932  -0.29087  -0.26313  -0.23820
 Alpha virt. eigenvalues --    0.07685   0.08377   0.10536   0.11228   0.12279
 Alpha virt. eigenvalues --    0.12968   0.13812   0.14206   0.16068   0.16827
 Alpha virt. eigenvalues --    0.17685   0.18487   0.19988   0.21627   0.22829

 Mulliken charges:
               1
     1  C   -0.345541
     2  C   -0.322321
     3  C    0.452260
     4  C   -0.378915
     5  C    0.395576
     6  C   -0.252157
     7  O   -0.267597
     8  C   -0.154449
     9  O   -0.291586
    10  H    0.114976
    11  H    0.126379
    12  H    0.121404
    13  H    0.113917
    14  H    0.122804
    15  H    0.112195
    16  H    0.114338
    17  H    0.114122
    18  H    0.113110
    19  H    0.111484
 Sum of Mulliken charges =   0.00000

 Dipole moment (field-independent basis, Debye):
    X=              0.3649    Y=             -0.4653    Z=             -1.2698  Tot=              1.4008
 Quadrupole moment (field-independent basis, Debye-Ang):
   XX=            -51.9408   YY=            -52.5246   ZZ=            -54.1022
   XY=              3.2637   XZ=             -3.9600   YZ=              2.3897

  Exact polarizability:  91.555   2.855  69.460  -2.325   2.204  65.554
 Approx polarizability: 114.137   1.856 101.535  -0.609  -0.712 103.713

                      1                      2                      3
                      A                      A                      A
 Frequencies --     41.6061               123.0824               245.4907
 Red. masses --      3.2850                 3.0576                 2.4744
 Frc consts  --      0.0034                 0.0273                 0.0879
 IR Inten    --      2.4713                 3.3093                 0.0926

                      4                      5                      6
                      A                      A                      A
 Frequencies --    281.4002               343.7490               392.8989
 Red. masses --      2.4051                 2.3625                 3.0323
 Frc consts  --      0.1122                 0.1645                 0.2758
 IR Inten    --      1.2341                 1.7830                 5.4120

                      7                      8                      9
                      A                      A                      A
 Frequencies --    397.7647               433.0902               478.3760
 Red. masses --      2.4915                 3.4259                 3.5654
 Frc consts  --      0.2323                 0.3786                 0.4807
 IR Inten    --      4.4361                 4.6463                 1.1231

                     10                     11                     12
                      A                      A                      A
 Frequencies --    586.0128               758.3416               776.4949
 Red. masses --      4.4582                 1.7527                 1.5707
 Frc consts  --      0.9020                 0.5939                 0.5580
 IR Inten    --      1.2657                 6.6336                 4.7677

                     13                     14                     15
                      A                      A                      A
 Frequencies --    785.0642               825.1794               863.8947
 Red. masses --      3.4588                 3.6165                 1.9700
 Frc consts  --      1.2560                 1.4509                 0.8662
 IR Inten    --     10.0758                21.6850                11.0261

                     16                     17                     18
                      A                      A                      A
 Frequencies --    906.0563               909.2372               942.5334
 Red. masses --      1.6124                 1.5284                 1.6589
 Frc consts  --      0.7799                 0.7445                 0.8683
 IR Inten    --      1.1751                 4.3608                 6.7041

                     19                     20                     21
                      A                      A                      A
 Frequencies --    957.2489               980.6976              1005.5878
 Red. masses --      3.7196                 2.4557                 2.2180
 Frc consts  --      2.0082                 1.3915                 1.3214
 IR Inten    --     24.5492                 9.8498                 9.9321

                     22                     23                     24
                      A                      A                      A
 Frequencies --   1045.3389              1077.4743              1078.6627
 Red. masses --      1.4284                 1.5013                 4.8984
 Frc consts  --      0.9196                 1.0269                 3.3579
 IR Inten    --      1.3607                 0.0856                80.0952

                     25                     26                     27
                      A                      A                      A
 Frequencies --   1101.6887              1127.7859              1146.7627
 Red. masses --      2.5840                 1.2861                 1.5129
 Frc consts  --      1.8478                 0.9638                 1.1722
 IR Inten    --     29.7556                 2.3223                 3.3958

                     28                     29                     30
                      A                      A                      A
 Frequencies --   1175.8271              1187.8587              1221.1023
 Red. masses --      1.5412                 1.2676                 1.5818
 Frc consts  --      1.2554                 1.0538                 1.3896
 IR Inten    --      2.3538                 0.0523                 0.1997

                     31                     32                     33
                      A                      A                      A
 Frequencies --   1232.3815              1264.6919              1272.4994
 Red. masses --      1.3978                 2.6773                 1.3538
 Frc consts  --      1.2508                 2.5230                 1.2916
 IR Inten    --      9.6475                39.5722                11.9386

                     34                     35                     36
                      A                      A                      A
 Frequencies --   1356.9000              1379.5571              1434.6974
 Red. masses --      1.5781                 2.1709                 2.3541
 Frc consts  --      1.7119                 2.4342                 2.8550
 IR Inten    --     12.9231                19.0314                 7.5973

                     37                     38                     39
                      A                      A                      A
 Frequencies --   1451.8430              1475.0851              1499.4472
 Red. masses --      1.0916                 1.1083                 1.4128
 Frc consts  --      1.3557                 1.4208                 1.8715
 IR Inten    --      2.0243                 3.7699                14.5584

                     40                     41                     42
                      A                      A                      A
 Frequencies --   1511.6516              1536.9217              3004.6067
 Red. masses --      1.2521                 1.4622                 1.0662
 Frc consts  --      1.6857                 2.0350                 5.6713
 IR Inten    --      4.3134                 2.9937                41.0232

                     43                     44                     45
                      A                      A                      A
 Frequencies --   3040.1444              3073.6314              3081.3705
 Red. masses --      1.0665                 1.0511                 1.0974
 Frc consts  --      5.8078                 5.8507                 6.1391
 IR Inten    --     18.5297                25.0718                31.1234

                     46                     47                     48
                      A                      A                      A
 Frequencies --   3120.9636              3131.6421              3135.0578
 Red. masses --      1.0977                 1.0508                 1.0583
 Frc consts  --      6.2994                 6.0719                 6.1282
 IR Inten    --      6.6399                14.3086                 5.8774

                     49                     50                     51
                      A                      A                      A
 Frequencies --   3157.8746              3216.5890              3230.4918
 Red. masses --      1.1192                 1.1182                 1.1156
 Frc consts  --      6.5760                 6.8166                 6.8596
 IR Inten    --     23.3671                 0.1049                10.5321

 - Thermochemistry -
 -------------------
 Temperature   298.150 Kelvin.  Pressure   1.00000 Atm.
 Atom     1 has atomic number  6 and mass  12.00000

 Molecular mass:   126.06808 amu.
 Principal axes and moments of inertia in atomic units:
                           1         2         3
     Eigenvalues --   475.155361506.536241647.70750
           X            0.99966   0.02113  -0.01556
           Y           -0.01979   0.99648   0.08147
           Z            0.01723  -0.08114   0.99655
 This molecule is an asymmetric top.
 Rotational symmetry number  1.
 Warning -- assumption of classical behavior for rotation
           may cause significant error
 Rotational temperatures (Kelvin)      0.18229     0.05749     0.05257
 Rotational constants (GHZ):           3.79821     1.19794     1.09530
 Zero-point vibrational energy     417522.8 (Joules/Mol)
                                   99.79034 (Kcal/Mol)
 Warning -- explicit consideration of  10 degrees of freedom as
           vibrations may cause significant error
 Vibrational temperatures:     59.86   177.09   353.21   404.87   494.58
          (Kelvin)            565.29   572.29   623.12   688.28   843.14
                             1091.08  1117.20  1129.53  1187.25  1242.95
                             1303.61  1308.19  1356.09  1377.27  1411.00
                             1446.81  1504.01  1550.24  1551.95  1585.08
                             1622.63  1649.93  1691.75  1709.06  1756.89
                             1773.12  1819.61  1830.84  1952.27  1984.87
                             2064.21  2088.88  2122.32  2157.37  2174.93
                             2211.28  4322.95  4374.08  4422.26  4433.40
                             4490.36  4505.73  4510.64  4543.47  4627.95
                             4647.95

 Zero-point correction=                           0.159026 (Hartree/Particle)
 Thermal correction to Energy=                    0.166979
 Thermal correction to Enthalpy=                  0.167923
 Thermal correction to Gibbs Free Energy=         0.126046
 Sum of electronic and zero-point Energies=           -422.991865
 Sum of electronic and thermal Energies=              -422.983912
 Sum of electronic and thermal Enthalpies=            -422.982968
 Sum of electronic and thermal Free Energies=         -423.024845

                     E (Thermal)             CV                S
                      KCal/Mol        Cal/Mol-Kelvin    Cal/Mol-Kelvin
 Total                  104.781             31.085             88.137
 Electronic               0.000              0.000              0.000
 Translational            0.889              2.981             40.409
 Rotational               0.889              2.981             28.558
 Vibrational            103.003             25.124             19.171
 Vibration     1          0.594              1.981              5.181
 Vibration     2          0.610              1.930              3.051
 Vibration     3          0.660              1.770              1.763
 Vibration     4          0.681              1.708              1.525
 Vibration     5          0.722              1.588              1.195
 Vibration     6          0.760              1.485              0.989
 Vibration     7          0.764              1.475              0.971
 Vibration     8          0.794              1.398              0.849
 Vibration     9          0.835              1.298              0.714
 Vibration    10          0.943              1.062              0.474

 Optimization completed.
    -- Stationary point found.
 Normal termination of Gaussian 09 at Mon Jan 27 12:42:35 2020.
