 Gaussian 09, Revision D.01,
 Gaussian 09:  ES64L-G09RevD.01 24-Apr-2013

 -----------------------------
 # b3lyp 6-31G(2df,p) opt Freq
 -----------------------------

 -----
 titel
 -----
 Symbolic Z-matrix:
 Charge =  0 Multiplicity = 1

 SCF Done:  E(RB3LYP) =  -423.119290356     A.U. after   13 cycles
 Optimization completed.
    -- Stationary point found.
 Normal termination of Gaussian 09 at Mon Jan 27 11:29:53 2020.

 ----------------------------------------------------------------------
 #N Geom=AllCheck Guess=TCheck SCRF=Check GenChk RB3LYP/6-31G(2df,p) Fr
 eq
 ----------------------------------------------------------------------

 Structure from the checkpoint file:  "/scratch/puck/g09_1154f9fc-1b69-4d1c-8ddd-aee4784929ef/Gau-60972.chk"
 -----
 titel
 -----
 Charge =  0 Multiplicity = 1

                         Standard orientation:
 ---------------------------------------------------------------------
 Center     Atomic      Atomic             Coordinates (Angstroms)
 Number     Number       Type             X           Y           Z
 ---------------------------------------------------------------------
      1          6           0        2.109201   -0.598447   -0.007760
      2          6           0        0.708040   -0.974769   -0.486352
      3          8           0       -0.238271   -1.729175    0.199130
      4          6           0       -1.543722   -1.109875    0.139039
      5          6           0       -1.662101    0.337217   -0.430707
      6          6           0       -0.673699    1.425611    0.074403
      7          6           0        0.197681    0.888913    1.223448
      8          6           0        0.985666    0.385897    0.026633
      9          8           0        0.528619    1.486213   -0.779277
     10          1           0        2.464188   -0.916434    0.968068
     11          1           0        2.869641   -0.574680   -0.780958
     12          1           0        0.653638   -1.047630   -1.573987
     13          1           0       -2.194509   -1.751789   -0.469678
     14          1           0       -1.938096   -1.133296    1.161956
     15          1           0       -1.592549    0.323549   -1.523222
     16          1           0       -2.686536    0.648687   -0.192272
     17          1           0       -1.136226    2.412544    0.146105
     18          1           0        0.728665    1.687247    1.746116
     19          1           0       -0.217401    0.168217    1.926820
 ---------------------------------------------------------------------

 SCF Done:  E(RB3LYP) =  -423.119290356     A.U. after    1 cycles

 The electronic state is 1-A.
 Alpha  occ. eigenvalues --  -19.14194 -19.13543 -10.24348 -10.23569 -10.23455
 Alpha  occ. eigenvalues --  -10.22431 -10.19763 -10.19320 -10.18843  -1.04976
 Alpha  occ. eigenvalues --   -1.02539  -0.84505  -0.77904  -0.72457  -0.67259
 Alpha  occ. eigenvalues --   -0.61248  -0.55985  -0.54151  -0.50615  -0.49545
 Alpha  occ. eigenvalues --   -0.48630  -0.47119  -0.42929  -0.41220  -0.40215
 Alpha  occ. eigenvalues --   -0.37958  -0.37495  -0.35770  -0.35239  -0.32183
 Alpha  occ. eigenvalues --   -0.30194  -0.29533  -0.25528  -0.22064
 Alpha virt. eigenvalues --    0.07100   0.09036   0.09932   0.11750   0.12371
 Alpha virt. eigenvalues --    0.13002   0.13890   0.15175   0.15542   0.16916
 Alpha virt. eigenvalues --    0.17400   0.18161   0.19785   0.21194   0.22596

 Mulliken charges:
               1
     1  C   -0.444072
     2  C    0.071012
     3  O   -0.265975
     4  C   -0.075070
     5  C   -0.244990
     6  C    0.079258
     7  C   -0.297039
     8  C    0.400275
     9  O   -0.324165
    10  H    0.130045
    11  H    0.131223
    12  H    0.089954
    13  H    0.105258
    14  H    0.108321
    15  H    0.125726
    16  H    0.105377
    17  H    0.079580
    18  H    0.107916
    19  H    0.117367
 Sum of Mulliken charges =   0.00000

 Dipole moment (field-independent basis, Debye):
    X=             -1.0864    Y=              0.2623    Z=              0.7336  Tot=              1.3369
 Quadrupole moment (field-independent basis, Debye-Ang):
   XX=            -48.2916   YY=            -58.5532   ZZ=            -52.3289
   XY=             -2.1838   XZ=              0.5594   YZ=              3.2521

  Exact polarizability:  85.414  -2.962  71.496   0.548   2.522  66.052
 Approx polarizability: 116.927  -3.287 106.529  -0.881  -0.137 102.106

                      1                      2                      3
                      A                      A                      A
 Frequencies --    166.5214               228.0111               296.4906
 Red. masses --      2.6374                 2.2958                 2.7257
 Frc consts  --      0.0431                 0.0703                 0.1412
 IR Inten    --      4.9351                 2.3806                 1.0168

                      4                      5                      6
                      A                      A                      A
 Frequencies --    355.7294               374.9897               402.3390
 Red. masses --      2.3866                 2.7979                 4.8732
 Frc consts  --      0.1779                 0.2318                 0.4648
 IR Inten    --      1.8063                 9.9834                 0.7575

                      7                      8                      9
                      A                      A                      A
 Frequencies --    469.7764               541.0006               582.5821
 Red. masses --      4.8846                 2.3732                 3.3847
 Frc consts  --      0.6351                 0.4092                 0.6768
 IR Inten    --      0.9667                 3.5581                 2.5277

                     10                     11                     12
                      A                      A                      A
 Frequencies --    647.3395               741.5503               800.4741
 Red. masses --      2.2926                 2.8423                 2.0907
 Frc consts  --      0.5660                 0.9209                 0.7893
 IR Inten    --      4.5192                 9.3918                 7.5421

                     13                     14                     15
                      A                      A                      A
 Frequencies --    830.1727               845.3133               866.3759
 Red. masses --      2.6985                 2.0267                 2.5900
 Frc consts  --      1.0958                 0.8533                 1.1454
 IR Inten    --     21.1524                14.9100                 6.6271

                     16                     17                     18
                      A                      A                      A
 Frequencies --    902.7684               911.9960               968.7809
 Red. masses --      2.3814                 2.2053                 4.1713
 Frc consts  --      1.1435                 1.0807                 2.3066
 IR Inten    --      5.3719                 7.5676                23.0637

                     19                     20                     21
                      A                      A                      A
 Frequencies --   1005.9592              1026.3473              1038.9288
 Red. masses --      2.0895                 2.6696                 3.1900
 Frc consts  --      1.2458                 1.6568                 2.0287
 IR Inten    --     46.8244                11.0076                 3.4515

                     22                     23                     24
                      A                      A                      A
 Frequencies --   1054.8423              1065.5370              1087.9170
 Red. masses --      1.4620                 1.8545                 1.9482
 Frc consts  --      0.9584                 1.2405                 1.3586
 IR Inten    --      0.0115                29.4083                11.3789

                     25                     26                     27
                      A                      A                      A
 Frequencies --   1108.7758              1130.3378              1173.0362
 Red. masses --      1.5344                 1.4548                 2.4467
 Frc consts  --      1.1114                 1.0952                 1.9836
 IR Inten    --      1.9138                 5.0936                32.6202

                     28                     29                     30
                      A                      A                      A
 Frequencies --   1199.2133              1225.7744              1239.8749
 Red. masses --      2.4666                 1.5560                 1.2251
 Frc consts  --      2.0900                 1.3774                 1.1096
 IR Inten    --     45.3641                 9.2973                 4.3464

                     31                     32                     33
                      A                      A                      A
 Frequencies --   1269.2153              1307.3305              1333.8345
 Red. masses --      1.2116                 1.6391                 1.3131
 Frc consts  --      1.1500                 1.6505                 1.3764
 IR Inten    --      9.3713                 7.8269                11.7711

                     34                     35                     36
                      A                      A                      A
 Frequencies --   1352.1438              1376.6052              1399.3504
 Red. masses --      1.4473                 1.4217                 1.3416
 Frc consts  --      1.5590                 1.5874                 1.5479
 IR Inten    --      6.3012                 2.2819                21.1168

                     37                     38                     39
                      A                      A                      A
 Frequencies --   1427.5211              1468.3480              1485.5869
 Red. masses --      1.2511                 1.0860                 1.5973
 Frc consts  --      1.5021                 1.3795                 2.0770
 IR Inten    --      3.6659                 3.0197                26.2633

                     40                     41                     42
                      A                      A                      A
 Frequencies --   1494.2977              1520.4208              3012.0535
 Red. masses --      1.4049                 1.1280                 1.0609
 Frc consts  --      1.8483                 1.5364                 5.6709
 IR Inten    --      7.3510                 2.9698                53.3434

                     43                     44                     45
                      A                      A                      A
 Frequencies --   3038.4562              3046.2027              3078.2980
 Red. masses --      1.0629                 1.1044                 1.0642
 Frc consts  --      5.7814                 6.0382                 5.9417
 IR Inten    --     26.6533                26.4945                24.9391

                     46                     47                     48
                      A                      A                      A
 Frequencies --   3081.6787              3088.2694              3093.2728
 Red. masses --      1.0889                 1.0912                 1.0892
 Frc consts  --      6.0925                 6.1318                 6.1404
 IR Inten    --      6.9279                25.1880                75.1049

                     49                     50                     51
                      A                      A                      A
 Frequencies --   3127.7912              3149.8798              3218.4423
 Red. masses --      1.0550                 1.1071                 1.1162
 Frc consts  --      6.0812                 6.4716                 6.8123
 IR Inten    --      6.2592                17.8079                 3.6039

 - Thermochemistry -
 -------------------
 Temperature   298.150 Kelvin.  Pressure   1.00000 Atm.
 Atom     1 has atomic number  6 and mass  12.00000

 Molecular mass:   126.06808 amu.
 Principal axes and moments of inertia in atomic units:
                           1         2         3
     Eigenvalues --   766.67555 814.443681235.53298
           X            0.98354  -0.18039   0.01073
           Y            0.17998   0.98318   0.03092
           Z           -0.01612  -0.02848   0.99946
 This molecule is an asymmetric top.
 Rotational symmetry number  1.
 Warning -- assumption of classical behavior for rotation
           may cause significant error
 Rotational temperatures (Kelvin)      0.11297     0.10635     0.07010
 Rotational constants (GHZ):           2.35398     2.21592     1.46070
 Zero-point vibrational energy     422627.2 (Joules/Mol)
                                  101.01033 (Kcal/Mol)
 Warning -- explicit consideration of   9 degrees of freedom as
           vibrations may cause significant error
 Vibrational temperatures:    239.59   328.06   426.58   511.81   539.53
          (Kelvin)            578.88   675.90   778.38   838.20   931.38
                             1066.92  1151.70  1194.43  1216.22  1246.52
                             1298.88  1312.16  1393.86  1447.35  1476.68
                             1494.78  1517.68  1533.07  1565.27  1595.28
                             1626.30  1687.74  1725.40  1763.61  1783.90
                             1826.12  1880.95  1919.09  1945.43  1980.63
                             2013.35  2053.88  2112.62  2137.43  2149.96
                             2187.54  4333.67  4371.66  4382.80  4428.98
                             4433.84  4443.33  4450.52  4500.19  4531.97
                             4630.61

 Zero-point correction=                           0.160970 (Hartree/Particle)
 Thermal correction to Energy=                    0.168007
 Thermal correction to Enthalpy=                  0.168951
 Thermal correction to Gibbs Free Energy=         0.130004
 Sum of electronic and zero-point Energies=           -422.958320
 Sum of electronic and thermal Energies=              -422.951284
 Sum of electronic and thermal Enthalpies=            -422.950339
 Sum of electronic and thermal Free Energies=         -422.989287

                     E (Thermal)             CV                S
                      KCal/Mol        Cal/Mol-Kelvin    Cal/Mol-Kelvin
 Total                  105.426             29.374             81.971
 Electronic               0.000              0.000              0.000
 Translational            0.889              2.981             40.409
 Rotational               0.889              2.981             28.136
 Vibrational            103.648             23.412             13.427
 Vibration     1          0.624              1.884              2.474
 Vibration     2          0.651              1.798              1.895
 Vibration     3          0.690              1.680              1.437
 Vibration     4          0.731              1.563              1.141
 Vibration     5          0.746              1.523              1.059
 Vibration     6          0.768              1.465              0.954
 Vibration     7          0.827              1.317              0.738
 Vibration     8          0.896              1.159              0.563
 Vibration     9          0.939              1.069              0.481

 Optimization completed.
    -- Stationary point found.
 Normal termination of Gaussian 09 at Mon Jan 27 13:55:01 2020.
