 Gaussian 09, Revision D.01,
 Gaussian 09:  ES64L-G09RevD.01 24-Apr-2013

 -----------------------------
 # b3lyp 6-31G(2df,p) opt Freq
 -----------------------------

 -----
 titel
 -----
 Symbolic Z-matrix:
 Charge =  0 Multiplicity = 1

 SCF Done:  E(RB3LYP) =  -423.140895449     A.U. after   14 cycles
 Optimization completed.
    -- Stationary point found.
 Normal termination of Gaussian 09 at Tue Jan 28 08:13:59 2020.

 ----------------------------------------------------------------------
 #N Geom=AllCheck Guess=TCheck SCRF=Check GenChk RB3LYP/6-31G(2df,p) Fr
 eq
 ----------------------------------------------------------------------

 Structure from the checkpoint file:  "/scratch/puck/g09_8ca79bdc-db66-4116-95e9-5826528de3ac/Gau-91862.chk"
 -----
 titel
 -----
 Charge =  0 Multiplicity = 1

                         Standard orientation:
 ---------------------------------------------------------------------
 Center     Atomic      Atomic             Coordinates (Angstroms)
 Number     Number       Type             X           Y           Z
 ---------------------------------------------------------------------
      1          8           0        1.918939   -1.498653   -0.085537
      2          6           0        2.141305   -0.135341    0.223779
      3          6           0        0.944447    0.798123    0.001568
      4          8           0        1.125395    1.987933   -0.137363
      5          6           0       -0.431606    0.203220    0.009838
      6          6           0       -1.079224   -0.753257   -1.054020
      7          6           0       -2.175867   -0.500947    0.019072
      8          6           0       -1.074593   -0.726027    1.094988
      9          6           0       -1.763830    1.000569   -0.005034
     10          1           0        1.880004   -1.585618   -1.042753
     11          1           0        2.376208   -0.099492    1.295352
     12          1           0        3.003257    0.291622   -0.305894
     13          1           0       -1.249342   -0.321767   -2.044384
     14          1           0       -0.670264   -1.764016   -1.110322
     15          1           0       -3.189269   -0.902783    0.024273
     16          1           0       -1.244291   -0.268536    2.073527
     17          1           0       -0.655347   -1.729851    1.179487
     18          1           0       -1.985273    1.560128   -0.916696
     19          1           0       -1.984145    1.588036    0.889467
 ---------------------------------------------------------------------

 SCF Done:  E(RB3LYP) =  -423.140895449     A.U. after    1 cycles

 The electronic state is 1-A.
 Alpha  occ. eigenvalues --  -19.15363 -19.13121 -10.26591 -10.23937 -10.21208
 Alpha  occ. eigenvalues --  -10.20735 -10.19810 -10.19379 -10.18815  -1.04433
 Alpha  occ. eigenvalues --   -1.02984  -0.91769  -0.72871  -0.67326  -0.67008
 Alpha  occ. eigenvalues --   -0.65957  -0.56206  -0.54040  -0.52968  -0.46895
 Alpha  occ. eigenvalues --   -0.45960  -0.45525  -0.45004  -0.43855  -0.38504
 Alpha  occ. eigenvalues --   -0.35987  -0.35542  -0.33555  -0.32708  -0.32613
 Alpha  occ. eigenvalues --   -0.32444  -0.31793  -0.30036  -0.23421
 Alpha virt. eigenvalues --   -0.02566   0.06087   0.10393   0.11552   0.12677
 Alpha virt. eigenvalues --    0.14478   0.15131   0.15162   0.15572   0.16007
 Alpha virt. eigenvalues --    0.16790   0.18195   0.18516   0.19601   0.21941

 Mulliken charges:
               1
     1  O   -0.407220
     2  C   -0.171103
     3  C    0.166014
     4  O   -0.295228
     5  C    0.302314
     6  C   -0.262770
     7  C   -0.054436
     8  C   -0.256942
     9  C   -0.253528
    10  H    0.291947
    11  H    0.142857
    12  H    0.122511
    13  H    0.097893
    14  H    0.097143
    15  H    0.076580
    16  H    0.096415
    17  H    0.110982
    18  H    0.098813
    19  H    0.097758
 Sum of Mulliken charges =   0.00000

 Dipole moment (field-independent basis, Debye):
    X=             -0.5186    Y=             -1.7615    Z=             -0.6987  Tot=              1.9647
 Quadrupole moment (field-independent basis, Debye-Ang):
   XX=            -51.6848   YY=            -61.0968   ZZ=            -49.4420
   XY=             -1.5639   XZ=             -1.5760   YZ=              2.8298

  Exact polarizability:  82.741   1.533  77.352   0.467   0.116  68.658
 Approx polarizability: 108.949   4.832 124.715   0.333  -1.189 105.589

                      1                      2                      3
                      A                      A                      A
 Frequencies --     60.4717                70.5252               149.5968
 Red. masses --      3.7555                 2.3618                 5.0615
 Frc consts  --      0.0081                 0.0069                 0.0667
 IR Inten    --      1.3129                 4.7642                 0.5159

                      4                      5                      6
                      A                      A                      A
 Frequencies --    184.8876               250.5807               329.0106
 Red. masses --      3.4382                 4.1894                 1.1706
 Frc consts  --      0.0692                 0.1550                 0.0747
 IR Inten    --      1.7271                 3.5825               156.8520

                      7                      8                      9
                      A                      A                      A
 Frequencies --    395.0184               493.7666               532.4754
 Red. masses --      5.3555                 2.5967                 1.9096
 Frc consts  --      0.4924                 0.3730                 0.3190
 IR Inten    --      4.8967                18.7400                 0.9980

                     10                     11                     12
                      A                      A                      A
 Frequencies --    563.3090               569.6010               638.5135
 Red. masses --      2.4692                 3.7003                 3.7253
 Frc consts  --      0.4616                 0.7073                 0.8949
 IR Inten    --      0.0371                15.0117                 6.3126

                     13                     14                     15
                      A                      A                      A
 Frequencies --    782.4761               812.3934               881.7431
 Red. masses --      2.7903                 2.7677                 3.1697
 Frc consts  --      1.0066                 1.0762                 1.4520
 IR Inten    --      1.8760                 1.1865                 2.0085

                     16                     17                     18
                      A                      A                      A
 Frequencies --    911.2508               932.9905               963.4675
 Red. masses --      2.4585                 2.9707                 1.2580
 Frc consts  --      1.2028                 1.5236                 0.6880
 IR Inten    --      7.1655                 0.4758                 0.0211

                     19                     20                     21
                      A                      A                      A
 Frequencies --    969.2184               984.9647               997.3741
 Red. masses --      1.7911                 1.6471                 1.0347
 Frc consts  --      0.9913                 0.9415                 0.6065
 IR Inten    --      0.9675                10.3340                 0.1800

                     22                     23                     24
                      A                      A                      A
 Frequencies --   1085.5052              1093.2259              1095.4743
 Red. masses --      5.2864                 1.4568                 2.1184
 Frc consts  --      3.6701                 1.0258                 1.4978
 IR Inten    --     49.5564                 0.3541                24.8334

                     25                     26                     27
                      A                      A                      A
 Frequencies --   1110.5912              1130.0310              1140.9240
 Red. masses --      2.0833                 1.3776                 1.4620
 Frc consts  --      1.5140                 1.0365                 1.1213
 IR Inten    --     23.5612                 1.9342                 0.2771

                     28                     29                     30
                      A                      A                      A
 Frequencies --   1158.7616              1168.1311              1195.8010
 Red. masses --      1.4526                 1.7670                 1.2080
 Frc consts  --      1.1492                 1.4206                 1.0177
 IR Inten    --      1.7842                 1.0984                13.9562

                     31                     32                     33
                      A                      A                      A
 Frequencies --   1233.9327              1235.7010              1245.0455
 Red. masses --      1.6788                 1.7283                 1.6577
 Frc consts  --      1.5060                 1.5549                 1.5140
 IR Inten    --      2.7540                 1.4854                35.5949

                     34                     35                     36
                      A                      A                      A
 Frequencies --   1329.0537              1358.7028              1399.5210
 Red. masses --      5.9269                 1.3182                 1.1999
 Frc consts  --      6.1683                 1.4338                 1.3847
 IR Inten    --     40.4036                 3.9029                22.4403

                     37                     38                     39
                      A                      A                      A
 Frequencies --   1464.4852              1496.5595              1500.3438
 Red. masses --      1.0725                 1.0948                 1.0976
 Frc consts  --      1.3552                 1.4447                 1.4556
 IR Inten    --      4.7549                 0.0665                 0.1441

                     40                     41                     42
                      A                      A                      A
 Frequencies --   1552.8993              1792.1401              3017.4551
 Red. masses --      1.1702                12.5126                 1.0583
 Frc consts  --      1.6627                23.6779                 5.6772
 IR Inten    --      1.8645               141.3698                27.0139

                     43                     44                     45
                      A                      A                      A
 Frequencies --   3053.8528              3058.2111              3063.5867
 Red. masses --      1.0539                 1.0554                 1.0550
 Frc consts  --      5.7910                 5.8157                 5.8340
 IR Inten    --     55.7662                38.7991                13.2808

                     46                     47                     48
                      A                      A                      A
 Frequencies --   3063.9621              3110.5998              3125.3933
 Red. masses --      1.1032                 1.0924                 1.1118
 Frc consts  --      6.1021                 6.2276                 6.3988
 IR Inten    --     17.8620                69.3130                 9.2875

                     49                     50                     51
                      A                      A                      A
 Frequencies --   3128.7863              3135.9772              3827.7300
 Red. masses --      1.1108                 1.1094                 1.0665
 Frc consts  --      6.4066                 6.4282                 9.2068
 IR Inten    --     43.0172                34.6972                24.1239

 - Thermochemistry -
 -------------------
 Temperature   298.150 Kelvin.  Pressure   1.00000 Atm.
 Atom     1 has atomic number  8 and mass  15.99491

 Molecular mass:   126.06808 amu.
 Principal axes and moments of inertia in atomic units:
                           1         2         3
     Eigenvalues --   695.521071264.250261642.35768
           X            0.99987  -0.01601   0.00032
           Y            0.01600   0.99978   0.01323
           Z           -0.00053  -0.01322   0.99991
 This molecule is an asymmetric top.
 Rotational symmetry number  1.
 Warning -- assumption of classical behavior for rotation
           may cause significant error
 Rotational temperatures (Kelvin)      0.12453     0.06851     0.05274
 Rotational constants (GHZ):           2.59480     1.42752     1.09887
 Zero-point vibrational energy     417772.0 (Joules/Mol)
                                   99.84990 (Kcal/Mol)
 Warning -- explicit consideration of  11 degrees of freedom as
           vibrations may cause significant error
 Vibrational temperatures:     87.01   101.47   215.24   266.01   360.53
          (Kelvin)            473.37   568.34   710.42   766.11   810.47
                              819.53   918.68  1125.81  1168.85  1268.63
                             1311.09  1342.36  1386.21  1394.49  1417.14
                             1435.00  1561.80  1572.91  1576.14  1597.89
                             1625.86  1641.53  1667.20  1680.68  1720.49
                             1775.35  1777.90  1791.34  1912.21  1954.87
                             2013.60  2107.06  2153.21  2158.66  2234.27
                             2578.49  4341.44  4393.81  4400.08  4407.81
                             4408.35  4475.45  4496.74  4501.62  4511.97
                             5507.24

 Zero-point correction=                           0.159121 (Hartree/Particle)
 Thermal correction to Energy=                    0.167668
 Thermal correction to Enthalpy=                  0.168613
 Thermal correction to Gibbs Free Energy=         0.125235
 Sum of electronic and zero-point Energies=           -422.981775
 Sum of electronic and thermal Energies=              -422.973227
 Sum of electronic and thermal Enthalpies=            -422.972283
 Sum of electronic and thermal Free Energies=         -423.015660

                     E (Thermal)             CV                S
                      KCal/Mol        Cal/Mol-Kelvin    Cal/Mol-Kelvin
 Total                  105.214             32.044             91.295
 Electronic               0.000              0.000              0.000
 Translational            0.889              2.981             40.409
 Rotational               0.889              2.981             28.759
 Vibrational            103.436             26.083             22.128
 Vibration     1          0.597              1.973              4.442
 Vibration     2          0.598              1.968              4.139
 Vibration     3          0.618              1.903              2.677
 Vibration     4          0.631              1.860              2.278
 Vibration     5          0.663              1.762              1.726
 Vibration     6          0.712              1.618              1.265
 Vibration     7          0.762              1.481              0.981
 Vibration     8          0.849              1.264              0.674
 Vibration     9          0.887              1.178              0.582
 Vibration    10          0.919              1.111              0.517
 Vibration    11          0.926              1.097              0.505

 Optimization completed.
    -- Stationary point found.
 Normal termination of Gaussian 09 at Tue Jan 28 08:57:12 2020.
