 Gaussian 09, Revision D.01,
 Gaussian 09:  ES64L-G09RevD.01 24-Apr-2013

 -----------------------------
 # b3lyp 6-31G(2df,p) opt Freq
 -----------------------------

 -----
 titel
 -----
 Symbolic Z-matrix:
 Charge =  0 Multiplicity = 1

 SCF Done:  E(RB3LYP) =  -423.118617084     A.U. after   14 cycles
 SCF Done:  E(RB3LYP) =  -423.118617016     A.U. after    7 cycles
 SCF Done:  E(RB3LYP) =  -423.118617137     A.U. after    7 cycles
 Optimization completed.
    -- Stationary point found.
 Normal termination of Gaussian 09 at Tue Jan 28 08:47:20 2020.

 ----------------------------------------------------------------------
 #N Geom=AllCheck Guess=TCheck SCRF=Check GenChk RB3LYP/6-31G(2df,p) Fr
 eq
 ----------------------------------------------------------------------

 Structure from the checkpoint file:  "/scratch/puck/g09_9ebcdac0-1e36-4954-b1c1-7de0052c1988/Gau-60171.chk"
 -----
 titel
 -----
 Charge =  0 Multiplicity = 1

                         Standard orientation:
 ---------------------------------------------------------------------
 Center     Atomic      Atomic             Coordinates (Angstroms)
 Number     Number       Type             X           Y           Z
 ---------------------------------------------------------------------
      1          6           0       -0.345959    0.582481    1.739287
      2          6           0        0.197280    0.109520    0.377478
      3          6           0        0.938295   -1.249304    0.565719
      4          8           0        1.536931   -1.720576   -0.621147
      5          6           0        1.155925    1.074394   -0.169347
      6          6           0        1.971961    1.825831   -0.636069
      7          6           0       -0.913004   -0.109231   -0.658846
      8          6           0       -2.168029    0.644205   -0.697865
      9          8           0       -2.125778   -0.694617   -0.187103
     10          1           0        0.454074    0.584642    2.484139
     11          1           0       -0.742958    1.598292    1.678032
     12          1           0       -1.143087   -0.086917    2.070929
     13          1           0        1.673970   -1.139669    1.376190
     14          1           0        0.204868   -2.003705    0.866541
     15          1           0        2.172273   -1.050856   -0.903106
     16          1           0        2.674220    2.514360   -1.037787
     17          1           0       -0.541517   -0.542126   -1.585998
     18          1           0       -2.370215    1.416252    0.040977
     19          1           0       -2.689663    0.763892   -1.646055
 ---------------------------------------------------------------------

 SCF Done:  E(RB3LYP) =  -423.118617137     A.U. after    1 cycles

 The electronic state is 1-A.
 Alpha  occ. eigenvalues --  -19.15445 -19.13917 -10.24082 -10.23583 -10.23384
 Alpha  occ. eigenvalues --  -10.22602 -10.19279 -10.18615 -10.18575  -1.07381
 Alpha  occ. eigenvalues --   -1.02291  -0.82949  -0.74122  -0.68667  -0.67941
 Alpha  occ. eigenvalues --   -0.64648  -0.59827  -0.53389  -0.52077  -0.50253
 Alpha  occ. eigenvalues --   -0.49163  -0.44962  -0.43770  -0.40982  -0.40523
 Alpha  occ. eigenvalues --   -0.39437  -0.37692  -0.36630  -0.33215  -0.31055
 Alpha  occ. eigenvalues --   -0.28915  -0.28485  -0.27242  -0.25867
 Alpha virt. eigenvalues --    0.03799   0.04116   0.08845   0.09399   0.10694
 Alpha virt. eigenvalues --    0.11746   0.12094   0.13239   0.15175   0.15430
 Alpha virt. eigenvalues --    0.16737   0.17853   0.19012   0.20461   0.21559

 Mulliken charges:
               1
     1  C   -0.445642
     2  C   -0.007330
     3  C   -0.077063
     4  O   -0.421852
     5  C    0.327448
     6  C   -0.491023
     7  C    0.095025
     8  C   -0.188772
     9  O   -0.245136
    10  H    0.124838
    11  H    0.127366
    12  H    0.142837
    13  H    0.093281
    14  H    0.128387
    15  H    0.286133
    16  H    0.203004
    17  H    0.112695
    18  H    0.116607
    19  H    0.119197
 Sum of Mulliken charges =   0.00000

 Dipole moment (field-independent basis, Debye):
    X=              0.8835    Y=              2.3677    Z=              0.1871  Tot=              2.5341
 Quadrupole moment (field-independent basis, Debye-Ang):
   XX=            -51.5398   YY=            -55.8909   ZZ=            -50.9696
   XY=              0.0386   XZ=             -0.1463   YZ=             -2.9855

  Exact polarizability:  85.948   5.573  74.898  -4.386  -4.958  69.648
 Approx polarizability: 123.190  16.408 116.525 -13.122 -11.177 101.298

                      1                      2                      3
                      A                      A                      A
 Frequencies --     63.7739               120.4567               138.8074
 Red. masses --      4.0006                 4.4758                 3.5505
 Frc consts  --      0.0096                 0.0383                 0.0403
 IR Inten    --      1.5727                 2.3191                 1.8184

                      4                      5                      6
                      A                      A                      A
 Frequencies --    172.4188               214.0569               231.9027
 Red. masses --      3.3070                 1.1885                 2.4511
 Frc consts  --      0.0579                 0.0321                 0.0777
 IR Inten    --      0.9441                 0.5799                 0.5714

                      7                      8                      9
                      A                      A                      A
 Frequencies --    269.6915               299.0858               394.1006
 Red. masses --      3.4130                 2.3494                 3.4528
 Frc consts  --      0.1463                 0.1238                 0.3160
 IR Inten    --      5.5440                 0.7390                 0.6859

                     10                     11                     12
                      A                      A                      A
 Frequencies --    418.4739               452.2322               482.0798
 Red. masses --      1.3084                 3.8739                 3.3803
 Frc consts  --      0.1350                 0.4668                 0.4628
 IR Inten    --    116.1816                16.9251                 8.5219

                     13                     14                     15
                      A                      A                      A
 Frequencies --    529.3545               629.5220               638.5462
 Red. masses --      4.3190                 3.8881                 1.2621
 Frc consts  --      0.7131                 0.9078                 0.3032
 IR Inten    --      4.4526                 3.0158                47.5508

                     16                     17                     18
                      A                      A                      A
 Frequencies --    649.7774               699.7498               836.4991
 Red. masses --      1.2141                 3.2906                 2.4471
 Frc consts  --      0.3020                 0.9493                 1.0089
 IR Inten    --     45.9643                13.9859                 4.7984

                     19                     20                     21
                      A                      A                      A
 Frequencies --    869.1567               914.0013               945.4959
 Red. masses --      4.6080                 2.1665                 2.6612
 Frc consts  --      2.0510                 1.0664                 1.4017
 IR Inten    --     23.2925                 0.8320                27.9983

                     22                     23                     24
                      A                      A                      A
 Frequencies --    975.1744              1023.1727              1087.4055
 Red. masses --      1.4016                 1.5516                 4.9933
 Frc consts  --      0.7853                 0.9570                 3.4787
 IR Inten    --      6.7645                13.1654                95.8735

                     25                     26                     27
                      A                      A                      A
 Frequencies --   1100.9402              1146.7845              1158.5167
 Red. masses --      1.2509                 1.9002                 1.4915
 Frc consts  --      0.8933                 1.4724                 1.1794
 IR Inten    --      1.3183                14.8648                 1.4236

                     28                     29                     30
                      A                      A                      A
 Frequencies --   1174.3316              1180.9848              1198.8055
 Red. masses --      1.9014                 1.3762                 3.0124
 Frc consts  --      1.5449                 1.1309                 2.5507
 IR Inten    --      4.6676                 1.4023                 0.9523

                     31                     32                     33
                      A                      A                      A
 Frequencies --   1276.0516              1308.1987              1382.4758
 Red. masses --      1.6327                 1.5891                 1.2666
 Frc consts  --      1.5663                 1.6023                 1.4263
 IR Inten    --     20.2570                 7.3217                 2.5267

                     34                     35                     36
                      A                      A                      A
 Frequencies --   1397.6115              1421.3563              1432.5835
 Red. masses --      1.2732                 1.3558                 1.4493
 Frc consts  --      1.4653                 1.6138                 1.7525
 IR Inten    --      2.5149                34.3442                31.8133

                     37                     38                     39
                      A                      A                      A
 Frequencies --   1489.2989              1501.1263              1507.2772
 Red. masses --      1.0559                 1.0835                 1.0860
 Frc consts  --      1.3799                 1.4386                 1.4536
 IR Inten    --      4.4124                 3.1482                 8.5278

                     40                     41                     42
                      A                      A                      A
 Frequencies --   1534.1553              2222.6394              2993.2034
 Red. masses --      1.2877                 5.9372                 1.0676
 Frc consts  --      1.7856                17.2810                 5.6356
 IR Inten    --      1.9288                 1.9066                52.4282

                     43                     44                     45
                      A                      A                      A
 Frequencies --   3053.2558              3089.4635              3094.2847
 Red. masses --      1.0341                 1.0958                 1.0513
 Frc consts  --      5.6799                 6.1622                 5.9306
 IR Inten    --     15.0288                16.9783                21.6237

                     46                     47                     48
                      A                      A                      A
 Frequencies --   3124.6611              3132.7468              3138.0333
 Red. masses --      1.1018                 1.0884                 1.1027
 Frc consts  --      6.3381                 6.2937                 6.3979
 IR Inten    --     21.8921                 8.2216                 8.8845

                     49                     50                     51
                      A                      A                      A
 Frequencies --   3181.7339              3497.2201              3777.2116
 Red. masses --      1.1181                 1.1611                 1.0655
 Frc consts  --      6.6687                 8.3672                 8.9563
 IR Inten    --     23.0080                72.5926                25.0247

 - Thermochemistry -
 -------------------
 Temperature   298.150 Kelvin.  Pressure   1.00000 Atm.
 Atom     1 has atomic number  6 and mass  12.00000

 Molecular mass:   126.06808 amu.
 Principal axes and moments of inertia in atomic units:
                           1         2         3
     Eigenvalues --   869.497651320.760291562.16292
           X            0.99955  -0.03000   0.00261
           Y            0.03005   0.99937  -0.01906
           Z           -0.00203   0.01913   0.99981
 This molecule is an asymmetric top.
 Rotational symmetry number  1.
 Warning -- assumption of classical behavior for rotation
           may cause significant error
 Rotational temperatures (Kelvin)      0.09961     0.06558     0.05544
 Rotational constants (GHZ):           2.07561     1.36644     1.15528
 Zero-point vibrational energy     410139.0 (Joules/Mol)
                                   98.02557 (Kcal/Mol)
 Warning -- explicit consideration of  13 degrees of freedom as
           vibrations may cause significant error
 Vibrational temperatures:     91.76   173.31   199.71   248.07   307.98
          (Kelvin)            333.66   388.03   430.32   567.02   602.09
                              650.66   693.60   761.62   905.74   918.72
                              934.88  1006.78  1203.53  1250.52  1315.04
                             1360.36  1403.06  1472.12  1564.53  1584.01
                             1649.97  1666.85  1689.60  1699.17  1724.81
                             1835.95  1882.20  1989.07  2010.85  2045.01
                             2061.17  2142.77  2159.78  2168.63  2207.30
                             3197.88  4306.55  4392.95  4445.04  4451.98
                             4495.68  4507.32  4514.92  4577.80  5031.71
                             5434.56

 Zero-point correction=                           0.156214 (Hartree/Particle)
 Thermal correction to Energy=                    0.166107
 Thermal correction to Enthalpy=                  0.167051
 Thermal correction to Gibbs Free Energy=         0.121594
 Sum of electronic and zero-point Energies=           -422.962403
 Sum of electronic and thermal Energies=              -422.952510
 Sum of electronic and thermal Enthalpies=            -422.951566
 Sum of electronic and thermal Free Energies=         -422.997024

                     E (Thermal)             CV                S
                      KCal/Mol        Cal/Mol-Kelvin    Cal/Mol-Kelvin
 Total                  104.234             36.617             95.674
 Electronic               0.000              0.000              0.000
 Translational            0.889              2.981             40.409
 Rotational               0.889              2.981             28.974
 Vibrational            102.456             30.655             26.291
 Vibration     1          0.597              1.972              4.337
 Vibration     2          0.609              1.932              3.093
 Vibration     3          0.614              1.915              2.820
 Vibration     4          0.626              1.876              2.409
 Vibration     5          0.644              1.820              2.009
 Vibration     6          0.653              1.792              1.864
 Vibration     7          0.674              1.729              1.598
 Vibration     8          0.692              1.675              1.422
 Vibration     9          0.761              1.483              0.985
 Vibration    10          0.781              1.430              0.897
 Vibration    11          0.811              1.356              0.789
 Vibration    12          0.838              1.290              0.704
 Vibration    13          0.884              1.185              0.589

 Optimization completed.
    -- Stationary point found.
 Normal termination of Gaussian 09 at Tue Jan 28 10:41:47 2020.
