 Gaussian 09, Revision D.01,
 Gaussian 09:  ES64L-G09RevD.01 24-Apr-2013

 -----------------------------
 # b3lyp 6-31G(2df,p) opt Freq
 -----------------------------

 -----
 titel
 -----
 Symbolic Z-matrix:
 Charge =  0 Multiplicity = 1

 SCF Done:  E(RB3LYP) =  -423.166589927     A.U. after   14 cycles
 Optimization completed.
    -- Stationary point found.
 Normal termination of Gaussian 09 at Tue Jan 28 12:09:01 2020.

 ----------------------------------------------------------------------
 #N Geom=AllCheck Guess=TCheck SCRF=Check GenChk RB3LYP/6-31G(2df,p) Fr
 eq
 ----------------------------------------------------------------------

 Structure from the checkpoint file:  "/scratch/puck/g09_2964e33b-9ac1-4cdd-9d28-e9a187a99a56/Gau-65843.chk"
 -----
 titel
 -----
 Charge =  0 Multiplicity = 1

                         Standard orientation:
 ---------------------------------------------------------------------
 Center     Atomic      Atomic             Coordinates (Angstroms)
 Number     Number       Type             X           Y           Z
 ---------------------------------------------------------------------
      1          6           0       -2.723668   -0.672465    0.032840
      2          8           0       -1.603359   -0.344796   -0.766339
      3          6           0       -0.489834    0.054739   -0.033957
      4          6           0       -0.517352    1.441194    0.665957
      5          6           0        0.843710    1.795651   -0.003624
      6          6           0        0.824046    0.447086   -0.801568
      7          6           0        1.554006   -0.658715   -0.041847
      8          8           0        2.680878   -1.062837   -0.042645
      9          6           0        0.285083   -1.064723    0.736958
     10          1           0       -3.058208    0.182554    0.637773
     11          1           0       -3.528583   -0.960316   -0.646704
     12          1           0       -2.510845   -1.513752    0.708629
     13          1           0       -1.335752    2.058904    0.288343
     14          1           0       -0.547099    1.443454    1.758407
     15          1           0        0.803542    2.671765   -0.652110
     16          1           0        1.693101    1.910470    0.673334
     17          1           0        0.915001    0.496550   -1.886136
     18          1           0       -0.049942   -2.062636    0.433656
     19          1           0        0.342683   -1.022525    1.828127
 ---------------------------------------------------------------------

 SCF Done:  E(RB3LYP) =  -423.166589927     A.U. after    1 cycles

 The electronic state is 1-A.
 Alpha  occ. eigenvalues --  -19.15166 -19.13374 -10.26775 -10.24706 -10.23226
 Alpha  occ. eigenvalues --  -10.19955 -10.19204 -10.19042 -10.19041  -1.04817
 Alpha  occ. eigenvalues --   -1.04152  -0.87494  -0.75657  -0.70515  -0.68127
 Alpha  occ. eigenvalues --   -0.62088  -0.56280  -0.52156  -0.50830  -0.48299
 Alpha  occ. eigenvalues --   -0.47395  -0.44703  -0.44486  -0.42044  -0.41406
 Alpha  occ. eigenvalues --   -0.41118  -0.37452  -0.37004  -0.34586  -0.33318
 Alpha  occ. eigenvalues --   -0.32641  -0.29067  -0.25738  -0.23822
 Alpha virt. eigenvalues --   -0.02024   0.07250   0.09222   0.10137   0.12298
 Alpha virt. eigenvalues --    0.13003   0.13882   0.14978   0.15512   0.15725
 Alpha virt. eigenvalues --    0.17037   0.17473   0.18560   0.20040   0.21898

 Mulliken charges:
               1
     1  C   -0.263473
     2  O   -0.288936
     3  C    0.446263
     4  C   -0.290193
     5  C   -0.232840
     6  C   -0.231229
     7  C    0.421005
     8  O   -0.302992
     9  C   -0.425220
    10  H    0.112531
    11  H    0.132259
    12  H    0.111393
    13  H    0.113527
    14  H    0.099734
    15  H    0.120542
    16  H    0.119208
    17  H    0.097858
    18  H    0.139864
    19  H    0.120700
 Sum of Mulliken charges =   0.00000

 Dipole moment (field-independent basis, Debye):
    X=             -2.8448    Y=              1.2201    Z=              1.0565  Tot=              3.2707
 Quadrupole moment (field-independent basis, Debye-Ang):
   XX=            -59.7689   YY=            -51.9829   ZZ=            -52.5511
   XY=              4.9723   XZ=             -1.5019   YZ=             -0.8195

  Exact polarizability:  87.368   0.202  75.806  -2.160  -2.369  64.591
 Approx polarizability: 122.150  -3.956 106.641  -2.286  -3.064 100.454

                      1                      2                      3
                      A                      A                      A
 Frequencies --     55.5551               114.9843               162.1711
 Red. masses --      3.2659                 2.6553                 2.3636
 Frc consts  --      0.0059                 0.0207                 0.0366
 IR Inten    --      4.3020                 2.2678                 0.4738

                      4                      5                      6
                      A                      A                      A
 Frequencies --    187.1215               221.3986               325.2572
 Red. masses --      1.0905                 3.0923                 2.1241
 Frc consts  --      0.0225                 0.0893                 0.1324
 IR Inten    --      0.4969                 2.4459                 0.9397

                      7                      8                      9
                      A                      A                      A
 Frequencies --    379.6128               389.4409               444.8220
 Red. masses --      4.2825                 4.2574                 3.6655
 Frc consts  --      0.3636                 0.3804                 0.4273
 IR Inten    --      1.4684                 7.5156                 2.7124

                     10                     11                     12
                      A                      A                      A
 Frequencies --    533.6798               581.2945               632.3644
 Red. masses --      2.2455                 3.4332                 3.4333
 Frc consts  --      0.3768                 0.6835                 0.8089
 IR Inten    --      0.8622                 2.6470                 6.3301

                     13                     14                     15
                      A                      A                      A
 Frequencies --    727.7958               760.2147               839.7761
 Red. masses --      2.1037                 1.3391                 2.4166
 Frc consts  --      0.6565                 0.4560                 1.0041
 IR Inten    --      4.9966                 1.4960                 1.7703

                     16                     17                     18
                      A                      A                      A
 Frequencies --    894.6647               916.6572               939.3883
 Red. masses --      2.8170                 2.1771                 1.9599
 Frc consts  --      1.3285                 1.0778                 1.0190
 IR Inten    --      0.4005                 4.2775                10.0161

                     19                     20                     21
                      A                      A                      A
 Frequencies --    956.2753               996.4742              1025.2957
 Red. masses --      2.8363                 1.9806                 3.6008
 Frc consts  --      1.5281                 1.1587                 2.2302
 IR Inten    --      4.6690                 3.4832                28.8097

                     22                     23                     24
                      A                      A                      A
 Frequencies --   1056.3201              1122.1614              1126.0598
 Red. masses --      2.9041                 1.6539                 2.0458
 Frc consts  --      1.9092                 1.2270                 1.5284
 IR Inten    --     13.8113                 9.9668                 7.1038

                     25                     26                     27
                      A                      A                      A
 Frequencies --   1138.6111              1173.0551              1182.7699
 Red. masses --      2.7559                 2.2611                 1.3085
 Frc consts  --      2.1050                 1.8332                 1.0785
 IR Inten    --     81.7876                27.4556                 4.0805

                     28                     29                     30
                      A                      A                      A
 Frequencies --   1199.6610              1212.8652              1227.0290
 Red. masses --      1.6745                 1.4042                 1.4335
 Frc consts  --      1.4199                 1.2170                 1.2716
 IR Inten    --      8.7873                 2.5474                15.6086

                     31                     32                     33
                      A                      A                      A
 Frequencies --   1239.1999              1262.0566              1277.0771
 Red. masses --      1.6176                 1.6112                 1.6284
 Frc consts  --      1.4635                 1.5120                 1.5648
 IR Inten    --     21.7108                17.2390                 8.6315

                     34                     35                     36
                      A                      A                      A
 Frequencies --   1318.3740              1421.9487              1473.2055
 Red. masses --      2.3746                 1.1109                 1.0878
 Frc consts  --      2.4318                 1.3234                 1.3910
 IR Inten    --    147.7306                 7.0974                 0.7836

                     37                     38                     39
                      A                      A                      A
 Frequencies --   1481.8233              1487.4896              1495.3771
 Red. masses --      1.1545                 1.0508                 1.1226
 Frc consts  --      1.4936                 1.3699                 1.4790
 IR Inten    --      0.7088                 3.9684                 4.3962

                     40                     41                     42
                      A                      A                      A
 Frequencies --   1507.3587              1887.4338              2987.5774
 Red. masses --      1.0544                12.6356                 1.0358
 Frc consts  --      1.4116                26.5210                 5.4470
 IR Inten    --      6.5391               283.1036                45.2219

                     43                     44                     45
                      A                      A                      A
 Frequencies --   3037.5791              3050.1991              3060.8008
 Red. masses --      1.1025                 1.0590                 1.0581
 Frc consts  --      5.9936                 5.8047                 5.8404
 IR Inten    --     38.4870                 8.6073                32.4973

                     46                     47                     48
                      A                      A                      A
 Frequencies --   3075.1111              3109.0377              3110.7591
 Red. masses --      1.0598                 1.1065                 1.1073
 Frc consts  --      5.9048                 6.3018                 6.3130
 IR Inten    --     29.7740                 1.3935                10.9220

                     49                     50                     51
                      A                      A                      A
 Frequencies --   3122.7872              3124.5093              3133.9883
 Red. masses --      1.0974                 1.0942                 1.1034
 Frc consts  --      6.3049                 6.2938                 6.3850
 IR Inten    --     26.7014                 4.8522                27.0025

 - Thermochemistry -
 -------------------
 Temperature   298.150 Kelvin.  Pressure   1.00000 Atm.
 Atom     1 has atomic number  6 and mass  12.00000

 Molecular mass:   126.06808 amu.
 Principal axes and moments of inertia in atomic units:
                           1         2         3
     Eigenvalues --   633.486421336.295661673.75253
           X            0.99902   0.04256  -0.01226
           Y           -0.04273   0.99898  -0.01447
           Z            0.01164   0.01498   0.99982
 This molecule is an asymmetric top.
 Rotational symmetry number  1.
 Warning -- assumption of classical behavior for rotation
           may cause significant error
 Rotational temperatures (Kelvin)      0.13673     0.06482     0.05175
 Rotational constants (GHZ):           2.84890     1.35056     1.07826
 Zero-point vibrational energy     413827.0 (Joules/Mol)
                                   98.90702 (Kcal/Mol)
 Warning -- explicit consideration of  11 degrees of freedom as
           vibrations may cause significant error
 Vibrational temperatures:     79.93   165.44   233.33   269.23   318.54
          (Kelvin)            467.97   546.18   560.32   640.00   767.85
                              836.35   909.83  1047.13  1093.78  1208.25
                             1287.22  1318.86  1351.57  1375.87  1433.70
                             1475.17  1519.81  1614.54  1620.15  1638.21
                             1687.76  1701.74  1726.04  1745.04  1765.42
                             1782.93  1815.82  1837.43  1896.84  2045.86
                             2119.61  2132.01  2140.16  2151.51  2168.75
                             2715.59  4298.45  4370.39  4388.55  4403.80
                             4424.39  4473.21  4475.68  4492.99  4495.47
                             4509.10

 Zero-point correction=                           0.157618 (Hartree/Particle)
 Thermal correction to Energy=                    0.166325
 Thermal correction to Enthalpy=                  0.167269
 Thermal correction to Gibbs Free Energy=         0.123891
 Sum of electronic and zero-point Energies=           -423.008972
 Sum of electronic and thermal Energies=              -423.000265
 Sum of electronic and thermal Enthalpies=            -422.999321
 Sum of electronic and thermal Free Energies=         -423.042699

                     E (Thermal)             CV                S
                      KCal/Mol        Cal/Mol-Kelvin    Cal/Mol-Kelvin
 Total                  104.370             32.591             91.296
 Electronic               0.000              0.000              0.000
 Translational            0.889              2.981             40.409
 Rotational               0.889              2.981             28.740
 Vibrational            102.593             26.629             22.147
 Vibration     1          0.596              1.975              4.609
 Vibration     2          0.608              1.937              3.183
 Vibration     3          0.622              1.889              2.524
 Vibration     4          0.632              1.858              2.256
 Vibration     5          0.648              1.808              1.948
 Vibration     6          0.709              1.625              1.284
 Vibration     7          0.750              1.514              1.041
 Vibration     8          0.757              1.493              1.002
 Vibration     9          0.804              1.372              0.812
 Vibration    10          0.889              1.176              0.579
 Vibration    11          0.938              1.072              0.483

 Optimization completed.
    -- Stationary point found.
 Normal termination of Gaussian 09 at Tue Jan 28 12:55:21 2020.
