 Gaussian 09, Revision D.01,
 Gaussian 09:  ES64L-G09RevD.01 24-Apr-2013

 -----------------------------
 # b3lyp 6-31G(2df,p) opt Freq
 -----------------------------

 -----
 titel
 -----
 Symbolic Z-matrix:
 Charge =  0 Multiplicity = 1

 SCF Done:  E(RB3LYP) =  -423.142963147     A.U. after   13 cycles
 Optimization completed.
    -- Stationary point found.
 Normal termination of Gaussian 09 at Tue Jan 28 08:13:53 2020.

 ----------------------------------------------------------------------
 #N Geom=AllCheck Guess=TCheck SCRF=Check GenChk RB3LYP/6-31G(2df,p) Fr
 eq
 ----------------------------------------------------------------------

 Structure from the checkpoint file:  "/scratch/puck/g09_217afbde-322d-43a2-8190-b472bd6e669a/Gau-106350.chk"
 -----
 titel
 -----
 Charge =  0 Multiplicity = 1

                         Standard orientation:
 ---------------------------------------------------------------------
 Center     Atomic      Atomic             Coordinates (Angstroms)
 Number     Number       Type             X           Y           Z
 ---------------------------------------------------------------------
      1          6           0       -2.370741   -0.995573    0.126805
      2          6           0       -1.180692   -0.299884   -0.515770
      3          8           0       -1.307611    1.116635   -0.264760
      4          6           0       -0.025477    1.743093   -0.143244
      5          6           0        0.896801    0.628228    0.269493
      6          6           0        2.233289    0.027834   -0.214502
      7          6           0        1.470659   -1.323769   -0.469705
      8          6           0        0.186089   -0.631964    0.032927
      9          8           0        0.417303   -0.159396    1.362153
     10          1           0       -2.352889   -2.066785   -0.096863
     11          1           0       -2.337984   -0.856858    1.209925
     12          1           0       -3.306043   -0.577694   -0.254361
     13          1           0       -1.168481   -0.491494   -1.602216
     14          1           0        0.315944    2.167483   -1.101066
     15          1           0       -0.132962    2.556919    0.580491
     16          1           0        2.597798    0.484226   -1.137310
     17          1           0        3.033630    0.019236    0.527749
     18          1           0        1.427511   -1.585864   -1.529126
     19          1           0        1.786374   -2.194870    0.107618
 ---------------------------------------------------------------------

 SCF Done:  E(RB3LYP) =  -423.142963147     A.U. after    1 cycles

 The electronic state is 1-A.
 Alpha  occ. eigenvalues --  -19.15490 -19.13677 -10.24100 -10.23639 -10.23320
 Alpha  occ. eigenvalues --  -10.23134 -10.20153 -10.20125 -10.17334  -1.09252
 Alpha  occ. eigenvalues --   -1.01827  -0.80951  -0.77444  -0.70376  -0.67038
 Alpha  occ. eigenvalues --   -0.64076  -0.57719  -0.53722  -0.51647  -0.47446
 Alpha  occ. eigenvalues --   -0.47116  -0.45178  -0.43167  -0.40236  -0.39902
 Alpha  occ. eigenvalues --   -0.38931  -0.37646  -0.36490  -0.34471  -0.33877
 Alpha  occ. eigenvalues --   -0.33214  -0.27210  -0.26403  -0.24670
 Alpha virt. eigenvalues --    0.06532   0.09052   0.11074   0.12183   0.12548
 Alpha virt. eigenvalues --    0.12900   0.14028   0.14536   0.14709   0.16093
 Alpha virt. eigenvalues --    0.17913   0.18251   0.18859   0.19884   0.21194

 Mulliken charges:
               1
     1  C   -0.402274
     2  C    0.063038
     3  O   -0.277723
     4  C   -0.158502
     5  C    0.269666
     6  C   -0.293675
     7  C   -0.301999
     8  C    0.274170
     9  O   -0.293847
    10  H    0.113826
    11  H    0.139118
    12  H    0.124865
    13  H    0.069792
    14  H    0.094926
    15  H    0.119140
    16  H    0.112806
    17  H    0.117147
    18  H    0.112994
    19  H    0.116530
 Sum of Mulliken charges =   0.00000

 Dipole moment (field-independent basis, Debye):
    X=              1.3469    Y=             -0.5267    Z=             -1.8969  Tot=              2.3853
 Quadrupole moment (field-independent basis, Debye-Ang):
   XX=            -52.5482   YY=            -51.1540   ZZ=            -54.8350
   XY=              2.7508   XZ=             -1.0273   YZ=              0.9914

  Exact polarizability:  82.969   2.997  77.641  -0.952   1.495  63.747
 Approx polarizability: 109.089   5.297 114.709  -0.794   2.917 104.132

                      1                      2                      3
                      A                      A                      A
 Frequencies --    127.1917               198.8346               232.4943
 Red. masses --      3.2445                 2.2270                 1.3234
 Frc consts  --      0.0309                 0.0519                 0.0421
 IR Inten    --      2.8595                 1.2827                 0.4194

                      4                      5                      6
                      A                      A                      A
 Frequencies --    239.3379               278.8025               314.7184
 Red. masses --      1.8348                 2.3862                 2.2215
 Frc consts  --      0.0619                 0.1093                 0.1296
 IR Inten    --      1.2273                 0.6792                 0.7722

                      7                      8                      9
                      A                      A                      A
 Frequencies --    449.4970               486.1188               558.8677
 Red. masses --      3.4965                 4.3984                 3.8987
 Frc consts  --      0.4162                 0.6124                 0.7175
 IR Inten    --      3.1897                 6.5632                 1.2261

                     10                     11                     12
                      A                      A                      A
 Frequencies --    637.1542               666.8201               746.3204
 Red. masses --      5.6529                 4.0822                 4.7861
 Frc consts  --      1.3521                 1.0695                 1.5706
 IR Inten    --     11.3942                 0.6118                 0.9875

                     13                     14                     15
                      A                      A                      A
 Frequencies --    763.1983               795.7931               853.6871
 Red. masses --      1.2466                 3.0109                 2.7792
 Frc consts  --      0.4278                 1.1234                 1.1933
 IR Inten    --      1.0711                 7.7290                26.4661

                     16                     17                     18
                      A                      A                      A
 Frequencies --    892.0588               927.9631               947.4185
 Red. masses --      4.5112                 2.9621                 3.8368
 Frc consts  --      2.1151                 1.5028                 2.0291
 IR Inten    --     16.0602                 9.7366                 6.8325

                     19                     20                     21
                      A                      A                      A
 Frequencies --    980.0822              1011.3230              1040.8477
 Red. masses --      1.7011                 3.7552                 1.6000
 Frc consts  --      0.9627                 2.2629                 1.0213
 IR Inten    --      5.6532                28.9963                23.0599

                     22                     23                     24
                      A                      A                      A
 Frequencies --   1080.8356              1087.9208              1119.8323
 Red. masses --      4.0154                 1.7801                 1.7520
 Frc consts  --      2.7637                 1.2413                 1.2945
 IR Inten    --     50.4108                12.8697                 3.6150

                     25                     26                     27
                      A                      A                      A
 Frequencies --   1140.1740              1182.3845              1218.2282
 Red. masses --      1.9808                 1.7226                 1.4023
 Frc consts  --      1.5172                 1.4189                 1.2262
 IR Inten    --      4.4323                 0.2999                 6.7363

                     28                     29                     30
                      A                      A                      A
 Frequencies --   1228.7812              1232.6799              1244.6442
 Red. masses --      1.3616                 1.2812                 1.8619
 Frc consts  --      1.2113                 1.1470                 1.6994
 IR Inten    --      0.2112                 0.6368                20.6139

                     31                     32                     33
                      A                      A                      A
 Frequencies --   1272.9214              1330.1730              1370.6536
 Red. masses --      1.6606                 1.4230                 1.5124
 Frc consts  --      1.5853                 1.4835                 1.6740
 IR Inten    --      4.2494                 6.1045                 5.8065

                     34                     35                     36
                      A                      A                      A
 Frequencies --   1393.4542              1408.7996              1419.9916
 Red. masses --      1.4994                 1.5656                 4.1288
 Frc consts  --      1.7154                 1.8308                 4.9051
 IR Inten    --      4.1403                18.0195                13.2091

                     37                     38                     39
                      A                      A                      A
 Frequencies --   1464.5559              1484.5308              1485.8842
 Red. masses --      1.0862                 1.1783                 1.0656
 Frc consts  --      1.3727                 1.5300                 1.3861
 IR Inten    --      0.3416                 0.3102                 3.6262

                     40                     41                     42
                      A                      A                      A
 Frequencies --   1498.7682              1508.5888              2959.1369
 Red. masses --      1.0533                 1.0920                 1.0819
 Frc consts  --      1.3940                 1.4642                 5.5817
 IR Inten    --      2.2194                 1.1530                49.6328

                     43                     44                     45
                      A                      A                      A
 Frequencies --   2981.2189              3046.6730              3069.7517
 Red. masses --      1.0701                 1.0350                 1.0563
 Frc consts  --      5.6033                 5.6603                 5.8647
 IR Inten    --     69.3037                18.9520                31.0898

                     46                     47                     48
                      A                      A                      A
 Frequencies --   3075.2709              3076.1331              3118.8791
 Red. masses --      1.0848                 1.0670                 1.1010
 Frc consts  --      6.0447                 5.9487                 6.3103
 IR Inten    --     49.4853                19.9120                18.4043

                     49                     50                     51
                      A                      A                      A
 Frequencies --   3121.3175              3135.9915              3137.6092
 Red. masses --      1.1094                 1.1029                 1.1085
 Frc consts  --      6.3684                 6.3906                 6.4293
 IR Inten    --      0.7755                10.1852                36.2003

 - Thermochemistry -
 -------------------
 Temperature   298.150 Kelvin.  Pressure   1.00000 Atm.
 Atom     1 has atomic number  6 and mass  12.00000

 Molecular mass:   126.06808 amu.
 Principal axes and moments of inertia in atomic units:
                           1         2         3
     Eigenvalues --   616.780051083.390871357.28173
           X            0.99917   0.03693  -0.01723
           Y           -0.03675   0.99927   0.01063
           Z            0.01761  -0.00999   0.99980
 This molecule is an asymmetric top.
 Rotational symmetry number  1.
 Warning -- assumption of classical behavior for rotation
           may cause significant error
 Rotational temperatures (Kelvin)      0.14043     0.07995     0.06381
 Rotational constants (GHZ):           2.92607     1.66583     1.32967
 Zero-point vibrational energy     418958.0 (Joules/Mol)
                                  100.13337 (Kcal/Mol)
 Warning -- explicit consideration of   9 degrees of freedom as
           vibrations may cause significant error
 Vibrational temperatures:    183.00   286.08   334.51   344.35   401.13
          (Kelvin)            452.81   646.73   699.42   804.08   916.72
                              959.40  1073.79  1098.07  1144.97  1228.26
                             1283.47  1335.13  1363.12  1410.12  1455.07
                             1497.55  1555.08  1565.27  1611.19  1640.45
                             1701.19  1752.76  1767.94  1773.55  1790.76
                             1831.45  1913.82  1972.06  2004.87  2026.95
                             2043.05  2107.17  2135.91  2137.85  2156.39
                             2170.52  4257.53  4289.30  4383.48  4416.68
                             4424.62  4425.86  4487.37  4490.87  4511.99
                             4514.31

 Zero-point correction=                           0.159573 (Hartree/Particle)
 Thermal correction to Energy=                    0.167302
 Thermal correction to Enthalpy=                  0.168246
 Thermal correction to Gibbs Free Energy=         0.127723
 Sum of electronic and zero-point Energies=           -422.983390
 Sum of electronic and thermal Energies=              -422.975661
 Sum of electronic and thermal Enthalpies=            -422.974717
 Sum of electronic and thermal Free Energies=         -423.015240

                     E (Thermal)             CV                S
                      KCal/Mol        Cal/Mol-Kelvin    Cal/Mol-Kelvin
 Total                  104.984             30.634             85.289
 Electronic               0.000              0.000              0.000
 Translational            0.889              2.981             40.409
 Rotational               0.889              2.981             28.297
 Vibrational            103.206             24.672             16.584
 Vibration     1          0.611              1.926              2.988
 Vibration     2          0.637              1.842              2.144
 Vibration     3          0.653              1.791              1.860
 Vibration     4          0.657              1.780              1.808
 Vibration     5          0.679              1.713              1.541
 Vibration     6          0.702              1.646              1.337
 Vibration     7          0.808              1.362              0.797
 Vibration     8          0.842              1.281              0.694
 Vibration     9          0.914              1.120              0.526

 Optimization completed.
    -- Stationary point found.
 Normal termination of Gaussian 09 at Tue Jan 28 09:04:52 2020.
