 Gaussian 09, Revision D.01,
 Gaussian 09:  ES64L-G09RevD.01 24-Apr-2013

 -----------------------------
 # b3lyp 6-31G(2df,p) opt Freq
 -----------------------------

 -----
 titel
 -----
 Symbolic Z-matrix:
 Charge =  0 Multiplicity = 1

 SCF Done:  E(RB3LYP) =  -423.149484538     A.U. after   14 cycles
 Optimization completed.
    -- Stationary point found.
 Normal termination of Gaussian 09 at Tue Jan 28 09:19:00 2020.

 ----------------------------------------------------------------------
 #N Geom=AllCheck Guess=TCheck SCRF=Check GenChk RB3LYP/6-31G(2df,p) Fr
 eq
 ----------------------------------------------------------------------

 Structure from the checkpoint file:  "/scratch/puck/g09_493a7b4a-1dec-438e-a96a-6f4505a2b80b/Gau-28613.chk"
 -----
 titel
 -----
 Charge =  0 Multiplicity = 1

                         Standard orientation:
 ---------------------------------------------------------------------
 Center     Atomic      Atomic             Coordinates (Angstroms)
 Number     Number       Type             X           Y           Z
 ---------------------------------------------------------------------
      1          8           0        2.800342    0.235236   -0.402297
      2          6           0        1.830296   -0.793867   -0.260597
      3          6           0        0.471806   -0.270937    0.075638
      4          6           0       -0.692785   -0.980293    0.746765
      5          6           0       -1.964394   -0.863008   -0.097283
      6          6           0       -1.587181    0.158470   -1.209289
      7          6           0       -0.344975    0.832636   -0.641957
      8          8           0       -0.711424    1.438543    0.647894
      9          6           0       -0.140946    0.314596    1.315234
     10          1           0        2.778451    0.762505    0.403597
     11          1           0        1.816549   -1.312703   -1.226842
     12          1           0        2.133148   -1.536282    0.495967
     13          1           0       -0.489315   -1.881933    1.315497
     14          1           0       -2.252612   -1.832143   -0.513563
     15          1           0       -2.803857   -0.501109    0.503120
     16          1           0       -1.339019   -0.346584   -2.150693
     17          1           0       -2.383707    0.879549   -1.412096
     18          1           0        0.181153    1.542671   -1.281242
     19          1           0        0.216938    0.450214    2.330410
 ---------------------------------------------------------------------

 SCF Done:  E(RB3LYP) =  -423.149484538     A.U. after    1 cycles

 The electronic state is 1-A.
 Alpha  occ. eigenvalues --  -19.13558 -19.13344 -10.23846 -10.23456 -10.23452
 Alpha  occ. eigenvalues --  -10.19486 -10.19374 -10.18562 -10.18354  -1.05133
 Alpha  occ. eigenvalues --   -1.01621  -0.85076  -0.77099  -0.71846  -0.67493
 Alpha  occ. eigenvalues --   -0.61047  -0.56406  -0.53658  -0.53062  -0.48720
 Alpha  occ. eigenvalues --   -0.47413  -0.45158  -0.42955  -0.42284  -0.40293
 Alpha  occ. eigenvalues --   -0.36985  -0.36662  -0.35637  -0.34018  -0.33070
 Alpha  occ. eigenvalues --   -0.30700  -0.27680  -0.26136  -0.22670
 Alpha virt. eigenvalues --    0.07774   0.08291   0.09862   0.10920   0.12248
 Alpha virt. eigenvalues --    0.13423   0.13810   0.14900   0.15697   0.16444
 Alpha virt. eigenvalues --    0.17766   0.18004   0.20238   0.21134   0.21994

 Mulliken charges:
               1
     1  O   -0.411689
     2  C   -0.201950
     3  C    0.256041
     4  C   -0.152425
     5  C   -0.230051
     6  C   -0.211687
     7  C    0.045063
     8  O   -0.312459
     9  C    0.036600
    10  H    0.283689
    11  H    0.112201
    12  H    0.088665
    13  H    0.086692
    14  H    0.100614
    15  H    0.114126
    16  H    0.099566
    17  H    0.109358
    18  H    0.088943
    19  H    0.098706
 Sum of Mulliken charges =   0.00000

 Dipole moment (field-independent basis, Debye):
    X=             -0.3616    Y=             -1.5176    Z=              0.5378  Tot=              1.6502
 Quadrupole moment (field-independent basis, Debye-Ang):
   XX=            -57.4344   YY=            -53.9649   ZZ=            -50.4223
   XY=              1.6927   XZ=              5.2444   YZ=             -0.9336

  Exact polarizability:  79.188   1.795  69.979   1.772  -1.072  72.504
 Approx polarizability: 105.865   1.975 108.845  -1.985   1.193 110.672

                      1                      2                      3
                      A                      A                      A
 Frequencies --     90.1109               136.2078               202.2955
 Red. masses --      3.5023                 4.2080                 1.8079
 Frc consts  --      0.0168                 0.0460                 0.0436
 IR Inten    --      3.4811                 0.6934                 2.6028

                      4                      5                      6
                      A                      A                      A
 Frequencies --    238.2592               322.2200               386.8044
 Red. masses --      2.3361                 1.3485                 2.0872
 Frc consts  --      0.0781                 0.0825                 0.1840
 IR Inten    --      5.6501                76.8484                35.5656

                      7                      8                      9
                      A                      A                      A
 Frequencies --    418.7303               511.4546               633.7269
 Red. masses --      4.2691                 3.2127                 3.3733
 Frc consts  --      0.4410                 0.4951                 0.7982
 IR Inten    --     15.1675                 1.1107                 5.2542

                     10                     11                     12
                      A                      A                      A
 Frequencies --    672.1441               737.9299               757.4401
 Red. masses --      3.9795                 3.0894                 3.7768
 Frc consts  --      1.0592                 0.9912                 1.2767
 IR Inten    --      2.3263                 6.4212                11.3149

                     13                     14                     15
                      A                      A                      A
 Frequencies --    822.2597               854.7964               878.2327
 Red. masses --      2.0761                 2.0846                 2.1025
 Frc consts  --      0.8270                 0.8974                 0.9554
 IR Inten    --      3.2240                10.7876                 6.4871

                     16                     17                     18
                      A                      A                      A
 Frequencies --    891.1061               915.9456               959.8108
 Red. masses --      2.9500                 1.8821                 2.4751
 Frc consts  --      1.3802                 0.9303                 1.3434
 IR Inten    --     11.8584                20.8361                15.7854

                     19                     20                     21
                      A                      A                      A
 Frequencies --    995.9323              1010.8611              1017.4388
 Red. masses --      1.7985                 2.1049                 1.9146
 Frc consts  --      1.0510                 1.2673                 1.1677
 IR Inten    --      4.7331                29.5064                 5.6273

                     22                     23                     24
                      A                      A                      A
 Frequencies --   1040.3296              1061.5811              1069.7848
 Red. masses --      3.1211                 1.9387                 2.5232
 Frc consts  --      1.9902                 1.2872                 1.7013
 IR Inten    --     50.3108                24.9560                44.4296

                     25                     26                     27
                      A                      A                      A
 Frequencies --   1085.3077              1151.8363              1163.7113
 Red. masses --      2.5508                 1.4594                 1.3600
 Frc consts  --      1.7702                 1.1408                 1.0851
 IR Inten    --      1.2371                 3.3999                 2.7083

                     28                     29                     30
                      A                      A                      A
 Frequencies --   1194.1895              1238.3494              1258.3156
 Red. masses --      1.7568                 1.2895                 1.5071
 Frc consts  --      1.4761                 1.1651                 1.4060
 IR Inten    --      2.6881                13.1048                 2.0618

                     31                     32                     33
                      A                      A                      A
 Frequencies --   1265.2187              1286.6390              1295.7957
 Red. masses --      1.3262                 1.8202                 1.7269
 Frc consts  --      1.2509                 1.7753                 1.7084
 IR Inten    --     11.5119                 1.9895                 6.8055

                     34                     35                     36
                      A                      A                      A
 Frequencies --   1331.8239              1343.0688              1371.6097
 Red. masses --      1.5465                 1.4003                 1.2804
 Frc consts  --      1.6162                 1.4882                 1.4193
 IR Inten    --      3.3780                 1.0786                 1.2975

                     37                     38                     39
                      A                      A                      A
 Frequencies --   1419.5331              1464.6875              1475.4039
 Red. masses --      1.2378                 3.5953                 1.1526
 Frc consts  --      1.4695                 4.5444                 1.4783
 IR Inten    --     68.7556                12.5633                 3.0560

                     40                     41                     42
                      A                      A                      A
 Frequencies --   1497.6174              1499.5644              2970.0000
 Red. masses --      1.0890                 1.0944                 1.0701
 Frc consts  --      1.4390                 1.4500                 5.5616
 IR Inten    --      0.7769                 1.2062                57.1268

                     43                     44                     45
                      A                      A                      A
 Frequencies --   3036.6679              3049.6918              3058.2879
 Red. masses --      1.0644                 1.0911                 1.0601
 Frc consts  --      5.7828                 5.9791                 5.8422
 IR Inten    --     23.7653                31.5298                39.6845

                     46                     47                     48
                      A                      A                      A
 Frequencies --   3090.0453              3105.4797              3113.0923
 Red. masses --      1.1006                 1.1037                 1.0904
 Frc consts  --      6.1919                 6.2712                 6.2261
 IR Inten    --      7.5066                33.5825                31.2158

                     49                     50                     51
                      A                      A                      A
 Frequencies --   3163.9413              3174.2399              3805.5818
 Red. masses --      1.0897                 1.0935                 1.0660
 Frc consts  --      6.4270                 6.4913                 9.0958
 IR Inten    --      9.9237                26.3535                14.0258

 - Thermochemistry -
 -------------------
 Temperature   298.150 Kelvin.  Pressure   1.00000 Atm.
 Atom     1 has atomic number  8 and mass  15.99491

 Molecular mass:   126.06808 amu.
 Principal axes and moments of inertia in atomic units:
                           1         2         3
     Eigenvalues --   593.042051338.337691376.36612
           X            0.99964   0.01296   0.02341
           Y           -0.00838   0.98253  -0.18590
           Z           -0.02541   0.18564   0.98229
 This molecule is an asymmetric top.
 Rotational symmetry number  1.
 Warning -- assumption of classical behavior for rotation
           may cause significant error
 Rotational temperatures (Kelvin)      0.14605     0.06472     0.06293
 Rotational constants (GHZ):           3.04319     1.34849     1.31124
 Zero-point vibrational energy     421893.6 (Joules/Mol)
                                  100.83499 (Kcal/Mol)
 Warning -- explicit consideration of   8 degrees of freedom as
           vibrations may cause significant error
 Vibrational temperatures:    129.65   195.97   291.06   342.80   463.60
          (Kelvin)            556.52   602.46   735.87   911.79   967.06
                             1061.72  1089.79  1183.05  1229.86  1263.58
                             1282.10  1317.84  1380.95  1432.92  1454.40
                             1463.87  1496.80  1527.38  1539.18  1561.51
                             1657.23  1674.32  1718.17  1781.71  1810.43
                             1820.37  1851.18  1864.36  1916.20  1932.37
                             1973.44  2042.39  2107.36  2122.77  2154.73
                             2157.54  4273.16  4369.08  4387.82  4400.19
                             4445.88  4468.09  4479.04  4552.20  4567.02
                             5475.38

 Zero-point correction=                           0.160691 (Hartree/Particle)
 Thermal correction to Energy=                    0.168427
 Thermal correction to Enthalpy=                  0.169371
 Thermal correction to Gibbs Free Energy=         0.128367
 Sum of electronic and zero-point Energies=           -422.988794
 Sum of electronic and thermal Energies=              -422.981057
 Sum of electronic and thermal Enthalpies=            -422.980113
 Sum of electronic and thermal Free Energies=         -423.021118

                     E (Thermal)             CV                S
                      KCal/Mol        Cal/Mol-Kelvin    Cal/Mol-Kelvin
 Total                  105.690             30.337             86.301
 Electronic               0.000              0.000              0.000
 Translational            0.889              2.981             40.409
 Rotational               0.889              2.981             28.481
 Vibrational            103.912             24.375             17.411
 Vibration     1          0.602              1.956              3.658
 Vibration     2          0.614              1.917              2.856
 Vibration     3          0.639              1.837              2.112
 Vibration     4          0.656              1.782              1.816
 Vibration     5          0.707              1.631              1.299
 Vibration     6          0.755              1.498              1.012
 Vibration     7          0.782              1.430              0.896
 Vibration     8          0.867              1.225              0.630

 Optimization completed.
    -- Stationary point found.
 Normal termination of Gaussian 09 at Tue Jan 28 10:07:50 2020.
