 Gaussian 09, Revision D.01,
 Gaussian 09:  ES64L-G09RevD.01 24-Apr-2013

 -----------------------------
 # b3lyp 6-31G(2df,p) opt Freq
 -----------------------------

 -----
 titel
 -----
 Symbolic Z-matrix:
 Charge =  0 Multiplicity = 1

 SCF Done:  E(RB3LYP) =  -423.144080960     A.U. after   14 cycles
 Optimization completed.
    -- Stationary point found.
 Normal termination of Gaussian 09 at Tue Jan 28 14:03:15 2020.

 ----------------------------------------------------------------------
 #N Geom=AllCheck Guess=TCheck SCRF=Check GenChk RB3LYP/6-31G(2df,p) Fr
 eq
 ----------------------------------------------------------------------

 Structure from the checkpoint file:  "/scratch/puck/g09_e02150e0-2d00-4339-8a7a-f9ab90373fe2/Gau-143685.chk"
 -----
 titel
 -----
 Charge =  0 Multiplicity = 1

                         Standard orientation:
 ---------------------------------------------------------------------
 Center     Atomic      Atomic             Coordinates (Angstroms)
 Number     Number       Type             X           Y           Z
 ---------------------------------------------------------------------
      1          6           0       -2.976642    0.016156    0.088022
      2          8           0       -1.781248   -0.525899   -0.428615
      3          6           0       -0.630961   -0.226344    0.345769
      4          6           0        0.455119   -1.234755   -0.035715
      5          6           0        1.804704   -1.176350    0.626752
      6          6           0        1.602111   -0.501505   -0.708996
      7          6           0        1.252108    0.968679   -0.666445
      8          8           0        1.126040    1.517873    0.658656
      9          6           0       -0.066530    1.147375   -0.041260
     10          1           0       -2.964350    1.115730    0.120334
     11          1           0       -3.786072   -0.302275   -0.573321
     12          1           0       -3.180329   -0.352955    1.105060
     13          1           0       -0.877800   -0.265752    1.418268
     14          1           0        0.090925   -2.185327   -0.406757
     15          1           0        1.939940   -0.537039    1.490363
     16          1           0        2.381624   -2.094792    0.636510
     17          1           0        2.092448   -0.883727   -1.595795
     18          1           0        1.656007    1.649820   -1.409773
     19          1           0       -0.750185    1.960991   -0.273968
 ---------------------------------------------------------------------

 SCF Done:  E(RB3LYP) =  -423.144080960     A.U. after    1 cycles

 The electronic state is 1-A.
 Alpha  occ. eigenvalues --  -19.15052 -19.14398 -10.23689 -10.23614 -10.23048
 Alpha  occ. eigenvalues --  -10.22771 -10.19166 -10.18883 -10.18447  -1.07218
 Alpha  occ. eigenvalues --   -1.03508  -0.86661  -0.74373  -0.68699  -0.66634
 Alpha  occ. eigenvalues --   -0.60771  -0.56960  -0.56144  -0.53548  -0.48611
 Alpha  occ. eigenvalues --   -0.47122  -0.46892  -0.44503  -0.42272  -0.40821
 Alpha  occ. eigenvalues --   -0.39093  -0.37155  -0.35735  -0.33601  -0.30981
 Alpha  occ. eigenvalues --   -0.29590  -0.28077  -0.26232  -0.24543
 Alpha virt. eigenvalues --    0.07628   0.08331   0.09273   0.11814   0.13190
 Alpha virt. eigenvalues --    0.14537   0.15100   0.15336   0.16625   0.16797
 Alpha virt. eigenvalues --    0.17314   0.17855   0.18849   0.20598   0.22655

 Mulliken charges:
               1
     1  C   -0.238540
     2  O   -0.245476
     3  C    0.082388
     4  C   -0.063510
     5  C   -0.302101
     6  C   -0.061663
     7  C    0.038833
     8  O   -0.259157
     9  C    0.003432
    10  H    0.107193
    11  H    0.129283
    12  H    0.109224
    13  H    0.077129
    14  H    0.097110
    15  H    0.135288
    16  H    0.109350
    17  H    0.086703
    18  H    0.097443
    19  H    0.097071
 Sum of Mulliken charges =   0.00000

 Dipole moment (field-independent basis, Debye):
    X=             -0.8404    Y=             -0.3129    Z=             -0.5472  Tot=              1.0505
 Quadrupole moment (field-independent basis, Debye-Ang):
   XX=            -49.7843   YY=            -53.3734   ZZ=            -53.3652
   XY=             -3.8176   XZ=             -3.8832   YZ=             -2.5120

  Exact polarizability:  88.363  -3.684  71.483  -2.349  -2.406  63.799
 Approx polarizability: 116.278  -1.266 102.831  -1.796   0.461 102.984

                      1                      2                      3
                      A                      A                      A
 Frequencies --     92.9731               131.5385               177.5405
 Red. masses --      2.4163                 2.8104                 1.4041
 Frc consts  --      0.0123                 0.0287                 0.0261
 IR Inten    --      2.3282                 2.5765                 0.4774

                      4                      5                      6
                      A                      A                      A
 Frequencies --    261.9342               304.2984               340.8022
 Red. masses --      2.5334                 4.0466                 3.6537
 Frc consts  --      0.1024                 0.2208                 0.2500
 IR Inten    --      6.8290                 5.2080                 3.6614

                      7                      8                      9
                      A                      A                      A
 Frequencies --    395.4232               499.3778               532.0686
 Red. masses --      4.1498                 4.6374                 3.6010
 Frc consts  --      0.3823                 0.6814                 0.6006
 IR Inten    --      2.7210                 0.8584                 4.9246

                     10                     11                     12
                      A                      A                      A
 Frequencies --    697.9820               728.4701               790.9583
 Red. masses --      3.2577                 4.6220                 1.9427
 Frc consts  --      0.9351                 1.4451                 0.7161
 IR Inten    --      2.2718                 3.4859                 3.9121

                     13                     14                     15
                      A                      A                      A
 Frequencies --    798.8951               854.9502               867.9015
 Red. masses --      2.1093                 2.3196                 2.6917
 Frc consts  --      0.7932                 0.9990                 1.1946
 IR Inten    --      2.6266                10.9082                35.6159

                     16                     17                     18
                      A                      A                      A
 Frequencies --    894.0876               961.8234               977.4800
 Red. masses --      2.3834                 2.3851                 2.4843
 Frc consts  --      1.1226                 1.3000                 1.3985
 IR Inten    --      7.9242                 2.7669                17.8932

                     19                     20                     21
                      A                      A                      A
 Frequencies --    987.1692              1030.8546              1055.6272
 Red. masses --      3.1590                 2.4521                 1.7931
 Frc consts  --      1.8138                 1.5353                 1.1773
 IR Inten    --      6.0883                 9.4011                 4.6392

                     22                     23                     24
                      A                      A                      A
 Frequencies --   1065.6312              1087.3201              1103.7002
 Red. masses --      1.8260                 1.2312                 1.2651
 Frc consts  --      1.2217                 0.8576                 0.9080
 IR Inten    --      3.3797                 4.0301                 2.4157

                     25                     26                     27
                      A                      A                      A
 Frequencies --   1105.4363              1129.4671              1147.2535
 Red. masses --      1.4011                 1.4401                 4.1898
 Frc consts  --      1.0087                 1.0824                 3.2491
 IR Inten    --      0.7697                 7.4200               154.5138

                     28                     29                     30
                      A                      A                      A
 Frequencies --   1183.9337              1191.5914              1222.7892
 Red. masses --      1.3045                 1.6548                 1.5604
 Frc consts  --      1.0773                 1.3843                 1.3746
 IR Inten    --      6.0917                 4.7373                33.7552

                     31                     32                     33
                      A                      A                      A
 Frequencies --   1253.3414              1294.7483              1299.3922
 Red. masses --      1.4296                 1.3128                 1.8612
 Frc consts  --      1.3232                 1.2966                 1.8515
 IR Inten    --      7.9319                 0.9720                 0.2090

                     34                     35                     36
                      A                      A                      A
 Frequencies --   1335.6906              1354.9585              1395.2983
 Red. masses --      1.2945                 2.0683                 1.7109
 Frc consts  --      1.3607                 2.2372                 1.9625
 IR Inten    --      8.2251                 9.3913                19.1746

                     37                     38                     39
                      A                      A                      A
 Frequencies --   1425.1783              1479.7439              1480.7924
 Red. masses --      2.7336                 1.1528                 1.2574
 Frc consts  --      3.2714                 1.4873                 1.6245
 IR Inten    --     14.1328                 0.3338                 4.0970

                     40                     41                     42
                      A                      A                      A
 Frequencies --   1489.9067              1509.2129              2976.4048
 Red. masses --      1.0675                 1.0637                 1.0466
 Frc consts  --      1.3961                 1.4275                 5.4625
 IR Inten    --      3.4078                 7.7939                29.2339

                     43                     44                     45
                      A                      A                      A
 Frequencies --   2985.7834              3025.6711              3115.2883
 Red. masses --      1.0723                 1.1029                 1.0965
 Frc consts  --      5.6324                 5.9486                 6.2699
 IR Inten    --     67.4704                50.2640                31.0391

                     46                     47                     48
                      A                      A                      A
 Frequencies --   3135.7678              3139.8290              3158.1687
 Red. masses --      1.0886                 1.0549                 1.0928
 Frc consts  --      6.3069                 6.1272                 6.4221
 IR Inten    --     24.5579                17.7011                24.5073

                     49                     50                     51
                      A                      A                      A
 Frequencies --   3181.7703              3191.2574              3233.6851
 Red. masses --      1.0893                 1.0944                 1.1149
 Frc consts  --      6.4971                 6.5666                 6.8690
 IR Inten    --     10.7599                12.4898                 3.4364

 - Thermochemistry -
 -------------------
 Temperature   298.150 Kelvin.  Pressure   1.00000 Atm.
 Atom     1 has atomic number  6 and mass  12.00000

 Molecular mass:   126.06808 amu.
 Principal axes and moments of inertia in atomic units:
                           1         2         3
     Eigenvalues --   584.058651298.328831608.02309
           X            0.99918  -0.03821  -0.01310
           Y            0.03773   0.99868  -0.03490
           Z            0.01442   0.03438   0.99930
 This molecule is an asymmetric top.
 Rotational symmetry number  1.
 Warning -- assumption of classical behavior for rotation
           may cause significant error
 Rotational temperatures (Kelvin)      0.14830     0.06671     0.05386
 Rotational constants (GHZ):           3.09000     1.39005     1.12234
 Zero-point vibrational energy     419178.5 (Joules/Mol)
                                  100.18606 (Kcal/Mol)
 Warning -- explicit consideration of   9 degrees of freedom as
           vibrations may cause significant error
 Vibrational temperatures:    133.77   189.25   255.44   376.86   437.82
          (Kelvin)            490.34   568.93   718.49   765.53  1004.24
                             1048.10  1138.01  1149.43  1230.08  1248.72
                             1286.39  1383.85  1406.37  1420.31  1483.17
                             1518.81  1533.20  1564.41  1587.98  1590.47
                             1625.05  1650.64  1703.41  1714.43  1759.32
                             1803.28  1862.85  1869.53  1921.76  1949.48
                             2007.52  2050.51  2129.02  2130.53  2143.64
                             2171.42  4282.38  4295.87  4353.26  4482.20
                             4511.66  4517.51  4543.89  4577.85  4591.50
                             4652.55

 Zero-point correction=                           0.159657 (Hartree/Particle)
 Thermal correction to Energy=                    0.167532
 Thermal correction to Enthalpy=                  0.168476
 Thermal correction to Gibbs Free Energy=         0.127142
 Sum of electronic and zero-point Energies=           -422.984424
 Sum of electronic and thermal Energies=              -422.976549
 Sum of electronic and thermal Enthalpies=            -422.975605
 Sum of electronic and thermal Free Energies=         -423.016939

                     E (Thermal)             CV                S
                      KCal/Mol        Cal/Mol-Kelvin    Cal/Mol-Kelvin
 Total                  105.128             30.556             86.995
 Electronic               0.000              0.000              0.000
 Translational            0.889              2.981             40.409
 Rotational               0.889              2.981             28.591
 Vibrational            103.351             24.594             17.996
 Vibration     1          0.602              1.954              3.597
 Vibration     2          0.612              1.922              2.923
 Vibration     3          0.628              1.870              2.354
 Vibration     4          0.669              1.742              1.649
 Vibration     5          0.695              1.666              1.393
 Vibration     6          0.720              1.594              1.208
 Vibration     7          0.762              1.480              0.980
 Vibration     8          0.855              1.251              0.660
 Vibration     9          0.887              1.179              0.583

 Normal termination of Gaussian 09 at Tue Jan 28 14:51:32 2020.
