 Gaussian 09, Revision D.01,
 Gaussian 09:  ES64L-G09RevD.01 24-Apr-2013

 -----------------------------
 # b3lyp 6-31G(2df,p) opt Freq
 -----------------------------

 -----
 titel
 -----
 Symbolic Z-matrix:
 Charge =  0 Multiplicity = 1

 SCF Done:  E(RB3LYP) =  -423.217614341     A.U. after   13 cycles
 Optimization completed.
    -- Stationary point found.
 Normal termination of Gaussian 09 at Mon Jan 27 11:15:53 2020.

 ----------------------------------------------------------------------
 #N Geom=AllCheck Guess=TCheck SCRF=Check GenChk RB3LYP/6-31G(2df,p) Fr
 eq
 ----------------------------------------------------------------------

 Structure from the checkpoint file:  "/scratch/puck/g09_f29ce1ea-fbd5-4055-a06d-f702640fbbcd/Gau-22667.chk"
 -----
 titel
 -----
 Charge =  0 Multiplicity = 1

                         Standard orientation:
 ---------------------------------------------------------------------
 Center     Atomic      Atomic             Coordinates (Angstroms)
 Number     Number       Type             X           Y           Z
 ---------------------------------------------------------------------
      1          6           0        3.534130   -0.540119    0.331978
      2          6           0        2.123604   -0.110274    0.074145
      3          6           0        1.647717    1.160158    0.000083
      4          8           0        0.308429    1.168460   -0.254039
      5          6           0       -0.090774   -0.134779   -0.346841
      6          6           0       -1.534508   -0.376534   -0.614142
      7          6           0       -2.441197    0.069489    0.536752
      8          8           0       -3.778588   -0.203840    0.150679
      9          6           0        0.978569   -0.952655   -0.152571
     10          1           0        3.607370   -1.162419    1.231272
     11          1           0        3.932690   -1.131670   -0.500209
     12          1           0        4.191290    0.322986    0.470821
     13          1           0        2.112928    2.127701    0.098222
     14          1           0       -1.852011    0.151214   -1.521716
     15          1           0       -1.687300   -1.444905   -0.792718
     16          1           0       -2.164073   -0.475568    1.452677
     17          1           0       -2.285468    1.141263    0.728929
     18          1           0       -4.361792    0.094908    0.854228
     19          1           0        0.962397   -2.032187   -0.171039
 ---------------------------------------------------------------------

 SCF Done:  E(RB3LYP) =  -423.217614341     A.U. after    1 cycles

 The electronic state is 1-A.
 Alpha  occ. eigenvalues --  -19.19193 -19.13320 -10.22698 -10.22527 -10.21511
 Alpha  occ. eigenvalues --  -10.18784 -10.18282 -10.18058 -10.16913  -1.09475
 Alpha  occ. eigenvalues --   -1.01438  -0.80163  -0.78802  -0.71748  -0.68761
 Alpha  occ. eigenvalues --   -0.61954  -0.57664  -0.53713  -0.51511  -0.49123
 Alpha  occ. eigenvalues --   -0.46402  -0.44609  -0.41581  -0.41174  -0.40868
 Alpha  occ. eigenvalues --   -0.39354  -0.38258  -0.37053  -0.36476  -0.34232
 Alpha  occ. eigenvalues --   -0.32833  -0.26711  -0.25764  -0.21020
 Alpha virt. eigenvalues --    0.02519   0.07455   0.08157   0.11022   0.11702
 Alpha virt. eigenvalues --    0.14039   0.14344   0.15698   0.16004   0.16832
 Alpha virt. eigenvalues --    0.18829   0.19100   0.19758   0.21426   0.22673

 Mulliken charges:
               1
     1  C   -0.500127
     2  C    0.268446
     3  C   -0.117642
     4  O   -0.187674
     5  C    0.372367
     6  C   -0.294878
     7  C   -0.067702
     8  O   -0.419291
     9  C   -0.386893
    10  H    0.128404
    11  H    0.129377
    12  H    0.123398
    13  H    0.126194
    14  H    0.123999
    15  H    0.120800
    16  H    0.090210
    17  H    0.101183
    18  H    0.286974
    19  H    0.102854
 Sum of Mulliken charges =   0.00000

 Dipole moment (field-independent basis, Debye):
    X=              0.4845    Y=              0.0201    Z=              1.2921  Tot=              1.3801
 Quadrupole moment (field-independent basis, Debye-Ang):
   XX=            -48.7414   YY=            -51.2970   ZZ=            -53.1374
   XY=             -1.7247   XZ=             -4.6106   YZ=              0.7289

  Exact polarizability: 108.665  -1.113  76.405   4.373   0.899  54.556
 Approx polarizability: 137.829  -4.407 128.590   8.961   0.530  82.744

                      1                      2                      3
                      A                      A                      A
 Frequencies --     51.1414                90.2901                99.9195
 Red. masses --      3.0672                 2.9873                 3.3058
 Frc consts  --      0.0047                 0.0143                 0.0194
 IR Inten    --      1.7718                 5.1917                 1.3889

                      4                      5                      6
                      A                      A                      A
 Frequencies --    137.6027               233.3424               251.2412
 Red. masses --      1.0889                 3.0516                 1.0921
 Frc consts  --      0.0121                 0.0979                 0.0406
 IR Inten    --      0.0545                 2.7943               100.6472

                      7                      8                      9
                      A                      A                      A
 Frequencies --    260.5934               345.0280               360.2857
 Red. masses --      2.6730                 5.4540                 3.6277
 Frc consts  --      0.1069                 0.3825                 0.2774
 IR Inten    --      5.7544                11.5267                 0.6735

                     10                     11                     12
                      A                      A                      A
 Frequencies --    404.7839               618.1497               627.2917
 Red. masses --      3.1246                 4.0237                 2.9395
 Frc consts  --      0.3016                 0.9059                 0.6815
 IR Inten    --      0.4635                 1.9182                 7.0420

                     13                     14                     15
                      A                      A                      A
 Frequencies --    683.9952               737.8056               777.1829
 Red. masses --      4.7181                 1.3562                 4.0357
 Frc consts  --      1.3005                 0.4350                 1.4362
 IR Inten    --      1.2278                10.0889                17.4137

                     16                     17                     18
                      A                      A                      A
 Frequencies --    795.6017               815.7782               951.9928
 Red. masses --      1.1950                 1.3462                 3.4981
 Frc consts  --      0.4457                 0.5278                 1.8679
 IR Inten    --      2.4424                21.9395                22.6355

                     19                     20                     21
                      A                      A                      A
 Frequencies --    986.4656              1008.0020              1018.6855
 Red. masses --      2.2673                 2.6269                 2.0669
 Frc consts  --      1.3000                 1.5726                 1.2637
 IR Inten    --      1.3663                31.9140                 3.8207

                     22                     23                     24
                      A                      A                      A
 Frequencies --   1058.3941              1065.2036              1079.6950
 Red. masses --      1.6625                 1.4679                 5.5168
 Frc consts  --      1.0972                 0.9814                 3.7891
 IR Inten    --      1.8762                 1.6644                92.5564

                     25                     26                     27
                      A                      A                      A
 Frequencies --   1162.7692              1166.7556              1207.3102
 Red. masses --      2.1185                 2.6389                 1.5573
 Frc consts  --      1.6876                 2.1166                 1.3374
 IR Inten    --     19.3691                10.9639                 5.1433

                     28                     29                     30
                      A                      A                      A
 Frequencies --   1239.6352              1252.3607              1295.2250
 Red. masses --      1.1865                 1.4201                 1.9194
 Frc consts  --      1.0742                 1.3122                 1.8971
 IR Inten    --     37.1810                 2.6775                 9.6244

                     31                     32                     33
                      A                      A                      A
 Frequencies --   1312.2986              1339.5635              1400.5608
 Red. masses --      1.2269                 1.6633                 3.0125
 Frc consts  --      1.2448                 1.7585                 3.4816
 IR Inten    --      1.9444                 6.7911                 6.4755

                     34                     35                     36
                      A                      A                      A
 Frequencies --   1421.9469              1454.0882              1478.1028
 Red. masses --      1.3530                 1.4374                 1.0936
 Frc consts  --      1.6119                 1.7906                 1.4077
 IR Inten    --      0.4541                 7.4431                 2.0516

                     37                     38                     39
                      A                      A                      A
 Frequencies --   1483.2372              1499.0130              1529.0681
 Red. masses --      1.0429                 1.0942                 1.0853
 Frc consts  --      1.3518                 1.4486                 1.4950
 IR Inten    --      4.5982                 3.6514                 2.9224

                     40                     41                     42
                      A                      A                      A
 Frequencies --   1588.2808              1663.9486              2977.1477
 Red. masses --      6.2082                 6.2684                 1.0573
 Frc consts  --      9.2271                10.2256                 5.5216
 IR Inten    --     13.1388                11.5916                43.4023

                     43                     44                     45
                      A                      A                      A
 Frequencies --   3013.0313              3027.9396              3038.4714
 Red. masses --      1.1031                 1.0371                 1.0640
 Frc consts  --      5.9003                 5.6024                 5.7878
 IR Inten    --     38.1604                40.0071                26.1222

                     46                     47                     48
                      A                      A                      A
 Frequencies --   3077.8667              3098.6478              3108.9367
 Red. masses --      1.0999                 1.0988                 1.0996
 Frc consts  --      6.1392                 6.2159                 6.2620
 IR Inten    --     20.1001                16.9800                18.4915

                     49                     50                     51
                      A                      A                      A
 Frequencies --   3245.1599              3269.4033              3832.9931
 Red. masses --      1.0966                 1.0978                 1.0664
 Frc consts  --      6.8040                 6.9135                 9.2307
 IR Inten    --      3.4144                 0.8884                23.9991

 - Thermochemistry -
 -------------------
 Temperature   298.150 Kelvin.  Pressure   1.00000 Atm.
 Atom     1 has atomic number  6 and mass  12.00000

 Molecular mass:   126.06808 amu.
 Principal axes and moments of inertia in atomic units:
                           1         2         3
     Eigenvalues --   325.387842449.732542626.18544
           X            0.99997  -0.00772   0.00009
           Y            0.00772   0.99979   0.01894
           Z           -0.00023  -0.01894   0.99982
 This molecule is an asymmetric top.
 Rotational symmetry number  1.
 Rotational temperatures (Kelvin)      0.26619     0.03536     0.03298
 Rotational constants (GHZ):           5.54643     0.73671     0.68721
 Zero-point vibrational energy     416553.1 (Joules/Mol)
                                   99.55857 (Kcal/Mol)
 Warning -- explicit consideration of  11 degrees of freedom as
           vibrations may cause significant error
 Vibrational temperatures:     73.58   129.91   143.76   197.98   335.73
          (Kelvin)            361.48   374.94   496.42   518.37   582.39
                              889.38   902.53   984.12  1061.54  1118.19
                             1144.69  1173.72  1369.70  1419.30  1450.29
                             1465.66  1522.79  1532.59  1553.44  1672.96
                             1678.70  1737.05  1783.56  1801.87  1863.54
                             1888.10  1927.33  2015.09  2045.86  2092.11
                             2126.66  2134.04  2156.74  2199.99  2285.18
                             2394.05  4283.45  4335.07  4356.52  4371.68
                             4428.36  4458.26  4473.06  4669.06  4703.94
                             5514.82

 Zero-point correction=                           0.158657 (Hartree/Particle)
 Thermal correction to Energy=                    0.168114
 Thermal correction to Enthalpy=                  0.169058
 Thermal correction to Gibbs Free Energy=         0.123548
 Sum of electronic and zero-point Energies=           -423.058958
 Sum of electronic and thermal Energies=              -423.049500
 Sum of electronic and thermal Enthalpies=            -423.048556
 Sum of electronic and thermal Free Energies=         -423.094066

                     E (Thermal)             CV                S
                      KCal/Mol        Cal/Mol-Kelvin    Cal/Mol-Kelvin
 Total                  105.493             33.817             95.785
 Electronic               0.000              0.000              0.000
 Translational            0.889              2.981             40.409
 Rotational               0.889              2.981             29.128
 Vibrational            103.716             27.856             26.248
 Vibration     1          0.595              1.977              4.773
 Vibration     2          0.602              1.956              3.654
 Vibration     3          0.604              1.949              3.456
 Vibration     4          0.614              1.916              2.837
 Vibration     5          0.654              1.790              1.853
 Vibration     6          0.663              1.761              1.722
 Vibration     7          0.669              1.745              1.658
 Vibration     8          0.723              1.585              1.189
 Vibration     9          0.735              1.554              1.121
 Vibration    10          0.770              1.460              0.945
 Vibration    11          0.978              0.994              0.419

 Optimization completed.
    -- Stationary point found.
 Normal termination of Gaussian 09 at Mon Jan 27 11:56:12 2020.
