 Gaussian 09, Revision D.01,
 Gaussian 09:  ES64L-G09RevD.01 24-Apr-2013

 -----------------------------
 # b3lyp 6-31G(2df,p) opt Freq
 -----------------------------

 -----
 titel
 -----
 Symbolic Z-matrix:
 Charge =  0 Multiplicity = 1

 SCF Done:  E(RB3LYP) =  -423.155743141     A.U. after   14 cycles
 Optimization completed.
    -- Stationary point found.
 Normal termination of Gaussian 09 at Mon Jan 27 13:47:23 2020.

 ----------------------------------------------------------------------
 #N Geom=AllCheck Guess=TCheck SCRF=Check GenChk RB3LYP/6-31G(2df,p) Fr
 eq
 ----------------------------------------------------------------------

 Structure from the checkpoint file:  "/scratch/puck/g09_6e7335bc-d5fc-4f7f-87b8-fd81cda2f238/Gau-102382.chk"
 -----
 titel
 -----
 Charge =  0 Multiplicity = 1

                         Standard orientation:
 ---------------------------------------------------------------------
 Center     Atomic      Atomic             Coordinates (Angstroms)
 Number     Number       Type             X           Y           Z
 ---------------------------------------------------------------------
      1          8           0       -3.532756   -0.148198    0.088949
      2          6           0       -2.370071   -0.459245    0.032517
      3          6           0       -1.286844    0.357350   -0.632805
      4          6           0       -0.177744    0.750715    0.347341
      5          6           0        1.060112    1.519738   -0.223936
      6          6           0        2.014844    0.458043    0.391363
      7          6           0        2.294664   -0.740438   -0.526352
      8          8           0        1.044953   -1.375348   -0.153029
      9          6           0        0.778259   -0.367157    0.845453
     10          1           0       -2.010383   -1.408308    0.493405
     11          1           0       -0.838590   -0.261770   -1.420789
     12          1           0       -1.741549    1.242711   -1.086867
     13          1           0       -0.602621    1.287782    1.202537
     14          1           0        1.100860    1.581086   -1.315718
     15          1           0        1.179678    2.526818    0.180121
     16          1           0        2.808845    0.802168    1.051600
     17          1           0        2.355732   -0.538218   -1.602967
     18          1           0        3.151458   -1.357487   -0.227036
     19          1           0        0.619686   -0.800448    1.836863
 ---------------------------------------------------------------------

 SCF Done:  E(RB3LYP) =  -423.155743141     A.U. after    1 cycles

 The electronic state is 1-A.
 Alpha  occ. eigenvalues --  -19.14289 -19.13401 -10.26586 -10.24077 -10.23902
 Alpha  occ. eigenvalues --  -10.20336 -10.20144 -10.19568 -10.19040  -1.04820
 Alpha  occ. eigenvalues --   -1.04028  -0.84115  -0.76562  -0.70753  -0.65926
 Alpha  occ. eigenvalues --   -0.61630  -0.57026  -0.53009  -0.52506  -0.48362
 Alpha  occ. eigenvalues --   -0.47707  -0.45993  -0.43397  -0.42825  -0.41190
 Alpha  occ. eigenvalues --   -0.39797  -0.38627  -0.35308  -0.34508  -0.34018
 Alpha  occ. eigenvalues --   -0.31202  -0.29377  -0.25451  -0.24325
 Alpha virt. eigenvalues --   -0.01768   0.05995   0.08167   0.10073   0.10988
 Alpha virt. eigenvalues --    0.11799   0.13757   0.14347   0.14942   0.15766
 Alpha virt. eigenvalues --    0.16849   0.17571   0.19164   0.19520   0.20824

 Mulliken charges:
               1
     1  O   -0.242363
     2  C    0.153230
     3  C   -0.288406
     4  C   -0.006677
     5  C   -0.270323
     6  C   -0.072879
     7  C   -0.077061
     8  O   -0.294149
     9  C    0.103710
    10  H    0.082061
    11  H    0.128768
    12  H    0.115865
    13  H    0.085536
    14  H    0.103474
    15  H    0.110375
    16  H    0.081772
    17  H    0.103464
    18  H    0.105505
    19  H    0.078099
 Sum of Mulliken charges =   0.00000

 Dipole moment (field-independent basis, Debye):
    X=              3.6706    Y=              1.2510    Z=              0.2277  Tot=              3.8846
 Quadrupole moment (field-independent basis, Debye-Ang):
   XX=            -63.6789   YY=            -54.3958   ZZ=            -50.7237
   XY=              1.0456   XZ=              0.6443   YZ=             -0.0848

  Exact polarizability:  91.645  -2.348  70.386  -2.416  -2.100  65.193
 Approx polarizability: 123.716  -4.260 103.963  -4.445  -1.601  99.701

                      1                      2                      3
                      A                      A                      A
 Frequencies --     38.7260                53.4234                94.2985
 Red. masses --      3.9952                 4.4124                 3.0894
 Frc consts  --      0.0035                 0.0074                 0.0162
 IR Inten    --      2.5476                 4.0081                 2.3700

                      4                      5                      6
                      A                      A                      A
 Frequencies --    188.6080               252.4434               348.1790
 Red. masses --      2.4266                 3.8203                 3.3463
 Frc consts  --      0.0509                 0.1434                 0.2390
 IR Inten    --      1.5215                 8.3604                 0.9712

                      7                      8                      9
                      A                      A                      A
 Frequencies --    365.9661               476.3711               538.3808
 Red. masses --      1.8835                 3.3391                 2.2429
 Frc consts  --      0.1486                 0.4464                 0.3830
 IR Inten    --      0.1000                14.8273                 3.3683

                     10                     11                     12
                      A                      A                      A
 Frequencies --    651.6410               760.5761               795.0944
 Red. masses --      3.7785                 1.7914                 2.3573
 Frc consts  --      0.9453                 0.6106                 0.8780
 IR Inten    --      1.7756                 0.7954                 4.0755

                     13                     14                     15
                      A                      A                      A
 Frequencies --    839.0314               848.7115               905.6582
 Red. masses --      1.6669                 1.9473                 2.7523
 Frc consts  --      0.6914                 0.8264                 1.3301
 IR Inten    --      5.0825                 9.0403                 3.0502

                     16                     17                     18
                      A                      A                      A
 Frequencies --    924.8486               940.2642               978.1514
 Red. masses --      3.3668                 1.9217                 1.8490
 Frc consts  --      1.6967                 1.0010                 1.0423
 IR Inten    --      9.4123                 7.1184                 9.3215

                     19                     20                     21
                      A                      A                      A
 Frequencies --   1001.0218              1011.5155              1033.6710
 Red. masses --      4.5642                 1.7648                 2.3954
 Frc consts  --      2.6947                 1.0638                 1.5079
 IR Inten    --     71.2774                11.7481                13.0842

                     22                     23                     24
                      A                      A                      A
 Frequencies --   1075.0709              1096.3029              1132.0962
 Red. masses --      2.5668                 2.5042                 2.0814
 Frc consts  --      1.7479                 1.7733                 1.5717
 IR Inten    --     12.9764                26.9471                 3.1917

                     25                     26                     27
                      A                      A                      A
 Frequencies --   1149.2616              1168.3719              1187.3744
 Red. masses --      1.4017                 1.4245                 1.4686
 Frc consts  --      1.0908                 1.1457                 1.2199
 IR Inten    --      0.9020                 7.4640                 2.5104

                     28                     29                     30
                      A                      A                      A
 Frequencies --   1219.2778              1223.2631              1265.5894
 Red. masses --      1.4782                 1.4800                 1.4665
 Frc consts  --      1.2947                 1.3048                 1.3839
 IR Inten    --      3.4037                 1.2823                 0.6768

                     31                     32                     33
                      A                      A                      A
 Frequencies --   1281.0104              1299.4517              1314.6979
 Red. masses --      1.2742                 1.4622                 1.6043
 Frc consts  --      1.2320                 1.4547                 1.6337
 IR Inten    --      1.4610                 1.0271                 1.2606

                     34                     35                     36
                      A                      A                      A
 Frequencies --   1323.4309              1355.1213              1364.7679
 Red. masses --      1.3891                 1.4044                 1.4830
 Frc consts  --      1.4335                 1.5195                 1.6274
 IR Inten    --      7.0945                 8.8139                 5.7509

                     37                     38                     39
                      A                      A                      A
 Frequencies --   1429.8549              1457.0222              1482.9841
 Red. masses --      1.1971                 1.1045                 1.0989
 Frc consts  --      1.4420                 1.3814                 1.4239
 IR Inten    --      4.5902                 7.3059                 2.8467

                     40                     41                     42
                      A                      A                      A
 Frequencies --   1523.8751              1832.2758              2866.0309
 Red. masses --      1.1009                 9.8700                 1.0819
 Frc consts  --      1.5063                19.5231                 5.2362
 IR Inten    --      0.9731               196.8435                89.0752

                     43                     44                     45
                      A                      A                      A
 Frequencies --   3010.0568              3031.4334              3044.8269
 Red. masses --      1.0551                 1.0614                 1.0830
 Frc consts  --      5.6327                 5.7467                 5.9155
 IR Inten    --     85.0300                 5.6770                10.3336

                     46                     47                     48
                      A                      A                      A
 Frequencies --   3054.7623              3057.1695              3069.4256
 Red. masses --      1.0849                 1.0857                 1.0889
 Frc consts  --      5.9649                 5.9786                 6.0445
 IR Inten    --      5.5186                68.6655                48.9281

                     49                     50                     51
                      A                      A                      A
 Frequencies --   3100.7153              3112.4868              3129.7980
 Red. masses --      1.1017                 1.1034                 1.0925
 Frc consts  --      6.2408                 6.2979                 6.3055
 IR Inten    --     10.7757                13.3623                43.5149

 - Thermochemistry -
 -------------------
 Temperature   298.150 Kelvin.  Pressure   1.00000 Atm.
 Atom     1 has atomic number  8 and mass  15.99491

 Molecular mass:   126.06808 amu.
 Principal axes and moments of inertia in atomic units:
                           1         2         3
     Eigenvalues --   472.961271809.929052033.34318
           X            0.99999   0.00312  -0.00076
           Y           -0.00313   0.99981  -0.01947
           Z            0.00070   0.01947   0.99981
 This molecule is an asymmetric top.
 Rotational symmetry number  1.
 Warning -- assumption of classical behavior for rotation
           may cause significant error
 Rotational temperatures (Kelvin)      0.18313     0.04785     0.04260
 Rotational constants (GHZ):           3.81583     0.99713     0.88757
 Zero-point vibrational energy     416924.8 (Joules/Mol)
                                   99.64742 (Kcal/Mol)
 Warning -- explicit consideration of   9 degrees of freedom as
           vibrations may cause significant error
 Vibrational temperatures:     55.72    76.86   135.67   271.36   363.21
          (Kelvin)            500.95   526.54   685.39   774.61   937.56
                             1094.30  1143.96  1207.18  1221.10  1303.04
                             1330.65  1352.83  1407.34  1440.25  1455.34
                             1487.22  1546.79  1577.33  1628.83  1653.53
                             1681.02  1708.36  1754.27  1760.00  1820.90
                             1843.09  1869.62  1891.55  1904.12  1949.71
                             1963.59  2057.24  2096.33  2133.68  2192.51
                             2636.23  4123.57  4330.79  4361.55  4380.82
                             4395.12  4398.58  4416.21  4461.23  4478.17
                             4503.08

 Zero-point correction=                           0.158798 (Hartree/Particle)
 Thermal correction to Energy=                    0.167262
 Thermal correction to Enthalpy=                  0.168206
 Thermal correction to Gibbs Free Energy=         0.124015
 Sum of electronic and zero-point Energies=           -422.996945
 Sum of electronic and thermal Energies=              -422.988481
 Sum of electronic and thermal Enthalpies=            -422.987537
 Sum of electronic and thermal Free Energies=         -423.031728

                     E (Thermal)             CV                S
                      KCal/Mol        Cal/Mol-Kelvin    Cal/Mol-Kelvin
 Total                  104.959             30.679             93.007
 Electronic               0.000              0.000              0.000
 Translational            0.889              2.981             40.409
 Rotational               0.889              2.981             28.944
 Vibrational            103.181             24.718             23.654
 Vibration     1          0.594              1.981              5.323
 Vibration     2          0.596              1.976              4.686
 Vibration     3          0.603              1.953              3.569
 Vibration     4          0.633              1.856              2.241
 Vibration     5          0.664              1.759              1.713
 Vibration     6          0.726              1.579              1.174
 Vibration     7          0.739              1.542              1.097
 Vibration     8          0.833              1.302              0.720
 Vibration     9          0.893              1.165              0.569

 Optimization completed.
    -- Stationary point found.
 Normal termination of Gaussian 09 at Mon Jan 27 14:27:20 2020.
