 Gaussian 09, Revision D.01,
 Gaussian 09:  ES64L-G09RevD.01 24-Apr-2013

 -----------------------------
 # b3lyp 6-31G(2df,p) opt Freq
 -----------------------------

 -----
 titel
 -----
 Symbolic Z-matrix:
 Charge =  0 Multiplicity = 1

 SCF Done:  E(RB3LYP) =  -423.131569808     A.U. after   14 cycles
 Optimization completed.
    -- Stationary point found.
 Normal termination of Gaussian 09 at Tue Jan 28 09:19:23 2020.

 ----------------------------------------------------------------------
 #N Geom=AllCheck Guess=TCheck SCRF=Check GenChk RB3LYP/6-31G(2df,p) Fr
 eq
 ----------------------------------------------------------------------

 Structure from the checkpoint file:  "/scratch/puck/g09_e3eeaaca-d9ee-4b58-8e28-1b6728134025/Gau-84009.chk"
 -----
 titel
 -----
 Charge =  0 Multiplicity = 1

                         Standard orientation:
 ---------------------------------------------------------------------
 Center     Atomic      Atomic             Coordinates (Angstroms)
 Number     Number       Type             X           Y           Z
 ---------------------------------------------------------------------
      1          8           0       -2.587629   -0.656642    0.182583
      2          6           0       -1.899159    0.466334   -0.347816
      3          6           0       -0.404743    0.376961   -0.150473
      4          6           0        0.594494    1.482708   -0.657841
      5          6           0        1.550392    0.785054    0.371969
      6          6           0        0.281137    0.570591    1.239523
      7          6           0        1.711394   -0.586388   -0.323600
      8          8           0        1.005164   -1.679507    0.286762
      9          6           0        0.327592   -0.877339   -0.692611
     10          1           0       -2.341101   -0.741889    1.109494
     11          1           0       -2.138277    0.478885   -1.418322
     12          1           0       -2.277719    1.410070    0.077717
     13          1           0        0.878577    1.459383   -1.714656
     14          1           0        0.304817    2.496145   -0.365843
     15          1           0        2.443798    1.272499    0.760075
     16          1           0        0.278715   -0.260071    1.943637
     17          1           0       -0.042444    1.498479    1.715982
     18          1           0        2.588967   -0.845034   -0.906026
     19          1           0       -0.002257   -1.386797   -1.591714
 ---------------------------------------------------------------------

 SCF Done:  E(RB3LYP) =  -423.131569808     A.U. after    1 cycles

 The electronic state is 1-A.
 Alpha  occ. eigenvalues --  -19.14848 -19.13509 -10.23250 -10.23085 -10.22784
 Alpha  occ. eigenvalues --  -10.20323 -10.20177 -10.19439 -10.18663  -1.07065
 Alpha  occ. eigenvalues --   -1.01576  -0.87717  -0.72724  -0.68412  -0.65642
 Alpha  occ. eigenvalues --   -0.65050  -0.56250  -0.55135  -0.52344  -0.49318
 Alpha  occ. eigenvalues --   -0.48227  -0.45077  -0.43830  -0.40373  -0.39653
 Alpha  occ. eigenvalues --   -0.37550  -0.36584  -0.35351  -0.33214  -0.32779
 Alpha  occ. eigenvalues --   -0.30319  -0.28368  -0.26935  -0.25299
 Alpha virt. eigenvalues --    0.06807   0.08751   0.09388   0.10742   0.12853
 Alpha virt. eigenvalues --    0.13318   0.13531   0.14591   0.16488   0.16966
 Alpha virt. eigenvalues --    0.17295   0.18766   0.20259   0.20363   0.21129

 Mulliken charges:
               1
     1  O   -0.414148
     2  C   -0.181080
     3  C    0.265403
     4  C   -0.271048
     5  C   -0.081041
     6  C   -0.271133
     7  C    0.036182
     8  O   -0.257642
     9  C    0.019383
    10  H    0.288359
    11  H    0.107111
    12  H    0.084254
    13  H    0.094337
    14  H    0.098875
    15  H    0.067977
    16  H    0.116871
    17  H    0.093935
    18  H    0.101081
    19  H    0.102325
 Sum of Mulliken charges =   0.00000

 Dipole moment (field-independent basis, Debye):
    X=              0.9418    Y=              2.2564    Z=             -0.2382  Tot=              2.4566
 Quadrupole moment (field-independent basis, Debye-Ang):
   XX=            -56.1038   YY=            -56.3821   ZZ=            -49.6462
   XY=             -0.5952   XZ=             -2.9706   YZ=              1.1729

  Exact polarizability:  78.854   0.054  72.695   0.446   0.757  68.924
 Approx polarizability: 111.272   2.164 112.043   2.445  -2.683 106.731

                      1                      2                      3
                      A                      A                      A
 Frequencies --     88.3797               143.8004               260.9878
 Red. masses --      3.1125                 4.9271                 1.4991
 Frc consts  --      0.0143                 0.0600                 0.0602
 IR Inten    --      1.5408                 2.6327                52.6644

                      4                      5                      6
                      A                      A                      A
 Frequencies --    323.3458               372.4324               402.0328
 Red. masses --      1.4920                 3.9696                 3.0789
 Frc consts  --      0.0919                 0.3244                 0.2932
 IR Inten    --     54.0440                19.1075                 4.3951

                      7                      8                      9
                      A                      A                      A
 Frequencies --    432.4362               516.2808               585.5355
 Red. masses --      3.8164                 2.1382                 3.1924
 Frc consts  --      0.4205                 0.3358                 0.6449
 IR Inten    --      1.4461                 5.5113                 8.2259

                     10                     11                     12
                      A                      A                      A
 Frequencies --    638.4427               706.6066               796.0317
 Red. masses --      3.6924                 3.4267                 2.5217
 Frc consts  --      0.8868                 1.0080                 0.9415
 IR Inten    --      0.6724                 2.2793                 8.7093

                     13                     14                     15
                      A                      A                      A
 Frequencies --    823.8775               857.2567               879.5265
 Red. masses --      3.5321                 2.3317                 2.7589
 Frc consts  --      1.4126                 1.0096                 1.2574
 IR Inten    --      1.4502                 1.0329                 2.1372

                     16                     17                     18
                      A                      A                      A
 Frequencies --    890.8262               913.8442               932.8765
 Red. masses --      2.2819                 2.2488                 2.4270
 Frc consts  --      1.0669                 1.1065                 1.2444
 IR Inten    --     25.3327                 8.8706                 0.7643

                     19                     20                     21
                      A                      A                      A
 Frequencies --    970.6141               988.2263              1012.4021
 Red. masses --      3.0200                 1.6650                 1.9454
 Frc consts  --      1.6763                 0.9580                 1.1748
 IR Inten    --      1.6432                23.4632                 5.3729

                     22                     23                     24
                      A                      A                      A
 Frequencies --   1037.4571              1058.2529              1059.8698
 Red. masses --      1.6376                 3.1558                 1.2519
 Frc consts  --      1.0385                 2.0822                 0.8286
 IR Inten    --      5.6341                77.6502                14.4432

                     25                     26                     27
                      A                      A                      A
 Frequencies --   1094.1894              1101.1448              1157.5716
 Red. masses --      1.4996                 1.4173                 1.3494
 Frc consts  --      1.0578                 1.0125                 1.0653
 IR Inten    --      0.7477                 0.8902                 6.5320

                     28                     29                     30
                      A                      A                      A
 Frequencies --   1166.1293              1220.7314              1229.2563
 Red. masses --      1.7145                 1.5375                 1.4496
 Frc consts  --      1.3737                 1.3499                 1.2906
 IR Inten    --      4.4199                 9.1665                 5.2636

                     31                     32                     33
                      A                      A                      A
 Frequencies --   1244.3735              1260.8124              1273.3807
 Red. masses --      1.4129                 1.5844                 1.6675
 Frc consts  --      1.2890                 1.4840                 1.5930
 IR Inten    --      3.0424                 1.2260                10.8735

                     34                     35                     36
                      A                      A                      A
 Frequencies --   1292.9373              1331.6619              1372.4754
 Red. masses --      1.7068                 2.1907                 1.2617
 Frc consts  --      1.6811                 2.2888                 1.4003
 IR Inten    --      1.4845                 8.8055                 1.2258

                     37                     38                     39
                      A                      A                      A
 Frequencies --   1404.1561              1424.2485              1476.1679
 Red. masses --      2.9784                 1.3586                 1.0977
 Frc consts  --      3.4600                 1.6237                 1.4094
 IR Inten    --     16.8622                53.8360                 2.7351

                     40                     41                     42
                      A                      A                      A
 Frequencies --   1502.2740              1515.0564              2971.2582
 Red. masses --      1.0920                 1.1522                 1.0696
 Frc consts  --      1.4520                 1.5582                 5.5636
 IR Inten    --      0.1834                 4.7691                58.2327

                     43                     44                     45
                      A                      A                      A
 Frequencies --   3045.8075              3050.5397              3078.9858
 Red. masses --      1.0577                 1.0911                 1.0596
 Frc consts  --      5.7811                 5.9823                 5.9183
 IR Inten    --     34.5654                36.0039                19.0547

                     46                     47                     48
                      A                      A                      A
 Frequencies --   3107.5019              3123.4470              3151.3054
 Red. masses --      1.1078                 1.0898                 1.1067
 Frc consts  --      6.3029                 6.2644                 6.4752
 IR Inten    --     34.8791                45.8411                13.7350

                     49                     50                     51
                      A                      A                      A
 Frequencies --   3169.6581              3181.7474              3813.2433
 Red. masses --      1.0875                 1.0978                 1.0661
 Frc consts  --      6.4372                 6.5480                 9.1337
 IR Inten    --     15.4058                19.5157                14.9822

 - Thermochemistry -
 -------------------
 Temperature   298.150 Kelvin.  Pressure   1.00000 Atm.
 Atom     1 has atomic number  8 and mass  15.99491

 Molecular mass:   126.06808 amu.
 Principal axes and moments of inertia in atomic units:
                           1         2         3
     Eigenvalues --   635.513381146.407261403.69791
           X            0.99998   0.00237  -0.00632
           Y           -0.00227   0.99987   0.01620
           Z            0.00636  -0.01619   0.99985
 This molecule is an asymmetric top.
 Rotational symmetry number  1.
 Warning -- assumption of classical behavior for rotation
           may cause significant error
 Rotational temperatures (Kelvin)      0.13629     0.07555     0.06170
 Rotational constants (GHZ):           2.83982     1.57426     1.28570
 Zero-point vibrational energy     421393.0 (Joules/Mol)
                                  100.71534 (Kcal/Mol)
 Warning -- explicit consideration of   9 degrees of freedom as
           vibrations may cause significant error
 Vibrational temperatures:    127.16   206.90   375.50   465.22   535.85
          (Kelvin)            578.43   622.18   742.81   842.45   918.58
                             1016.65  1145.31  1185.37  1233.40  1265.44
                             1281.70  1314.82  1342.20  1396.50  1421.84
                             1456.62  1492.67  1522.59  1524.91  1574.29
                             1584.30  1665.49  1677.80  1756.36  1768.62
                             1790.37  1814.03  1832.11  1860.25  1915.96
                             1974.68  2020.26  2049.17  2123.87  2161.43
                             2179.83  4274.97  4382.23  4389.04  4429.97
                             4471.00  4493.94  4534.02  4560.43  4577.82
                             5486.40

 Zero-point correction=                           0.160500 (Hartree/Particle)
 Thermal correction to Energy=                    0.168012
 Thermal correction to Enthalpy=                  0.168956
 Thermal correction to Gibbs Free Energy=         0.128547
 Sum of electronic and zero-point Energies=           -422.971070
 Sum of electronic and thermal Energies=              -422.963558
 Sum of electronic and thermal Enthalpies=            -422.962613
 Sum of electronic and thermal Free Energies=         -423.003023

                     E (Thermal)             CV                S
                      KCal/Mol        Cal/Mol-Kelvin    Cal/Mol-Kelvin
 Total                  105.429             30.329             85.049
 Electronic               0.000              0.000              0.000
 Translational            0.889              2.981             40.409
 Rotational               0.889              2.981             28.416
 Vibrational            103.652             24.368             16.225
 Vibration     1          0.601              1.957              3.696
 Vibration     2          0.616              1.909              2.753
 Vibration     3          0.669              1.744              1.655
 Vibration     4          0.708              1.629              1.293
 Vibration     5          0.744              1.529              1.070
 Vibration     6          0.768              1.466              0.955
 Vibration     7          0.793              1.400              0.851
 Vibration     8          0.871              1.214              0.619
 Vibration     9          0.943              1.063              0.475

 Optimization completed.
    -- Stationary point found.
 Normal termination of Gaussian 09 at Tue Jan 28 10:11:47 2020.
