 Gaussian 09, Revision D.01,
 Gaussian 09:  ES64L-G09RevD.01 24-Apr-2013

 -----------------------------
 # b3lyp 6-31G(2df,p) opt Freq
 -----------------------------

 -----
 titel
 -----
 Symbolic Z-matrix:
 Charge =  0 Multiplicity = 1

 SCF Done:  E(RB3LYP) =  -423.219137226     A.U. after   14 cycles
 Optimization completed.
    -- Stationary point found.
 Normal termination of Gaussian 09 at Tue Jan 28 13:33:52 2020.

 ----------------------------------------------------------------------
 #N Geom=AllCheck Guess=TCheck SCRF=Check GenChk RB3LYP/6-31G(2df,p) Fr
 eq
 ----------------------------------------------------------------------

 Structure from the checkpoint file:  "/scratch/puck/g09_09b804fd-3603-41ff-924e-6b259638e2b2/Gau-13956.chk"
 -----
 titel
 -----
 Charge =  0 Multiplicity = 1

                         Standard orientation:
 ---------------------------------------------------------------------
 Center     Atomic      Atomic             Coordinates (Angstroms)
 Number     Number       Type             X           Y           Z
 ---------------------------------------------------------------------
      1          6           0        2.648934   -1.229752   -0.050623
      2          8           0        1.741471   -0.218623   -0.430790
      3          6           0        0.591472   -0.145766    0.391895
      4          6           0       -0.453963   -1.254437    0.159009
      5          6           0       -1.782780   -0.505753   -0.037076
      6          8           0       -2.878236   -1.013400   -0.100151
      7          6           0       -1.453372    0.930891   -0.130033
      8          6           0       -0.145894    1.146111    0.075670
      9          6           0        0.596887    2.438015    0.040404
     10          1           0        2.211885   -2.234913   -0.140425
     11          1           0        3.508563   -1.160169   -0.721086
     12          1           0        2.992949   -1.094601    0.986893
     13          1           0        0.910682   -0.127994    1.449686
     14          1           0       -0.217968   -1.796851   -0.762715
     15          1           0       -0.539111   -1.985176    0.966418
     16          1           0       -2.204100    1.684506   -0.334853
     17          1           0        1.405773    2.380876   -0.695310
     18          1           0       -0.055540    3.278509   -0.205556
     19          1           0        1.073279    2.636142    1.008998
 ---------------------------------------------------------------------

 SCF Done:  E(RB3LYP) =  -423.219137226     A.U. after    1 cycles

 The electronic state is 1-A.
 Alpha  occ. eigenvalues --  -19.15204 -19.11595 -10.25935 -10.24831 -10.23342
 Alpha  occ. eigenvalues --  -10.21719 -10.19439 -10.18786 -10.18714  -1.04519
 Alpha  occ. eigenvalues --   -1.02631  -0.85350  -0.75684  -0.72402  -0.69061
 Alpha  occ. eigenvalues --   -0.63580  -0.55479  -0.54172  -0.50756  -0.48148
 Alpha  occ. eigenvalues --   -0.45988  -0.44503  -0.43137  -0.42246  -0.42084
 Alpha  occ. eigenvalues --   -0.40209  -0.38994  -0.38501  -0.35834  -0.35422
 Alpha  occ. eigenvalues --   -0.32373  -0.27404  -0.26632  -0.23391
 Alpha virt. eigenvalues --   -0.04191   0.05416   0.08542   0.10979   0.11782
 Alpha virt. eigenvalues --    0.13086   0.13716   0.14173   0.15111   0.16885
 Alpha virt. eigenvalues --    0.17040   0.17559   0.19564   0.21016   0.21561

 Mulliken charges:
               1
     1  C   -0.235249
     2  O   -0.248840
     3  C    0.034775
     4  C   -0.365030
     5  C    0.388355
     6  O   -0.332125
     7  C   -0.302057
     8  C    0.322207
     9  C   -0.492027
    10  H    0.113280
    11  H    0.131330
    12  H    0.106706
    13  H    0.078357
    14  H    0.140861
    15  H    0.124412
    16  H    0.111734
    17  H    0.157886
    18  H    0.130697
    19  H    0.134727
 Sum of Mulliken charges =   0.00000

 Dipole moment (field-independent basis, Debye):
    X=              3.4397    Y=              1.1321    Z=              0.9607  Tot=              3.7464
 Quadrupole moment (field-independent basis, Debye-Ang):
   XX=            -61.8131   YY=            -49.6675   ZZ=            -52.7531
   XY=             -6.6996   XZ=              0.8760   YZ=             -0.3021

  Exact polarizability: 101.531   5.242  85.132   3.560  -0.548  55.382
 Approx polarizability: 155.522  18.693 117.508   7.092  -0.297  88.254

                      1                      2                      3
                      A                      A                      A
 Frequencies --     68.1903               103.4616               140.7822
 Red. masses --      2.9255                 2.5243                 1.6578
 Frc consts  --      0.0080                 0.0159                 0.0194
 IR Inten    --      3.3100                 2.6058                 0.1103

                      4                      5                      6
                      A                      A                      A
 Frequencies --    176.6680               181.7878               220.7796
 Red. masses --      1.4774                 1.6268                 1.9171
 Frc consts  --      0.0272                 0.0317                 0.0551
 IR Inten    --      0.9250                 1.2919                 5.0137

                      7                      8                      9
                      A                      A                      A
 Frequencies --    273.8282               369.5151               407.4457
 Red. masses --      3.0147                 3.1464                 4.2430
 Frc consts  --      0.1332                 0.2531                 0.4150
 IR Inten    --      0.9914                 1.3124                 7.0361

                     10                     11                     12
                      A                      A                      A
 Frequencies --    508.9927               538.1967               557.6070
 Red. masses --      2.4198                 3.4210                 3.0159
 Frc consts  --      0.3694                 0.5838                 0.5525
 IR Inten    --      1.7132                 0.2587                 2.4322

                     13                     14                     15
                      A                      A                      A
 Frequencies --    571.9970               672.1297               828.4299
 Red. masses --      5.5240                 3.5409                 3.1263
 Frc consts  --      1.0649                 0.9425                 1.2641
 IR Inten    --      0.7551                 4.4939                10.0390

                     16                     17                     18
                      A                      A                      A
 Frequencies --    845.0421               883.4507               953.1655
 Red. masses --      2.8856                 1.3251                 2.4580
 Frc consts  --      1.2141                 0.6093                 1.3158
 IR Inten    --      5.4578                 7.5425                 6.2435

                     19                     20                     21
                      A                      A                      A
 Frequencies --    993.6338              1013.1219              1046.6336
 Red. masses --      1.9087                 2.8702                 1.8008
 Frc consts  --      1.1103                 1.7358                 1.1623
 IR Inten    --      6.9384                29.2679                 7.2719

                     22                     23                     24
                      A                      A                      A
 Frequencies --   1065.3522              1140.6341              1153.7107
 Red. masses --      1.9189                 4.4261                 1.8467
 Frc consts  --      1.2832                 3.3928                 1.4482
 IR Inten    --      0.4085               124.1385                18.1453

                     25                     26                     27
                      A                      A                      A
 Frequencies --   1182.0748              1184.4926              1191.0564
 Red. masses --      1.4468                 1.6080                 1.6690
 Frc consts  --      1.1911                 1.3293                 1.3950
 IR Inten    --     11.5309                12.8611                50.4440

                     28                     29                     30
                      A                      A                      A
 Frequencies --   1219.1202              1253.1657              1300.7095
 Red. masses --      1.6455                 1.7186                 1.9432
 Frc consts  --      1.4410                 1.5902                 1.9370
 IR Inten    --     43.0436                21.8944                38.9568

                     31                     32                     33
                      A                      A                      A
 Frequencies --   1343.0636              1374.4124              1405.9284
 Red. masses --      1.8197                 1.4084                 1.3107
 Frc consts  --      1.9340                 1.5675                 1.5265
 IR Inten    --      2.9735                48.7071                 6.6831

                     34                     35                     36
                      A                      A                      A
 Frequencies --   1446.4203              1472.0241              1478.7043
 Red. masses --      1.0910                 1.0479                 1.0982
 Frc consts  --      1.3448                 1.3378                 1.4148
 IR Inten    --      3.0805                 7.2401                 4.4575

                     37                     38                     39
                      A                      A                      A
 Frequencies --   1480.7537              1487.9668              1509.3160
 Red. masses --      1.0907                 1.0715                 1.0603
 Frc consts  --      1.4091                 1.3978                 1.4230
 IR Inten    --     16.6520                 2.3818                 7.0105

                     40                     41                     42
                      A                      A                      A
 Frequencies --   1687.7170              1815.6086              2937.0309
 Red. masses --      7.3002                12.3901                 1.0809
 Frc consts  --     12.2514                24.0641                 5.4934
 IR Inten    --     62.8437               315.8537                36.9579

                     43                     44                     45
                      A                      A                      A
 Frequencies --   2977.8865              3028.6790              3029.6921
 Red. masses --      1.0384                 1.0986                 1.0428
 Frc consts  --      5.4255                 5.9373                 5.6396
 IR Inten    --     60.0884                34.2544                23.5167

                     46                     47                     48
                      A                      A                      A
 Frequencies --   3061.0947              3087.9948              3115.3187
 Red. masses --      1.0618                 1.0926                 1.1017
 Frc consts  --      5.8619                 6.1383                 6.2997
 IR Inten    --      5.7046                 7.3916                 6.8995

                     49                     50                     51
                      A                      A                      A
 Frequencies --   3118.7688              3130.4702              3212.0209
 Red. masses --      1.0968                 1.1020                 1.0958
 Frc consts  --      6.2853                 6.3630                 6.6610
 IR Inten    --     28.1871                13.7434                 4.9108

 - Thermochemistry -
 -------------------
 Temperature   298.150 Kelvin.  Pressure   1.00000 Atm.
 Atom     1 has atomic number  6 and mass  12.00000

 Molecular mass:   126.06808 amu.
 Principal axes and moments of inertia in atomic units:
                           1         2         3
     Eigenvalues --   743.808711384.448622039.55993
           X            0.99887  -0.04721   0.00571
           Y            0.04724   0.99887  -0.00499
           Z           -0.00546   0.00526   0.99997
 This molecule is an asymmetric top.
 Rotational symmetry number  1.
 Warning -- assumption of classical behavior for rotation
           may cause significant error
 Rotational temperatures (Kelvin)      0.11645     0.06256     0.04247
 Rotational constants (GHZ):           2.42635     1.30358     0.88487
 Zero-point vibrational energy     414183.3 (Joules/Mol)
                                   98.99219 (Kcal/Mol)
 Warning -- explicit consideration of  13 degrees of freedom as
           vibrations may cause significant error
 Vibrational temperatures:     98.11   148.86   202.55   254.19   261.55
          (Kelvin)            317.65   393.98   531.65   586.22   732.33
                              774.34   802.27   822.98   967.04  1191.92
                             1215.83  1271.09  1371.39  1429.62  1457.65
                             1505.87  1532.80  1641.12  1659.93  1700.74
                             1704.22  1713.66  1754.04  1803.02  1871.43
                             1932.37  1977.47  2022.81  2081.07  2117.91
                             2127.52  2130.47  2140.85  2171.57  2428.25
                             2612.25  4225.73  4284.51  4357.59  4359.05
                             4404.23  4442.93  4482.24  4487.21  4504.04
                             4621.38

 Zero-point correction=                           0.157754 (Hartree/Particle)
 Thermal correction to Energy=                    0.167051
 Thermal correction to Enthalpy=                  0.167995
 Thermal correction to Gibbs Free Energy=         0.123261
 Sum of electronic and zero-point Energies=           -423.061383
 Sum of electronic and thermal Energies=              -423.052086
 Sum of electronic and thermal Enthalpies=            -423.051142
 Sum of electronic and thermal Free Energies=         -423.095876

                     E (Thermal)             CV                S
                      KCal/Mol        Cal/Mol-Kelvin    Cal/Mol-Kelvin
 Total                  104.826             33.601             94.150
 Electronic               0.000              0.000              0.000
 Translational            0.889              2.981             40.409
 Rotational               0.889              2.981             29.131
 Vibrational            103.049             27.639             24.611
 Vibration     1          0.598              1.969              4.205
 Vibration     2          0.605              1.946              3.388
 Vibration     3          0.615              1.913              2.793
 Vibration     4          0.628              1.871              2.363
 Vibration     5          0.630              1.865              2.310
 Vibration     6          0.647              1.809              1.953
 Vibration     7          0.676              1.722              1.572
 Vibration     8          0.742              1.535              1.082
 Vibration     9          0.772              1.454              0.936
 Vibration    10          0.864              1.230              0.636
 Vibration    11          0.893              1.166              0.569
 Vibration    12          0.913              1.123              0.529
 Vibration    13          0.928              1.092              0.500

 Optimization completed.
    -- Stationary point found.
 Normal termination of Gaussian 09 at Tue Jan 28 15:07:16 2020.
