 Gaussian 09, Revision D.01,
 Gaussian 09:  ES64L-G09RevD.01 24-Apr-2013

 -----------------------------
 # b3lyp 6-31G(2df,p) opt Freq
 -----------------------------

 -----
 titel
 -----
 Symbolic Z-matrix:
 Charge =  0 Multiplicity = 1

 SCF Done:  E(RB3LYP) =  -423.150219179     A.U. after   14 cycles
 Optimization completed.
    -- Stationary point found.
 Normal termination of Gaussian 09 at Mon Jan 27 11:30:25 2020.

 ----------------------------------------------------------------------
 #N Geom=AllCheck Guess=TCheck SCRF=Check GenChk RB3LYP/6-31G(2df,p) Fr
 eq
 ----------------------------------------------------------------------

 Structure from the checkpoint file:  "/scratch/puck/g09_1ff9a2a0-caa2-434c-8bb3-f134c882b230/Gau-61584.chk"
 -----
 titel
 -----
 Charge =  0 Multiplicity = 1

                         Standard orientation:
 ---------------------------------------------------------------------
 Center     Atomic      Atomic             Coordinates (Angstroms)
 Number     Number       Type             X           Y           Z
 ---------------------------------------------------------------------
      1          6           0       -1.905243    0.000015   -1.095871
      2          8           0       -2.320530   -0.000007    0.285943
      3          6           0       -0.941492   -0.000001   -0.003134
      4          6           0        0.035781   -1.021110    0.566290
      5          6           0        1.162460   -1.294918   -0.442521
      6          6           0        1.998085    0.000009   -0.621196
      7          6           0        1.162456    1.294928   -0.442496
      8          6           0        0.035779    1.021097    0.566315
      9          8           0        0.486554   -0.000017    1.512645
     10          1           0       -2.113114   -0.919336   -1.642130
     11          1           0       -2.113113    0.919382   -1.642101
     12          1           0       -0.368051   -1.906203    1.063742
     13          1           0        1.809375   -2.104347   -0.089885
     14          1           0        0.721844   -1.630131   -1.389181
     15          1           0        2.772907    0.000002    0.148286
     16          1           0        2.511853    0.000020   -1.586551
     17          1           0        1.809369    2.104356   -0.089856
     18          1           0        0.721832    1.630150   -1.389149
     19          1           0       -0.368051    1.906178    1.063789
 ---------------------------------------------------------------------

 SCF Done:  E(RB3LYP) =  -423.150219179     A.U. after    1 cycles

 The electronic state is 1-A.
 Alpha  occ. eigenvalues --  -19.15529 -19.13302 -10.24196 -10.23821 -10.23553
 Alpha  occ. eigenvalues --  -10.23553 -10.18805 -10.18804 -10.18695  -1.08067
 Alpha  occ. eigenvalues --   -1.03583  -0.79902  -0.74976  -0.71274  -0.66465
 Alpha  occ. eigenvalues --   -0.61884  -0.60257  -0.52511  -0.51625  -0.49982
 Alpha  occ. eigenvalues --   -0.48533  -0.44332  -0.43714  -0.40718  -0.39717
 Alpha  occ. eigenvalues --   -0.38273  -0.37315  -0.36339  -0.35555  -0.32242
 Alpha  occ. eigenvalues --   -0.31790  -0.29120  -0.26067  -0.24891
 Alpha virt. eigenvalues --    0.07001   0.08364   0.09149   0.11418   0.12773
 Alpha virt. eigenvalues --    0.13516   0.14271   0.14327   0.15145   0.15799
 Alpha virt. eigenvalues --    0.16276   0.17499   0.18126   0.22120   0.22437

 Mulliken charges:
               1
     1  C   -0.291996
     2  O   -0.293318
     3  C    0.506438
     4  C   -0.014667
     5  C   -0.227341
     6  C   -0.183455
     7  C   -0.227342
     8  C   -0.014667
     9  O   -0.301887
    10  H    0.118294
    11  H    0.118294
    12  H    0.091798
    13  H    0.105572
    14  H    0.100203
    15  H    0.121411
    16  H    0.095090
    17  H    0.105571
    18  H    0.100203
    19  H    0.091798
 Sum of Mulliken charges =   0.00000

 Dipole moment (field-independent basis, Debye):
    X=              1.0267    Y=              0.0000    Z=             -2.6090  Tot=              2.8038
 Quadrupole moment (field-independent basis, Debye-Ang):
   XX=            -56.8244   YY=            -49.1962   ZZ=            -55.0289
   XY=              0.0000   XZ=              2.0711   YZ=              0.0001

  Exact polarizability:  78.093   0.000  74.222   2.964   0.000  68.381
 Approx polarizability: 106.130   0.000 105.776   4.744   0.000 109.684

                      1                      2                      3
                      A                      A                      A
 Frequencies --    125.0615               203.6687               210.9040
 Red. masses --      2.8912                 2.0043                 2.2509
 Frc consts  --      0.0266                 0.0490                 0.0590
 IR Inten    --      0.2605                 0.7875                 0.5447

                      4                      5                      6
                      A                      A                      A
 Frequencies --    285.2567               373.0408               410.6698
 Red. masses --      4.2520                 2.3162                 5.6435
 Frc consts  --      0.2039                 0.1899                 0.5608
 IR Inten    --      3.5118                 1.5281                 4.4135

                      7                      8                      9
                      A                      A                      A
 Frequencies --    445.7601               566.3544               596.6085
 Red. masses --      4.5285                 5.4148                 3.5135
 Frc consts  --      0.5302                 1.0233                 0.7368
 IR Inten    --      5.5365                 0.9609                 9.6117

                     10                     11                     12
                      A                      A                      A
 Frequencies --    668.0564               782.1241               832.9688
 Red. masses --      2.0331                 2.4177                 1.5294
 Frc consts  --      0.5346                 0.8714                 0.6252
 IR Inten    --      6.9576                 3.7977                 6.3837

                     13                     14                     15
                      A                      A                      A
 Frequencies --    852.5839               859.0683               879.6533
 Red. masses --      3.1983                 3.6780                 2.9579
 Frc consts  --      1.3698                 1.5993                 1.3485
 IR Inten    --      5.3176                18.4745                 4.8873

                     16                     17                     18
                      A                      A                      A
 Frequencies --    913.6196               917.4446               952.9799
 Red. masses --      3.5038                 1.5339                 2.9247
 Frc consts  --      1.7232                 0.7607                 1.5649
 IR Inten    --     26.2089                 9.0339                46.5033

                     19                     20                     21
                      A                      A                      A
 Frequencies --    965.3999              1006.4174              1059.8198
 Red. masses --      6.1478                 2.1434                 1.8971
 Frc consts  --      3.3759                 1.2791                 1.2554
 IR Inten    --     48.1861                 1.0137                 3.5240

                     22                     23                     24
                      A                      A                      A
 Frequencies --   1059.9853              1106.8574              1119.6804
 Red. masses --      2.1727                 1.1619                 2.8509
 Frc consts  --      1.4383                 0.8387                 2.1058
 IR Inten    --      1.4440                 0.0878                 9.3771

                     25                     26                     27
                      A                      A                      A
 Frequencies --   1122.3044              1159.9647              1186.1322
 Red. masses --      1.2403                 1.5627                 1.7413
 Frc consts  --      0.9204                 1.2388                 1.4434
 IR Inten    --      2.4804                 2.7770                 0.0199

                     28                     29                     30
                      A                      A                      A
 Frequencies --   1196.9747              1228.6335              1267.3108
 Red. masses --      1.4898                 1.3565                 1.6028
 Frc consts  --      1.2576                 1.2064                 1.5167
 IR Inten    --      0.0001                 1.3857                 0.0020

                     31                     32                     33
                      A                      A                      A
 Frequencies --   1302.8072              1307.9968              1312.0724
 Red. masses --      1.6872                 1.3855                 1.4648
 Frc consts  --      1.6872                 1.3966                 1.4857
 IR Inten    --      9.5306                 0.3310                 7.7138

                     34                     35                     36
                      A                      A                      A
 Frequencies --   1341.4245              1366.6282              1374.8019
 Red. masses --      1.3177                 1.4448                 1.2999
 Frc consts  --      1.3970                 1.5898                 1.4476
 IR Inten    --      0.1103                 3.8622                 1.6169

                     37                     38                     39
                      A                      A                      A
 Frequencies --   1464.7398              1481.2688              1487.7666
 Red. masses --      1.5826                 1.0876                 1.0857
 Frc consts  --      2.0005                 1.4060                 1.4159
 IR Inten    --     10.8322                 0.7596                 1.8995

                     40                     41                     42
                      A                      A                      A
 Frequencies --   1500.7934              1552.6435              3034.4078
 Red. masses --      1.0962                 2.2670                 1.0613
 Frc consts  --      1.4547                 3.2199                 5.7573
 IR Inten    --      3.4000                14.7552                38.1755

                     43                     44                     45
                      A                      A                      A
 Frequencies --   3034.6807              3063.7508              3074.4240
 Red. masses --      1.0620                 1.0685                 1.0937
 Frc consts  --      5.7625                 5.9093                 6.0908
 IR Inten    --     12.6433                17.6851                50.3122

                     46                     47                     48
                      A                      A                      A
 Frequencies --   3076.0791              3080.5581              3089.9287
 Red. masses --      1.1009                 1.0506                 1.0881
 Frc consts  --      6.1377                 5.8744                 6.1210
 IR Inten    --      0.9384                18.9274                65.1854

                     49                     50                     51
                      A                      A                      A
 Frequencies --   3092.4047              3111.4152              3165.2680
 Red. masses --      1.0921                 1.1037                 1.1188
 Frc consts  --      6.1532                 6.2952                 6.6043
 IR Inten    --      9.7066                33.8497                18.7893

 - Thermochemistry -
 -------------------
 Temperature   298.150 Kelvin.  Pressure   1.00000 Atm.
 Atom     1 has atomic number  6 and mass  12.00000

 Molecular mass:   126.06808 amu.
 Principal axes and moments of inertia in atomic units:
                           1         2         3
     Eigenvalues --   613.732141209.068091227.96671
           X            1.00000   0.00000   0.00010
           Y            0.00000   1.00000   0.00001
           Z           -0.00010  -0.00001   1.00000
 This molecule is an asymmetric top.
 Rotational symmetry number  1.
 Warning -- assumption of classical behavior for rotation
           may cause significant error
 Rotational temperatures (Kelvin)      0.14113     0.07164     0.07053
 Rotational constants (GHZ):           2.94060     1.49267     1.46970
 Zero-point vibrational energy     422707.4 (Joules/Mol)
                                  101.02950 (Kcal/Mol)
 Warning -- explicit consideration of   9 degrees of freedom as
           vibrations may cause significant error
 Vibrational temperatures:    179.94   293.03   303.44   410.42   536.72
          (Kelvin)            590.86   641.35   814.86   858.39   961.18
                             1125.30  1198.45  1226.68  1236.01  1265.62
                             1314.49  1320.00  1371.12  1388.99  1448.01
                             1524.84  1525.08  1592.52  1610.97  1614.74
                             1668.93  1706.58  1722.18  1767.73  1823.38
                             1874.45  1881.91  1887.78  1930.01  1966.27
                             1978.03  2107.43  2131.21  2140.56  2159.30
                             2233.90  4365.83  4366.22  4408.05  4423.40
                             4425.79  4432.23  4445.71  4449.28  4476.63
                             4554.11

 Zero-point correction=                           0.161001 (Hartree/Particle)
 Thermal correction to Energy=                    0.168287
 Thermal correction to Enthalpy=                  0.169231
 Thermal correction to Gibbs Free Energy=         0.129476
 Sum of electronic and zero-point Energies=           -422.989218
 Sum of electronic and thermal Energies=              -422.981932
 Sum of electronic and thermal Enthalpies=            -422.980988
 Sum of electronic and thermal Free Energies=         -423.020743

                     E (Thermal)             CV                S
                      KCal/Mol        Cal/Mol-Kelvin    Cal/Mol-Kelvin
 Total                  105.602             29.353             83.671
 Electronic               0.000              0.000              0.000
 Translational            0.889              2.981             40.409
 Rotational               0.889              2.981             28.301
 Vibrational            103.824             23.391             14.962
 Vibration     1          0.610              1.928              3.021
 Vibration     2          0.639              1.835              2.100
 Vibration     3          0.643              1.824              2.036
 Vibration     4          0.683              1.701              1.502
 Vibration     5          0.744              1.527              1.067
 Vibration     6          0.775              1.447              0.924
 Vibration     7          0.805              1.370              0.809
 Vibration     8          0.922              1.104              0.511
 Vibration     9          0.954              1.039              0.456

 Optimization completed.
    -- Stationary point found.
 Normal termination of Gaussian 09 at Mon Jan 27 13:41:31 2020.
