 Gaussian 09, Revision D.01,
 Gaussian 09:  ES64L-G09RevD.01 24-Apr-2013

 -----------------------------
 # b3lyp 6-31G(2df,p) opt Freq
 -----------------------------

 -----
 titel
 -----
 Symbolic Z-matrix:
 Charge =  0 Multiplicity = 1

 SCF Done:  E(RB3LYP) =  -423.190955695     A.U. after   14 cycles
 Optimization completed.
    -- Stationary point found.
 Normal termination of Gaussian 09 at Mon Jan 27 13:16:01 2020.

 ----------------------------------------------------------------------
 #N Geom=AllCheck Guess=TCheck SCRF=Check GenChk RB3LYP/6-31G(2df,p) Fr
 eq
 ----------------------------------------------------------------------

 Structure from the checkpoint file:  "/scratch/puck/g09_be9694eb-0a49-4e4c-b8fc-dbfeb7d93e9a/Gau-169401.chk"
 -----
 titel
 -----
 Charge =  0 Multiplicity = 1

                         Standard orientation:
 ---------------------------------------------------------------------
 Center     Atomic      Atomic             Coordinates (Angstroms)
 Number     Number       Type             X           Y           Z
 ---------------------------------------------------------------------
      1          8           0       -2.474852   -0.512642   -0.798280
      2          6           0       -1.888356   -0.356158    0.242897
      3          6           0       -0.424828   -0.040840    0.372868
      4          6           0       -0.119938    1.332037    1.062627
      5          6           0        0.631100    1.796446   -0.218895
      6          6           0        0.346950    0.425503   -0.900043
      7          8           0        1.460044   -0.430876   -1.067961
      8          6           0        1.761793   -1.008752    0.194632
      9          6           0        0.401700   -1.242309    0.877524
     10          1           0       -2.427049   -0.432058    1.217512
     11          1           0       -1.012404    1.915384    1.305320
     12          1           0        0.492485    1.257069    1.965061
     13          1           0        0.173339    2.647707   -0.727295
     14          1           0        1.695747    2.001076   -0.086574
     15          1           0       -0.205971    0.454690   -1.839065
     16          1           0        2.325602   -1.928295    0.018713
     17          1           0        2.388585   -0.334859    0.800317
     18          1           0       -0.036655   -2.179248    0.518842
     19          1           0        0.474265   -1.288874    1.967429
 ---------------------------------------------------------------------

 SCF Done:  E(RB3LYP) =  -423.190955695     A.U. after    1 cycles

 The electronic state is 1-A.
 Alpha  occ. eigenvalues --  -19.14253 -19.14235 -10.27223 -10.23527 -10.22970
 Alpha  occ. eigenvalues --  -10.20321 -10.20037 -10.19719 -10.18612  -1.04998
 Alpha  occ. eigenvalues --   -1.04134  -0.84862  -0.77363  -0.69933  -0.66535
 Alpha  occ. eigenvalues --   -0.61178  -0.59288  -0.53940  -0.51905  -0.48301
 Alpha  occ. eigenvalues --   -0.47111  -0.44756  -0.44145  -0.42376  -0.41244
 Alpha  occ. eigenvalues --   -0.39845  -0.37345  -0.36440  -0.35120  -0.34207
 Alpha  occ. eigenvalues --   -0.31695  -0.29747  -0.25536  -0.24921
 Alpha virt. eigenvalues --   -0.02456   0.07702   0.08176   0.10813   0.11515
 Alpha virt. eigenvalues --    0.12508   0.13537   0.14379   0.15230   0.16091
 Alpha virt. eigenvalues --    0.17354   0.18520   0.19646   0.21224   0.21746

 Mulliken charges:
               1
     1  O   -0.247508
     2  C    0.065370
     3  C    0.236728
     4  C   -0.302385
     5  C   -0.243199
     6  C    0.076528
     7  O   -0.254054
     8  C   -0.090691
     9  C   -0.298613
    10  H    0.073768
    11  H    0.110886
    12  H    0.104862
    13  H    0.111104
    14  H    0.112297
    15  H    0.102440
    16  H    0.117049
    17  H    0.094140
    18  H    0.122249
    19  H    0.109030
 Sum of Mulliken charges =   0.00000

 Dipole moment (field-independent basis, Debye):
    X=              1.1678    Y=              0.5389    Z=              2.9262  Tot=              3.1964
 Quadrupole moment (field-independent basis, Debye-Ang):
   XX=            -59.0055   YY=            -50.7083   ZZ=            -54.7659
   XY=             -2.0983   XZ=             -1.1950   YZ=             -2.3351

  Exact polarizability:  79.628  -0.533  73.639   1.786  -1.143  71.180
 Approx polarizability: 112.061   0.071 102.893   7.108   1.065 115.010

                      1                      2                      3
                      A                      A                      A
 Frequencies --     35.5983                86.1090               175.9993
 Red. masses --      4.2834                 2.2622                 3.9269
 Frc consts  --      0.0032                 0.0099                 0.0717
 IR Inten    --      4.4706                 0.6166                 4.1161

                      4                      5                      6
                      A                      A                      A
 Frequencies --    221.3596               277.8948               325.3324
 Red. masses --      2.4829                 2.1475                 2.1415
 Frc consts  --      0.0717                 0.0977                 0.1335
 IR Inten    --      1.7836                 0.1703                 1.1130

                      7                      8                      9
                      A                      A                      A
 Frequencies --    415.6947               498.6592               591.6812
 Red. masses --      3.0114                 3.7519                 3.8117
 Frc consts  --      0.3066                 0.5497                 0.7862
 IR Inten    --      8.9268                 0.1721                 8.8451

                     10                     11                     12
                      A                      A                      A
 Frequencies --    651.5382               692.1020               745.4284
 Red. masses --      2.7125                 3.6508                 1.3071
 Frc consts  --      0.6784                 1.0303                 0.4279
 IR Inten    --      6.6325                 7.3705                 2.1307

                     13                     14                     15
                      A                      A                      A
 Frequencies --    820.9575               838.5903               892.5703
 Red. masses --      2.1959                 2.2566                 2.1615
 Frc consts  --      0.8720                 0.9350                 1.0146
 IR Inten    --      7.0313                12.3202                11.5589

                     16                     17                     18
                      A                      A                      A
 Frequencies --    927.0654               948.4615               959.6016
 Red. masses --      2.5465                 2.7735                 2.1121
 Frc consts  --      1.2895                 1.4700                 1.1459
 IR Inten    --      3.2510                 2.3428                 3.1240

                     19                     20                     21
                      A                      A                      A
 Frequencies --    965.4826              1002.9493              1018.9608
 Red. masses --      2.0333                 2.7705                 1.7504
 Frc consts  --      1.1167                 1.6420                 1.0708
 IR Inten    --      8.6525                17.8064                 0.8574

                     22                     23                     24
                      A                      A                      A
 Frequencies --   1064.5222              1129.4447              1149.2502
 Red. masses --      2.6037                 3.0030                 2.1928
 Frc consts  --      1.7384                 2.2570                 1.7064
 IR Inten    --     38.3024                20.2513                37.4391

                     25                     26                     27
                      A                      A                      A
 Frequencies --   1168.6435              1190.3029              1215.5805
 Red. masses --      2.7205                 2.2509                 1.4239
 Frc consts  --      2.1891                 1.8790                 1.2397
 IR Inten    --     26.6417                17.8099                 3.8231

                     28                     29                     30
                      A                      A                      A
 Frequencies --   1223.8023              1242.3825              1253.9096
 Red. masses --      1.3799                 1.2961                 1.3562
 Frc consts  --      1.2177                 1.1787                 1.2563
 IR Inten    --      1.1386                 3.2632                 0.4095

                     31                     32                     33
                      A                      A                      A
 Frequencies --   1267.7145              1282.0389              1337.9716
 Red. masses --      1.4318                 1.5444                 1.4546
 Frc consts  --      1.3558                 1.4956                 1.5342
 IR Inten    --      2.4949                 5.7462                 3.6900

                     34                     35                     36
                      A                      A                      A
 Frequencies --   1358.7377              1391.4769              1423.2462
 Red. masses --      1.3090                 1.3602                 1.2218
 Frc consts  --      1.4239                 1.5517                 1.4582
 IR Inten    --      4.0588                10.2883                 8.4833

                     37                     38                     39
                      A                      A                      A
 Frequencies --   1470.1603              1482.5152              1490.6695
 Red. masses --      1.0847                 1.0969                 1.1088
 Frc consts  --      1.3813                 1.4205                 1.4517
 IR Inten    --      0.6220                 4.0240                 3.1689

                     40                     41                     42
                      A                      A                      A
 Frequencies --   1521.8699              1819.8524              2847.2078
 Red. masses --      1.0924                10.8449                 1.0814
 Frc consts  --      1.4907                21.1617                 5.1652
 IR Inten    --      0.8830               170.2787               123.2013

                     43                     44                     45
                      A                      A                      A
 Frequencies --   2976.8669              3050.5005              3053.6488
 Red. masses --      1.0718                 1.0604                 1.0580
 Frc consts  --      5.5959                 5.8137                 5.8125
 IR Inten    --     52.5037                17.2745                31.2558

                     46                     47                     48
                      A                      A                      A
 Frequencies --   3071.1549              3095.5732              3099.7121
 Red. masses --      1.0596                 1.0915                 1.1080
 Frc consts  --      5.8882                 6.1626                 6.2726
 IR Inten    --     25.3038                32.1660                 7.9610

                     49                     50                     51
                      A                      A                      A
 Frequencies --   3106.9800              3116.0770              3130.2911
 Red. masses --      1.1051                 1.0918                 1.1051
 Frc consts  --      6.2853                 6.2463                 6.3801
 IR Inten    --     24.9448                 6.0732                30.4972

 - Thermochemistry -
 -------------------
 Temperature   298.150 Kelvin.  Pressure   1.00000 Atm.
 Atom     1 has atomic number  8 and mass  15.99491

 Molecular mass:   126.06808 amu.
 Principal axes and moments of inertia in atomic units:
                           1         2         3
     Eigenvalues --   745.227261157.189371331.72847
           X            0.99981  -0.01950  -0.00040
           Y            0.01946   0.99865  -0.04814
           Z            0.00134   0.04812   0.99884
 This molecule is an asymmetric top.
 Rotational symmetry number  1.
 Warning -- assumption of classical behavior for rotation
           may cause significant error
 Rotational temperatures (Kelvin)      0.11622     0.07485     0.06504
 Rotational constants (GHZ):           2.42173     1.55959     1.35519
 Zero-point vibrational energy     419435.5 (Joules/Mol)
                                  100.24749 (Kcal/Mol)
 Warning -- explicit consideration of   9 degrees of freedom as
           vibrations may cause significant error
 Vibrational temperatures:     51.22   123.89   253.22   318.49   399.83
          (Kelvin)            468.08   598.09   717.46   851.30   937.42
                              995.78  1072.50  1181.17  1206.54  1284.21
                             1333.84  1364.62  1380.65  1389.11  1443.02
                             1466.06  1531.61  1625.02  1653.51  1681.42
                             1712.58  1748.95  1760.78  1787.51  1804.09
                             1823.96  1844.57  1925.04  1954.92  2002.02
                             2047.73  2115.23  2133.01  2144.74  2189.63
                             2618.36  4096.49  4283.04  4388.98  4393.51
                             4418.70  4453.83  4459.79  4470.25  4483.33
                             4503.79

 Zero-point correction=                           0.159755 (Hartree/Particle)
 Thermal correction to Energy=                    0.167900
 Thermal correction to Enthalpy=                  0.168844
 Thermal correction to Gibbs Free Energy=         0.126057
 Sum of electronic and zero-point Energies=           -423.031201
 Sum of electronic and thermal Energies=              -423.023056
 Sum of electronic and thermal Enthalpies=            -423.022111
 Sum of electronic and thermal Free Energies=         -423.064898

                     E (Thermal)             CV                S
                      KCal/Mol        Cal/Mol-Kelvin    Cal/Mol-Kelvin
 Total                  105.359             30.460             90.053
 Electronic               0.000              0.000              0.000
 Translational            0.889              2.981             40.409
 Rotational               0.889              2.981             28.531
 Vibrational            103.581             24.499             21.113
 Vibration     1          0.594              1.982              5.490
 Vibration     2          0.601              1.959              3.747
 Vibration     3          0.628              1.872              2.370
 Vibration     4          0.648              1.809              1.948
 Vibration     5          0.679              1.714              1.547
 Vibration     6          0.709              1.625              1.283
 Vibration     7          0.779              1.436              0.907
 Vibration     8          0.854              1.253              0.661
 Vibration     9          0.949              1.050              0.464

 Optimization completed.
    -- Stationary point found.
 Normal termination of Gaussian 09 at Mon Jan 27 14:02:20 2020.
