 Gaussian 09, Revision D.01,
 Gaussian 09:  ES64L-G09RevD.01 24-Apr-2013

 -----------------------------
 # b3lyp 6-31G(2df,p) opt Freq
 -----------------------------

 -----
 titel
 -----
 Symbolic Z-matrix:
 Charge =  0 Multiplicity = 1

 SCF Done:  E(RB3LYP) =  -423.215799003     A.U. after   14 cycles
 SCF Done:  E(RB3LYP) =  -423.215794300     A.U. after    8 cycles
 SCF Done:  E(RB3LYP) =  -423.215799331     A.U. after    7 cycles
 Optimization completed.
    -- Stationary point found.
 Normal termination of Gaussian 09 at Tue Jan 28 14:19:35 2020.

 ----------------------------------------------------------------------
 #N Geom=AllCheck Guess=TCheck SCRF=Check GenChk RB3LYP/6-31G(2df,p) Fr
 eq
 ----------------------------------------------------------------------

 Structure from the checkpoint file:  "/scratch/puck/g09_ca8209da-5f34-4ecd-8c87-9ca9de3d6872/Gau-144511.chk"
 -----
 titel
 -----
 Charge =  0 Multiplicity = 1

                         Standard orientation:
 ---------------------------------------------------------------------
 Center     Atomic      Atomic             Coordinates (Angstroms)
 Number     Number       Type             X           Y           Z
 ---------------------------------------------------------------------
      1          6           0       -3.522437   -0.047188    0.000009
      2          8           0       -2.193140   -0.511680    0.000065
      3          6           0       -1.250760    0.534242   -0.000053
      4          6           0        0.131224   -0.027287   -0.000026
      5          6           0        0.515478   -1.309986   -0.000027
      6          6           0        2.013959   -1.485072    0.000000
      7          6           0        2.562610   -0.044503    0.000020
      8          6           0        1.320624    0.857957    0.000005
      9          8           0        1.310192    2.069165    0.000015
     10          1           0       -3.742164    0.560725   -0.891674
     11          1           0       -4.174451   -0.923797    0.000115
     12          1           0       -3.742164    0.560939    0.891546
     13          1           0       -1.382359    1.188813   -0.879697
     14          1           0       -1.382319    1.188988    0.879464
     15          1           0       -0.169171   -2.149913   -0.000044
     16          1           0        2.340979   -2.059948    0.875054
     17          1           0        2.341013   -2.059936   -0.875049
     18          1           0        3.175003    0.182633    0.877561
     19          1           0        3.175037    0.182650   -0.877492
 ---------------------------------------------------------------------

 SCF Done:  E(RB3LYP) =  -423.215799331     A.U. after    1 cycles

 The electronic state is 1-A.
 Alpha  occ. eigenvalues --  -19.14604 -19.11796 -10.25856 -10.23560 -10.22787
 Alpha  occ. eigenvalues --  -10.20329 -10.19915 -10.19078 -10.18949  -1.04008
 Alpha  occ. eigenvalues --   -1.02765  -0.85088  -0.76234  -0.69966  -0.68202
 Alpha  occ. eigenvalues --   -0.64073  -0.57182  -0.51395  -0.48682  -0.48277
 Alpha  occ. eigenvalues --   -0.47627  -0.46853  -0.43565  -0.40886  -0.40829
 Alpha  occ. eigenvalues --   -0.39145  -0.38859  -0.36824  -0.36238  -0.34852
 Alpha  occ. eigenvalues --   -0.32474  -0.26739  -0.25472  -0.23712
 Alpha virt. eigenvalues --   -0.03772   0.05912   0.08716   0.09726   0.13012
 Alpha virt. eigenvalues --    0.13815   0.13889   0.15032   0.15740   0.16548
 Alpha virt. eigenvalues --    0.16903   0.19103   0.19384   0.19862   0.22296

 Mulliken charges:
               1
     1  C   -0.224348
     2  O   -0.238129
     3  C   -0.156809
     4  C    0.168438
     5  C   -0.141885
     6  C   -0.268123
     7  C   -0.329176
     8  C    0.327252
     9  O   -0.336617
    10  H    0.107969
    11  H    0.127999
    12  H    0.107970
    13  H    0.110892
    14  H    0.110895
    15  H    0.124118
    16  H    0.120706
    17  H    0.120706
    18  H    0.134071
    19  H    0.134071
 Sum of Mulliken charges =   0.00000

 Dipole moment (field-independent basis, Debye):
    X=             -0.5654    Y=             -2.3422    Z=             -0.0002  Tot=              2.4095
 Quadrupole moment (field-independent basis, Debye-Ang):
   XX=            -45.8636   YY=            -58.7105   ZZ=            -52.2998
   XY=             -6.3853   XZ=              0.0002   YZ=              0.0000

  Exact polarizability:  96.326  -4.504  89.268   0.000   0.000  55.259
 Approx polarizability: 113.895  -5.881 157.923   0.000   0.000  85.320

                      1                      2                      3
                      A                      A                      A
 Frequencies --     60.0815                79.0071               101.3289
 Red. masses --      2.3187                 2.6162                 2.1806
 Frc consts  --      0.0049                 0.0096                 0.0132
 IR Inten    --      4.0077                 4.8156                 0.8573

                      4                      5                      6
                      A                      A                      A
 Frequencies --    124.2255               220.7650               233.5200
 Red. masses --      4.0978                 1.5638                 1.5225
 Frc consts  --      0.0373                 0.0449                 0.0489
 IR Inten    --      5.8730                 0.5181                 3.5923

                      7                      8                      9
                      A                      A                      A
 Frequencies --    297.4695               342.3435               350.0666
 Red. masses --      7.1348                 2.7982                 3.3024
 Frc consts  --      0.3720                 0.1932                 0.2384
 IR Inten    --      1.7317                 0.0465                 0.2908

                     10                     11                     12
                      A                      A                      A
 Frequencies --    541.7496               596.7744               627.8385
 Red. masses --      4.7000                 1.9381                 6.2701
 Frc consts  --      0.8127                 0.4067                 1.4562
 IR Inten    --      7.1474                 0.0394                 2.8633

                     13                     14                     15
                      A                      A                      A
 Frequencies --    726.5184               811.5087               818.9478
 Red. masses --      5.3047                 1.3534                 4.9247
 Frc consts  --      1.6497                 0.5251                 1.9460
 IR Inten    --      8.4872                10.1283                 0.7394

                     16                     17                     18
                      A                      A                      A
 Frequencies --    879.5750               922.6078               980.3505
 Red. masses --      1.3287                 2.4476                 3.3771
 Frc consts  --      0.6057                 1.2275                 1.9123
 IR Inten    --      3.1012                 7.6257                13.2297

                     19                     20                     21
                      A                      A                      A
 Frequencies --   1026.5607              1027.5507              1046.9493
 Red. masses --      2.1384                 1.9081                 1.7720
 Frc consts  --      1.3277                 1.1870                 1.1444
 IR Inten    --      6.1399                 5.9392                 1.8353

                     22                     23                     24
                      A                      A                      A
 Frequencies --   1052.0977              1151.9484              1164.3909
 Red. masses --      4.3660                 1.2479                 3.6512
 Frc consts  --      2.8474                 0.9757                 2.9166
 IR Inten    --     72.3892                 0.0076               105.5140

                     25                     26                     27
                      A                      A                      A
 Frequencies --   1184.9596              1210.1086              1229.2817
 Red. masses --      1.2755                 1.8178                 1.8937
 Frc consts  --      1.0552                 1.5683                 1.6861
 IR Inten    --      2.8499                39.1446                29.6979

                     28                     29                     30
                      A                      A                      A
 Frequencies --   1230.0651              1247.3537              1271.7771
 Red. masses --      1.1253                 1.0903                 2.0466
 Frc consts  --      1.0032                 0.9995                 1.9503
 IR Inten    --      1.4089                 2.7533                24.3847

                     31                     32                     33
                      A                      A                      A
 Frequencies --   1316.4079              1331.2997              1428.5223
 Red. masses --      1.8247                 1.8838                 1.5887
 Frc consts  --      1.8631                 1.9672                 1.9101
 IR Inten    --     18.7951                18.3744                67.5492

                     34                     35                     36
                      A                      A                      A
 Frequencies --   1451.7769              1480.5294              1484.8910
 Red. masses --      1.0803                 1.1702                 1.0988
 Frc consts  --      1.3415                 1.5113                 1.4274
 IR Inten    --      1.3450                 0.5795                 6.6198

                     37                     38                     39
                      A                      A                      A
 Frequencies --   1485.1161              1496.0491              1517.3884
 Red. masses --      1.0464                 1.0719                 1.0920
 Frc consts  --      1.3598                 1.4136                 1.4814
 IR Inten    --      5.1429                 7.9862                 2.2855

                     40                     41                     42
                      A                      A                      A
 Frequencies --   1703.3686              1802.0472              2949.6994
 Red. masses --      7.5546                12.7650                 1.0540
 Frc consts  --     12.9146                24.4232                 5.4029
 IR Inten    --     14.2588               251.4986                21.9244

                     43                     44                     45
                      A                      A                      A
 Frequencies --   2965.3269              2974.1126              3018.1986
 Red. masses --      1.1019                 1.0379                 1.1033
 Frc consts  --      5.7088                 5.4089                 5.9217
 IR Inten    --     41.6945                71.1408                54.9841

                     46                     47                     48
                      A                      A                      A
 Frequencies --   3030.0883              3053.8520              3066.4133
 Red. masses --      1.0599                 1.1024                 1.0609
 Frc consts  --      5.7337                 6.0571                 5.8776
 IR Inten    --     29.7080                11.7623                 9.7620

                     49                     50                     51
                      A                      A                      A
 Frequencies --   3106.1118              3116.6019              3211.7679
 Red. masses --      1.1027                 1.0962                 1.0936
 Frc consts  --      6.2683                 6.2737                 6.6464
 IR Inten    --      8.6351                27.4896                 3.7622

 - Thermochemistry -
 -------------------
 Temperature   298.150 Kelvin.  Pressure   1.00000 Atm.
 Atom     1 has atomic number  6 and mass  12.00000

 Molecular mass:   126.06808 amu.
 Principal axes and moments of inertia in atomic units:
                           1         2         3
     Eigenvalues --   555.167601826.320322336.79689
           X            0.99947  -0.03245   0.00000
           Y            0.03245   0.99947   0.00000
           Z            0.00000   0.00000   1.00000
 This molecule is an asymmetric top.
 Rotational symmetry number  1.
 Warning -- assumption of classical behavior for rotation
           may cause significant error
 Rotational temperatures (Kelvin)      0.15601     0.04743     0.03707
 Rotational constants (GHZ):           3.25080     0.98818     0.77231
 Zero-point vibrational energy     415985.2 (Joules/Mol)
                                   99.42284 (Kcal/Mol)
 Warning -- explicit consideration of  11 degrees of freedom as
           vibrations may cause significant error
 Vibrational temperatures:     86.44   113.67   145.79   178.73   317.63
          (Kelvin)            335.98   427.99   492.56   503.67   779.46
                              858.62   903.32  1045.30  1167.58  1178.28
                             1265.51  1327.43  1410.50  1476.99  1478.41
                             1506.32  1513.73  1657.39  1675.30  1704.89
                             1741.07  1768.66  1769.79  1794.66  1829.80
                             1894.01  1915.44  2055.32  2088.78  2130.15
                             2136.42  2136.75  2152.48  2183.18  2450.76
                             2592.74  4243.95  4266.44  4279.08  4342.51
                             4359.62  4393.81  4411.88  4469.00  4484.09
                             4621.01

 Zero-point correction=                           0.158440 (Hartree/Particle)
 Thermal correction to Energy=                    0.167696
 Thermal correction to Enthalpy=                  0.168640
 Thermal correction to Gibbs Free Energy=         0.123336
 Sum of electronic and zero-point Energies=           -423.057359
 Sum of electronic and thermal Energies=              -423.048103
 Sum of electronic and thermal Enthalpies=            -423.047159
 Sum of electronic and thermal Free Energies=         -423.092464

                     E (Thermal)             CV                S
                      KCal/Mol        Cal/Mol-Kelvin    Cal/Mol-Kelvin
 Total                  105.231             32.664             95.352
 Electronic               0.000              0.000              0.000
 Translational            0.889              2.981             40.409
 Rotational               0.889              2.981             29.251
 Vibrational            103.453             26.703             25.692
 Vibration     1          0.597              1.973              4.455
 Vibration     2          0.600              1.963              3.915
 Vibration     3          0.604              1.948              3.429
 Vibration     4          0.610              1.929              3.034
 Vibration     5          0.647              1.809              1.953
 Vibration     6          0.654              1.790              1.852
 Vibration     7          0.691              1.678              1.431
 Vibration     8          0.721              1.591              1.201
 Vibration     9          0.727              1.575              1.166
 Vibration    10          0.897              1.158              0.562
 Vibration    11          0.955              1.039              0.455

 Optimization completed.
    -- Stationary point found.
 Normal termination of Gaussian 09 at Tue Jan 28 14:58:22 2020.
