 Gaussian 09, Revision D.01,
 Gaussian 09:  ES64L-G09RevD.01 24-Apr-2013

 -----------------------------
 # b3lyp 6-31G(2df,p) opt Freq
 -----------------------------

 -----
 titel
 -----
 Symbolic Z-matrix:
 Charge =  0 Multiplicity = 1

 SCF Done:  E(RB3LYP) =  -423.120791584     A.U. after   14 cycles
 Optimization completed.
    -- Stationary point found.
 Normal termination of Gaussian 09 at Tue Jan 28 11:52:45 2020.

 ----------------------------------------------------------------------
 #N Geom=AllCheck Guess=TCheck SCRF=Check GenChk RB3LYP/6-31G(2df,p) Fr
 eq
 ----------------------------------------------------------------------

 Structure from the checkpoint file:  "/scratch/puck/g09_e3ce1451-5ec1-494f-9a85-085b2fec4abc/Gau-138426.chk"
 -----
 titel
 -----
 Charge =  0 Multiplicity = 1

                         Standard orientation:
 ---------------------------------------------------------------------
 Center     Atomic      Atomic             Coordinates (Angstroms)
 Number     Number       Type             X           Y           Z
 ---------------------------------------------------------------------
      1          8           0        2.187208   -1.762004   -0.059725
      2          6           0        2.343754   -0.370223   -0.296596
      3          6           0        1.199003    0.329724    0.403920
      4          6           0        0.956415    1.822164    0.101625
      5          8           0       -0.404516    1.565453   -0.297757
      6          6           0       -0.214300    0.135876   -0.189001
      7          6           0       -1.260138   -0.546172    0.692613
      8          6           0       -2.592890   -0.550111    0.103325
      9          6           0       -3.682520   -0.553172   -0.403255
     10          1           0        2.874032   -2.233341   -0.540243
     11          1           0        3.306888   -0.000327    0.091399
     12          1           0        2.313494   -0.141041   -1.374283
     13          1           0        1.236125    0.105082    1.473770
     14          1           0        1.014903    2.514800    0.948592
     15          1           0        1.557670    2.224246   -0.726251
     16          1           0       -0.209392   -0.335091   -1.181401
     17          1           0       -0.921591   -1.576036    0.868143
     18          1           0       -1.281062   -0.043710    1.667663
     19          1           0       -4.648545   -0.550688   -0.843329
 ---------------------------------------------------------------------

 SCF Done:  E(RB3LYP) =  -423.120791584     A.U. after    1 cycles

 The electronic state is 1-A.
 Alpha  occ. eigenvalues --  -19.14490 -19.13001 -10.23773 -10.23640 -10.23218
 Alpha  occ. eigenvalues --  -10.20332 -10.19470 -10.17409 -10.16299  -1.03801
 Alpha  occ. eigenvalues --   -1.02456  -0.79337  -0.77235  -0.71237  -0.66714
 Alpha  occ. eigenvalues --   -0.64104  -0.55841  -0.52455  -0.51994  -0.49243
 Alpha  occ. eigenvalues --   -0.47665  -0.46257  -0.44056  -0.43960  -0.40198
 Alpha  occ. eigenvalues --   -0.38783  -0.38650  -0.34130  -0.32855  -0.30259
 Alpha  occ. eigenvalues --   -0.27804  -0.26237  -0.25674  -0.24312
 Alpha virt. eigenvalues --    0.05371   0.06076   0.06898   0.09299   0.10332
 Alpha virt. eigenvalues --    0.11465   0.12818   0.14014   0.14763   0.15738
 Alpha virt. eigenvalues --    0.16942   0.17167   0.18640   0.19578   0.20799

 Mulliken charges:
               1
     1  O   -0.421743
     2  C   -0.102711
     3  C   -0.050565
     4  C   -0.097848
     5  O   -0.289714
     6  C    0.166017
     7  C   -0.375642
     8  C    0.299482
     9  C   -0.438980
    10  H    0.291167
    11  H    0.090509
    12  H    0.090513
    13  H    0.087886
    14  H    0.106481
    15  H    0.096216
    16  H    0.084330
    17  H    0.143362
    18  H    0.127866
    19  H    0.193374
 Sum of Mulliken charges =   0.00000

 Dipole moment (field-independent basis, Debye):
    X=              3.0017    Y=             -0.6420    Z=             -0.1411  Tot=              3.0728
 Quadrupole moment (field-independent basis, Debye-Ang):
   XX=            -45.6667   YY=            -54.8271   ZZ=            -51.6425
   XY=              0.4242   XZ=             -1.3988   YZ=              3.0772

  Exact polarizability: 100.860   4.047  70.433   6.577   1.587  62.858
 Approx polarizability: 135.227   2.594  98.626  16.166   1.015  98.137

                      1                      2                      3
                      A                      A                      A
 Frequencies --     47.0045                66.1822               102.4367
 Red. masses --      4.6986                 3.3711                 3.5667
 Frc consts  --      0.0061                 0.0087                 0.0221
 IR Inten    --      2.0211                 1.9760                 3.8169

                      4                      5                      6
                      A                      A                      A
 Frequencies --    116.0265               191.9144               254.6722
 Red. masses --      3.8469                 2.5110                 1.3641
 Frc consts  --      0.0305                 0.0545                 0.0521
 IR Inten    --      0.8534                 5.3707                64.8873

                      7                      8                      9
                      A                      A                      A
 Frequencies --    291.0499               330.9566               357.4672
 Red. masses --      2.1511                 4.6162                 2.2975
 Frc consts  --      0.1074                 0.2979                 0.1730
 IR Inten    --     37.0778                 3.5788                 0.9709

                     10                     11                     12
                      A                      A                      A
 Frequencies --    415.0119               443.7619               555.8708
 Red. masses --      4.8815                 3.4435                 3.2127
 Frc consts  --      0.4954                 0.3995                 0.5849
 IR Inten    --      5.5042                 3.0432                 9.6640

                     13                     14                     15
                      A                      A                      A
 Frequencies --    614.2901               637.3101               728.5003
 Red. masses --      1.2052                 1.2173                 3.1608
 Frc consts  --      0.2679                 0.2913                 0.9883
 IR Inten    --     42.4031                44.3910                 6.5932

                     16                     17                     18
                      A                      A                      A
 Frequencies --    843.5528               888.5124               925.4773
 Red. masses --      2.4435                 1.9870                 1.5709
 Frc consts  --      1.0244                 0.9242                 0.7928
 IR Inten    --     17.6036                 7.7705                 1.3545

                     19                     20                     21
                      A                      A                      A
 Frequencies --    956.1322              1011.4246              1028.3950
 Red. masses --      3.4722                 3.2561                 4.4786
 Frc consts  --      1.8702                 1.9625                 2.7907
 IR Inten    --      3.0583                34.2654                35.1321

                     22                     23                     24
                      A                      A                      A
 Frequencies --   1044.3597              1071.6368              1094.3191
 Red. masses --      3.4545                 2.7956                 3.3471
 Frc consts  --      2.2199                 1.8916                 2.3616
 IR Inten    --     63.4569                17.3572                72.5636

                     25                     26                     27
                      A                      A                      A
 Frequencies --   1119.6241              1133.3272              1169.5423
 Red. masses --      2.1495                 1.9124                 1.1664
 Frc consts  --      1.5875                 1.4473                 0.9400
 IR Inten    --      0.9362                 2.3971                 0.5072

                     28                     29                     30
                      A                      A                      A
 Frequencies --   1214.4881              1230.7989              1250.5139
 Red. masses --      1.2003                 1.2224                 1.1817
 Frc consts  --      1.0431                 1.0910                 1.0888
 IR Inten    --      2.2248                 1.7575                36.2007

                     31                     32                     33
                      A                      A                      A
 Frequencies --   1281.6848              1293.2532              1313.0052
 Red. masses --      1.3195                 1.3475                 1.3271
 Frc consts  --      1.2771                 1.3278                 1.3480
 IR Inten    --      2.1562                23.9437                 6.5827

                     34                     35                     36
                      A                      A                      A
 Frequencies --   1347.0571              1379.0541              1407.7942
 Red. masses --      1.3458                 1.3486                 1.5870
 Frc consts  --      1.4389                 1.5111                 1.8531
 IR Inten    --      5.0405                10.9235                 7.0697

                     37                     38                     39
                      A                      A                      A
 Frequencies --   1457.2837              1463.0701              1521.6216
 Red. masses --      1.1025                 1.5529                 1.0824
 Frc consts  --      1.3795                 1.9584                 1.4766
 IR Inten    --      2.0711                10.8083                 2.1955

                     40                     41                     42
                      A                      A                      A
 Frequencies --   1527.7038              2241.0559              2961.6345
 Red. masses --      1.1059                 5.9302                 1.0546
 Frc consts  --      1.5207                17.5480                 5.4502
 IR Inten    --      1.8264                 3.0389                46.0556

                     43                     44                     45
                      A                      A                      A
 Frequencies --   2990.3370              2998.6996              3013.0430
 Red. masses --      1.1056                 1.0633                 1.0818
 Frc consts  --      5.8248                 5.6334                 5.7864
 IR Inten    --     50.6347                87.1067                29.7124

                     46                     47                     48
                      A                      A                      A
 Frequencies --   3021.4172              3053.7323              3061.6100
 Red. masses --      1.0607                 1.0993                 1.1013
 Frc consts  --      5.7053                 6.0397                 6.0824
 IR Inten    --     18.1997                24.8424                 8.8384

                     49                     50                     51
                      A                      A                      A
 Frequencies --   3075.1407              3508.7211              3830.2338
 Red. masses --      1.0893                 1.1622                 1.0664
 Frc consts  --      6.0693                 8.4299                 9.2178
 IR Inten    --     53.2325                66.7006                24.5697

 - Thermochemistry -
 -------------------
 Temperature   298.150 Kelvin.  Pressure   1.00000 Atm.
 Atom     1 has atomic number  8 and mass  15.99491

 Molecular mass:   126.06808 amu.
 Principal axes and moments of inertia in atomic units:
                           1         2         3
     Eigenvalues --   665.821071837.624802329.39951
           X            0.99994   0.01068  -0.00316
           Y           -0.01064   0.99987   0.01247
           Z            0.00330  -0.01244   0.99992
 This molecule is an asymmetric top.
 Rotational symmetry number  1.
 Warning -- assumption of classical behavior for rotation
           may cause significant error
 Rotational temperatures (Kelvin)      0.13009     0.04713     0.03718
 Rotational constants (GHZ):           2.71055     0.98211     0.77477
 Zero-point vibrational energy     412004.1 (Joules/Mol)
                                   98.47135 (Kcal/Mol)
 Warning -- explicit consideration of  13 degrees of freedom as
           vibrations may cause significant error
 Vibrational temperatures:     67.63    95.22   147.38   166.94   276.12
          (Kelvin)            366.42   418.76   476.17   514.31   597.11
                              638.47   799.77   883.83   916.95  1048.15
                             1213.68  1278.37  1331.55  1375.66  1455.21
                             1479.63  1502.60  1541.84  1574.48  1610.89
                             1630.60  1682.71  1747.38  1770.84  1799.21
                             1844.06  1860.70  1889.12  1938.11  1984.15
                             2025.50  2096.70  2105.03  2189.27  2198.02
                             3224.38  4261.13  4302.42  4314.45  4335.09
                             4347.14  4393.63  4404.97  4424.44  5048.26
                             5510.85

 Zero-point correction=                           0.156924 (Hartree/Particle)
 Thermal correction to Energy=                    0.166755
 Thermal correction to Enthalpy=                  0.167699
 Thermal correction to Gibbs Free Energy=         0.121074
 Sum of electronic and zero-point Energies=           -422.963867
 Sum of electronic and thermal Energies=              -422.954036
 Sum of electronic and thermal Enthalpies=            -422.953092
 Sum of electronic and thermal Free Energies=         -422.999718

                     E (Thermal)             CV                S
                      KCal/Mol        Cal/Mol-Kelvin    Cal/Mol-Kelvin
 Total                  104.640             34.966             98.132
 Electronic               0.000              0.000              0.000
 Translational            0.889              2.981             40.409
 Rotational               0.889              2.981             29.434
 Vibrational            102.863             29.004             28.289
 Vibration     1          0.595              1.979              4.940
 Vibration     2          0.598              1.970              4.264
 Vibration     3          0.605              1.947              3.407
 Vibration     4          0.608              1.936              3.166
 Vibration     5          0.634              1.851              2.209
 Vibration     6          0.665              1.755              1.698
 Vibration     7          0.687              1.690              1.468
 Vibration     8          0.713              1.614              1.255
 Vibration     9          0.733              1.560              1.133
 Vibration    10          0.778              1.438              0.909
 Vibration    11          0.803              1.375              0.815
 Vibration    12          0.911              1.127              0.532
 Vibration    13          0.974              1.002              0.426

 Normal termination of Gaussian 09 at Tue Jan 28 12:30:04 2020.
