 Gaussian 09, Revision D.01,
 Gaussian 09:  ES64L-G09RevD.01 24-Apr-2013

 -----------------------------
 # b3lyp 6-31G(2df,p) opt Freq
 -----------------------------

 -----
 titel
 -----
 Symbolic Z-matrix:
 Charge =  0 Multiplicity = 1

 SCF Done:  E(RB3LYP) =  -423.171073555     A.U. after   14 cycles
 Optimization completed.
    -- Stationary point found.
 Normal termination of Gaussian 09 at Tue Jan 28 08:49:17 2020.

 ----------------------------------------------------------------------
 #N Geom=AllCheck Guess=TCheck SCRF=Check GenChk RB3LYP/6-31G(2df,p) Fr
 eq
 ----------------------------------------------------------------------

 Structure from the checkpoint file:  "/scratch/puck/g09_9a77461a-fcc1-4a45-8f61-3ec65f5981fb/Gau-103470.chk"
 -----
 titel
 -----
 Charge =  0 Multiplicity = 1

                         Standard orientation:
 ---------------------------------------------------------------------
 Center     Atomic      Atomic             Coordinates (Angstroms)
 Number     Number       Type             X           Y           Z
 ---------------------------------------------------------------------
      1          8           0       -2.256720   -1.183352    0.067687
      2          6           0       -1.148581   -0.740465   -0.724068
      3          6           0       -0.609970    0.483687   -0.031762
      4          8           0       -1.608326    1.444757    0.174858
      5          6           0        0.729196    1.096043   -0.295490
      6          6           0        1.832167    0.293350   -0.990788
      7          6           0        2.106426   -0.845647   -0.028320
      8          6           0        1.374450   -0.749500    1.086208
      9          6           0        0.465202    0.425996    1.059252
     10          1           0       -2.797755   -1.769116   -0.468573
     11          1           0       -0.385796   -1.521961   -0.807728
     12          1           0       -1.482917   -0.461089   -1.733970
     13          1           0       -2.363513    0.949966    0.519968
     14          1           0        0.725608    2.176334   -0.379719
     15          1           0        1.532067   -0.067521   -1.983851
     16          1           0        2.727374    0.908925   -1.152156
     17          1           0        2.806626   -1.642029   -0.254179
     18          1           0        1.403429   -1.447869    1.915128
     19          1           0        0.261909    1.002343    1.954544
 ---------------------------------------------------------------------

 SCF Done:  E(RB3LYP) =  -423.171073555     A.U. after    1 cycles

 The electronic state is 1-A.
 Alpha  occ. eigenvalues --  -19.14392 -19.12982 -10.23346 -10.22745 -10.18680
 Alpha  occ. eigenvalues --  -10.18360 -10.18036 -10.17826 -10.17639  -1.03401
 Alpha  occ. eigenvalues --   -1.00698  -0.87330  -0.75974  -0.70180  -0.69965
 Alpha  occ. eigenvalues --   -0.58465  -0.55044  -0.52689  -0.51699  -0.51126
 Alpha  occ. eigenvalues --   -0.47540  -0.45990  -0.42520  -0.41160  -0.38990
 Alpha  occ. eigenvalues --   -0.36951  -0.35987  -0.35244  -0.33827  -0.32316
 Alpha  occ. eigenvalues --   -0.28135  -0.27622  -0.26676  -0.21291
 Alpha virt. eigenvalues --    0.02047   0.06452   0.10267   0.11751   0.12909
 Alpha virt. eigenvalues --    0.14650   0.15249   0.16034   0.17244   0.17375
 Alpha virt. eigenvalues --    0.18227   0.18782   0.19688   0.21547   0.23930

 Mulliken charges:
               1
     1  O   -0.436772
     2  C   -0.168080
     3  C    0.437207
     4  O   -0.480383
     5  C   -0.122577
     6  C   -0.283654
     7  C   -0.083162
     8  C   -0.079035
     9  C   -0.149694
    10  H    0.292070
    11  H    0.103006
    12  H    0.094067
    13  H    0.286720
    14  H    0.097351
    15  H    0.106374
    16  H    0.109011
    17  H    0.091940
    18  H    0.094953
    19  H    0.090656
 Sum of Mulliken charges =   0.00000

 Dipole moment (field-independent basis, Debye):
    X=             -0.1557    Y=             -1.7493    Z=             -1.1380  Tot=              2.0927
 Quadrupole moment (field-independent basis, Debye-Ang):
   XX=            -49.1143   YY=            -53.2212   ZZ=            -51.1157
   XY=              3.6612   XZ=              1.1161   YZ=              2.1181

  Exact polarizability:  86.640  -3.148  70.042  -5.659  -1.181  73.030
 Approx polarizability: 121.702  -6.135 103.258 -14.591  -1.801 119.557

                      1                      2                      3
                      A                      A                      A
 Frequencies --     98.2024               151.0226               212.7908
 Red. masses --      3.7790                 3.4196                 2.7595
 Frc consts  --      0.0215                 0.0460                 0.0736
 IR Inten    --      1.4488                 0.5660                 7.5618

                      4                      5                      6
                      A                      A                      A
 Frequencies --    232.2972               296.5983               299.9500
 Red. masses --      1.1734                 4.0910                 2.8871
 Frc consts  --      0.0373                 0.2120                 0.1530
 IR Inten    --     78.6300                 8.3575                 5.6265

                      7                      8                      9
                      A                      A                      A
 Frequencies --    380.4756               411.7221               480.4956
 Red. masses --      2.8121                 2.6602                 1.3379
 Frc consts  --      0.2398                 0.2657                 0.1820
 IR Inten    --      0.8406                11.2944                94.7809

                     10                     11                     12
                      A                      A                      A
 Frequencies --    496.5650               546.4817               689.4614
 Red. masses --      2.2948                 3.3282                 3.2376
 Frc consts  --      0.3334                 0.5856                 0.9068
 IR Inten    --     14.1851                 3.8516                15.0758

                     13                     14                     15
                      A                      A                      A
 Frequencies --    731.8540               767.6562               793.0641
 Red. masses --      2.3239                 2.3957                 2.2276
 Frc consts  --      0.7333                 0.8318                 0.8255
 IR Inten    --     25.7142                 7.1539                 4.7152

                     16                     17                     18
                      A                      A                      A
 Frequencies --    861.3956               882.8757               930.3610
 Red. masses --      2.8927                 2.2986                 2.2377
 Frc consts  --      1.2646                 1.0556                 1.1412
 IR Inten    --     10.1634                11.0104                 5.3087

                     19                     20                     21
                      A                      A                      A
 Frequencies --    949.1380               966.7639               990.1125
 Red. masses --      1.8251                 1.4525                 1.9197
 Frc consts  --      0.9687                 0.7999                 1.1088
 IR Inten    --      2.2843                 1.1625                11.3071

                     22                     23                     24
                      A                      A                      A
 Frequencies --    998.6974              1028.2164              1045.3342
 Red. masses --      2.0070                 2.2557                 4.4780
 Frc consts  --      1.1794                 1.4051                 2.8830
 IR Inten    --      8.1406                 1.5578                60.6178

                     25                     26                     27
                      A                      A                      A
 Frequencies --   1059.8535              1076.5947              1130.6853
 Red. masses --      1.9867                 1.3967                 1.1147
 Frc consts  --      1.3149                 0.9538                 0.8396
 IR Inten    --     25.4192                11.2125                 0.4453

                     28                     29                     30
                      A                      A                      A
 Frequencies --   1163.0353              1182.9264              1219.6909
 Red. masses --      1.7181                 1.2067                 1.2886
 Frc consts  --      1.3693                 0.9949                 1.1295
 IR Inten    --     55.4644                12.0589                69.2780

                     31                     32                     33
                      A                      A                      A
 Frequencies --   1269.7507              1279.8679              1281.4430
 Red. masses --      1.1724                 1.4448                 1.8746
 Frc consts  --      1.1137                 1.3944                 1.8137
 IR Inten    --     16.3542                 5.6454                13.1224

                     34                     35                     36
                      A                      A                      A
 Frequencies --   1315.5456              1338.5546              1379.0798
 Red. masses --      1.7087                 1.6516                 1.6791
 Frc consts  --      1.7423                 1.7435                 1.8815
 IR Inten    --      3.9411                90.7344                16.8085

                     37                     38                     39
                      A                      A                      A
 Frequencies --   1434.0195              1475.6418              1488.1676
 Red. masses --      1.5711                 1.5748                 1.4431
 Frc consts  --      1.9036                 2.0204                 1.8830
 IR Inten    --     10.9195                 6.0488                 3.3986

                     40                     41                     42
                      A                      A                      A
 Frequencies --   1505.8630              1661.6948              2996.3107
 Red. masses --      1.0978                 6.0532                 1.0649
 Frc consts  --      1.4667                 9.8478                 5.6330
 IR Inten    --     11.9066                 1.9768                39.6998

                     43                     44                     45
                      A                      A                      A
 Frequencies --   3011.2611              3033.5806              3065.3770
 Red. masses --      1.0595                 1.1019                 1.0966
 Frc consts  --      5.6606                 5.9745                 6.0708
 IR Inten    --     48.8927                24.8186                26.6145

                     46                     47                     48
                      A                      A                      A
 Frequencies --   3175.0463              3184.0517              3186.4809
 Red. masses --      1.0879                 1.0879                 1.0885
 Frc consts  --      6.4617                 6.4985                 6.5120
 IR Inten    --      5.5022                 7.5770                13.7413

                     49                     50                     51
                      A                      A                      A
 Frequencies --   3209.6362              3764.6294              3842.2286
 Red. masses --      1.1038                 1.0648                 1.0666
 Frc consts  --      6.6998                 8.8910                 9.2774
 IR Inten    --     20.4152                56.9051                30.2420

 - Thermochemistry -
 -------------------
 Temperature   298.150 Kelvin.  Pressure   1.00000 Atm.
 Atom     1 has atomic number  8 and mass  15.99491

 Molecular mass:   126.06808 amu.
 Principal axes and moments of inertia in atomic units:
                           1         2         3
     Eigenvalues --   645.167861317.843211502.41878
           X            0.99996   0.00813  -0.00420
           Y           -0.00802   0.99968   0.02391
           Z            0.00440  -0.02387   0.99971
 This molecule is an asymmetric top.
 Rotational symmetry number  1.
 Warning -- assumption of classical behavior for rotation
           may cause significant error
 Rotational temperatures (Kelvin)      0.13425     0.06572     0.05765
 Rotational constants (GHZ):           2.79732     1.36947     1.20122
 Zero-point vibrational energy     418528.8 (Joules/Mol)
                                  100.03078 (Kcal/Mol)
 Warning -- explicit consideration of  11 degrees of freedom as
           vibrations may cause significant error
 Vibrational temperatures:    141.29   217.29   306.16   334.22   426.74
          (Kelvin)            431.56   547.42   592.38   691.33   714.45
                              786.26   991.98  1052.97  1104.48  1141.04
                             1239.35  1270.26  1338.58  1365.60  1390.96
                             1424.55  1436.90  1479.37  1504.00  1524.89
                             1548.98  1626.80  1673.35  1701.97  1754.86
                             1826.89  1841.44  1843.71  1892.77  1925.88
                             1984.19  2063.23  2123.12  2141.14  2166.60
                             2390.81  4311.02  4332.53  4364.64  4410.39
                             4568.18  4581.13  4584.63  4617.94  5416.46
                             5528.10

 Zero-point correction=                           0.159409 (Hartree/Particle)
 Thermal correction to Energy=                    0.167804
 Thermal correction to Enthalpy=                  0.168749
 Thermal correction to Gibbs Free Energy=         0.126744
 Sum of electronic and zero-point Energies=           -423.011664
 Sum of electronic and thermal Energies=              -423.003269
 Sum of electronic and thermal Enthalpies=            -423.002325
 Sum of electronic and thermal Free Energies=         -423.044329

                     E (Thermal)             CV                S
                      KCal/Mol        Cal/Mol-Kelvin    Cal/Mol-Kelvin
 Total                  105.299             33.001             88.406
 Electronic               0.000              0.000              0.000
 Translational            0.889              2.981             40.409
 Rotational               0.889              2.981             28.637
 Vibrational            103.521             27.039             19.360
 Vibration     1          0.604              1.950              3.490
 Vibration     2          0.618              1.902              2.659
 Vibration     3          0.644              1.821              2.020
 Vibration     4          0.653              1.792              1.861
 Vibration     5          0.690              1.680              1.436
 Vibration     6          0.692              1.674              1.417
 Vibration     7          0.750              1.512              1.037
 Vibration     8          0.776              1.445              0.921
 Vibration     9          0.837              1.293              0.709
 Vibration    10          0.852              1.258              0.667
 Vibration    11          0.902              1.147              0.552

 Normal termination of Gaussian 09 at Tue Jan 28 09:32:54 2020.
