 Gaussian 09, Revision D.01,
 Gaussian 09:  ES64L-G09RevD.01 24-Apr-2013

 -----------------------------
 # b3lyp 6-31G(2df,p) opt Freq
 -----------------------------

 -----
 titel
 -----
 Symbolic Z-matrix:
 Charge =  0 Multiplicity = 1

 SCF Done:  E(RB3LYP) =  -423.206111468     A.U. after   14 cycles
 Optimization completed.
    -- Stationary point found.
 Normal termination of Gaussian 09 at Mon Jan 27 15:53:22 2020.

 ----------------------------------------------------------------------
 #N Geom=AllCheck Guess=TCheck SCRF=Check GenChk RB3LYP/6-31G(2df,p) Fr
 eq
 ----------------------------------------------------------------------

 Structure from the checkpoint file:  "/scratch/puck/g09_a9ca7dcd-9cd0-406b-9e6f-ebd33e326d13/Gau-28615.chk"
 -----
 titel
 -----
 Charge =  0 Multiplicity = 1

                         Standard orientation:
 ---------------------------------------------------------------------
 Center     Atomic      Atomic             Coordinates (Angstroms)
 Number     Number       Type             X           Y           Z
 ---------------------------------------------------------------------
      1          6           0        0.286104    1.195670    1.375152
      2          6           0        0.459628    0.569472   -0.017165
      3          6           0        0.849490    1.620410   -1.053050
      4          6           0       -0.697998   -0.431750   -0.460202
      5          6           0        0.206108   -1.646809   -0.086265
      6          6           0        1.381267   -0.669228    0.039203
      7          8           0        2.569825   -0.795297    0.073614
      8          6           0       -2.016289   -0.332253    0.255143
      9          8           0       -3.045012    0.036886   -0.251121
     10          1           0        0.048531    0.454458    2.144512
     11          1           0        1.215684    1.691208    1.670296
     12          1           0       -0.512620    1.944728    1.367851
     13          1           0        0.990884    1.176536   -2.043087
     14          1           0        0.075495    2.391098   -1.132141
     15          1           0        1.787770    2.104421   -0.764824
     16          1           0       -0.880143   -0.352488   -1.533481
     17          1           0       -0.057038   -2.089365    0.882323
     18          1           0        0.309145   -2.451652   -0.816819
     19          1           0       -1.986075   -0.634726    1.328536
 ---------------------------------------------------------------------

 SCF Done:  E(RB3LYP) =  -423.206111468     A.U. after    1 cycles

 The electronic state is 1-A.
 Alpha  occ. eigenvalues --  -19.14875 -19.14627 -10.27789 -10.27782 -10.22156
 Alpha  occ. eigenvalues --  -10.21142 -10.20942 -10.19915 -10.19207  -1.05774
 Alpha  occ. eigenvalues --   -1.05302  -0.87411  -0.77061  -0.70729  -0.69129
 Alpha  occ. eigenvalues --   -0.63335  -0.57758  -0.50973  -0.48989  -0.48316
 Alpha  occ. eigenvalues --   -0.47557  -0.44839  -0.43836  -0.42038  -0.41653
 Alpha  occ. eigenvalues --   -0.40668  -0.39529  -0.39143  -0.37678  -0.36662
 Alpha  occ. eigenvalues --   -0.34672  -0.32546  -0.25795  -0.25015
 Alpha virt. eigenvalues --   -0.03454  -0.02908   0.07189   0.09546   0.10292
 Alpha virt. eigenvalues --    0.11385   0.13382   0.14246   0.14684   0.16001
 Alpha virt. eigenvalues --    0.17623   0.18675   0.19172   0.19679   0.20847

 Mulliken charges:
               1
     1  C   -0.446121
     2  C    0.166288
     3  C   -0.441746
     4  C   -0.120453
     5  C   -0.389107
     6  C    0.391946
     7  O   -0.297970
     8  C    0.153968
     9  O   -0.252822
    10  H    0.120999
    11  H    0.138789
    12  H    0.134255
    13  H    0.123498
    14  H    0.129305
    15  H    0.137154
    16  H    0.101799
    17  H    0.136535
    18  H    0.142234
    19  H    0.071449
 Sum of Mulliken charges =   0.00000

 Dipole moment (field-independent basis, Debye):
    X=              0.1727    Y=              0.0753    Z=              0.5716  Tot=              0.6019
 Quadrupole moment (field-independent basis, Debye-Ang):
   XX=            -72.4663   YY=            -50.1952   ZZ=            -50.7220
   XY=              4.1060   XZ=             -2.4013   YZ=              0.3198

  Exact polarizability:  89.053  -0.387  74.826   0.400  -0.939  68.093
 Approx polarizability: 140.298  -5.356 105.054   5.692  -2.791 101.755

                      1                      2                      3
                      A                      A                      A
 Frequencies --     51.0378                66.4215               154.8924
 Red. masses --      4.4068                 5.0651                 3.1201
 Frc consts  --      0.0068                 0.0132                 0.0441
 IR Inten    --      9.1012                 6.5621                 0.6433

                      4                      5                      6
                      A                      A                      A
 Frequencies --    194.4149               220.8430               248.2614
 Red. masses --      1.1260                 2.4115                 1.7929
 Frc consts  --      0.0251                 0.0693                 0.0651
 IR Inten    --      0.6499                 3.1600                 1.7666

                      7                      8                      9
                      A                      A                      A
 Frequencies --    265.7932               292.8379               358.6689
 Red. masses --      2.4219                 1.4177                 2.2447
 Frc consts  --      0.1008                 0.0716                 0.1701
 IR Inten    --      1.2337                 0.4149                 0.6270

                     10                     11                     12
                      A                      A                      A
 Frequencies --    388.2355               440.0007               502.7951
 Red. masses --      3.4489                 5.6511                 2.1775
 Frc consts  --      0.3063                 0.6446                 0.3243
 IR Inten    --      2.2116                 2.7595                 1.8651

                     13                     14                     15
                      A                      A                      A
 Frequencies --    542.2182               656.9022               717.6894
 Red. masses --      2.6541                 3.6795                 3.5009
 Frc consts  --      0.4597                 0.9355                 1.0624
 IR Inten    --      1.5599                 4.6173                 1.8462

                     16                     17                     18
                      A                      A                      A
 Frequencies --    776.2063               844.8255               927.2938
 Red. masses --      2.1943                 2.5543                 2.5351
 Frc consts  --      0.7789                 1.0741                 1.2843
 IR Inten    --     15.5250                 8.6993                 3.6150

                     19                     20                     21
                      A                      A                      A
 Frequencies --    961.0087               979.5489               999.2449
 Red. masses --      1.3951                 1.9380                 1.3337
 Frc consts  --      0.7591                 1.0956                 0.7846
 IR Inten    --      0.4901                 0.3868                 1.1607

                     22                     23                     24
                      A                      A                      A
 Frequencies --   1038.4909              1063.2624              1077.9261
 Red. masses --      2.8562                 2.0293                 2.9032
 Frc consts  --      1.8149                 1.3517                 1.9875
 IR Inten    --     31.7985                18.0005                41.6728

                     25                     26                     27
                      A                      A                      A
 Frequencies --   1132.7014              1185.0879              1189.4047
 Red. masses --      1.7774                 2.0471                 2.2074
 Frc consts  --      1.3436                 1.6939                 1.8399
 IR Inten    --      6.9349                20.0134                24.2082

                     28                     29                     30
                      A                      A                      A
 Frequencies --   1216.7526              1246.2454              1277.3797
 Red. masses --      1.5980                 1.8713                 2.1528
 Frc consts  --      1.3939                 1.7124                 2.0696
 IR Inten    --      0.8068                 0.9772                 6.4359

                     31                     32                     33
                      A                      A                      A
 Frequencies --   1310.0457              1396.2379              1417.6534
 Red. masses --      1.5780                 1.2200                 1.2016
 Frc consts  --      1.5957                 1.4013                 1.4228
 IR Inten    --      1.1807                 4.0535                 2.4149

                     34                     35                     36
                      A                      A                      A
 Frequencies --   1433.3976              1438.9540              1481.5116
 Red. masses --      1.2012                 1.1056                 1.0447
 Frc consts  --      1.4542                 1.3488                 1.3511
 IR Inten    --      5.7866                 8.7764                 0.0405

                     37                     38                     39
                      A                      A                      A
 Frequencies --   1483.6188              1502.5457              1505.4626
 Red. masses --      1.0497                 1.0562                 1.0541
 Frc consts  --      1.3614                 1.4050                 1.4076
 IR Inten    --      4.5186                 5.1469                 9.1934

                     40                     41                     42
                      A                      A                      A
 Frequencies --   1824.8572              1892.7438              2851.3014
 Red. masses --     10.4227                12.6068                 1.0813
 Frc consts  --     20.4497                26.6096                 5.1793
 IR Inten    --    220.1249               254.4914                89.4412

                     43                     44                     45
                      A                      A                      A
 Frequencies --   3032.7182              3035.3509              3042.3924
 Red. masses --      1.0344                 1.0356                 1.0638
 Frc consts  --      5.6053                 5.6217                 5.8015
 IR Inten    --     19.2504                13.3122                 5.7090

                     46                     47                     48
                      A                      A                      A
 Frequencies --   3098.4605              3103.6993              3105.6384
 Red. masses --      1.0874                 1.1018                 1.1016
 Frc consts  --      6.1510                 6.2534                 6.2603
 IR Inten    --      5.0548                14.6070                16.6015

                     49                     50                     51
                      A                      A                      A
 Frequencies --   3110.3817              3113.7138              3121.0688
 Red. masses --      1.1017                 1.1011                 1.0986
 Frc consts  --      6.2797                 6.2896                 6.3051
 IR Inten    --      7.0849                24.6115                10.1231

 - Thermochemistry -
 -------------------
 Temperature   298.150 Kelvin.  Pressure   1.00000 Atm.
 Atom     1 has atomic number  6 and mass  12.00000

 Molecular mass:   126.06808 amu.
 Principal axes and moments of inertia in atomic units:
                           1         2         3
     Eigenvalues --   695.717201488.204831744.69097
           X            0.99942   0.03185  -0.01240
           Y           -0.03193   0.99947  -0.00629
           Z            0.01219   0.00668   0.99990
 This molecule is an asymmetric top.
 Rotational symmetry number  1.
 Warning -- assumption of classical behavior for rotation
           may cause significant error
 Rotational temperatures (Kelvin)      0.12450     0.05820     0.04964
 Rotational constants (GHZ):           2.59407     1.21270     1.03442
 Zero-point vibrational energy     408633.2 (Joules/Mol)
                                   97.66569 (Kcal/Mol)
 Warning -- explicit consideration of  13 degrees of freedom as
           vibrations may cause significant error
 Vibrational temperatures:     73.43    95.57   222.86   279.72   317.74
          (Kelvin)            357.19   382.42   421.33   516.04   558.58
                              633.06   723.41   780.13   945.13  1032.59
                             1116.79  1215.51  1334.17  1382.68  1409.35
                             1437.69  1494.15  1529.80  1550.89  1629.70
                             1705.07  1711.29  1750.63  1793.07  1837.86
                             1884.86  2008.87  2039.68  2062.34  2070.33
                             2131.56  2134.59  2161.83  2166.02  2625.56
                             2723.23  4102.38  4363.40  4367.19  4377.32
                             4457.99  4465.53  4468.32  4475.14  4479.93
                             4490.52

 Zero-point correction=                           0.155640 (Hartree/Particle)
 Thermal correction to Energy=                    0.165389
 Thermal correction to Enthalpy=                  0.166333
 Thermal correction to Gibbs Free Energy=         0.120598
 Sum of electronic and zero-point Energies=           -423.050471
 Sum of electronic and thermal Energies=              -423.040723
 Sum of electronic and thermal Enthalpies=            -423.039778
 Sum of electronic and thermal Free Energies=         -423.085514

                     E (Thermal)             CV                S
                      KCal/Mol        Cal/Mol-Kelvin    Cal/Mol-Kelvin
 Total                  103.783             35.178             96.258
 Electronic               0.000              0.000              0.000
 Translational            0.889              2.981             40.409
 Rotational               0.889              2.981             28.981
 Vibrational            102.006             29.217             26.869
 Vibration     1          0.595              1.977              4.777
 Vibration     2          0.598              1.970              4.257
 Vibration     3          0.620              1.897              2.611
 Vibration     4          0.635              1.848              2.185
 Vibration     5          0.648              1.809              1.952
 Vibration     6          0.662              1.766              1.743
 Vibration     7          0.672              1.736              1.623
 Vibration     8          0.688              1.687              1.458
 Vibration     9          0.734              1.557              1.128
 Vibration    10          0.756              1.495              1.007
 Vibration    11          0.800              1.383              0.827
 Vibration    12          0.858              1.244              0.651
 Vibration    13          0.897              1.157              0.561

 Optimization completed.
    -- Stationary point found.
 Normal termination of Gaussian 09 at Mon Jan 27 16:38:40 2020.
