 Gaussian 09, Revision D.01,
 Gaussian 09:  ES64L-G09RevD.01 24-Apr-2013

 -----------------------------
 # b3lyp 6-31G(2df,p) opt Freq
 -----------------------------

 -----
 titel
 -----
 Symbolic Z-matrix:
 Charge =  0 Multiplicity = 1

 SCF Done:  E(RB3LYP) =  -423.188584627     A.U. after   12 cycles
 Optimization completed.
    -- Stationary point found.
 Normal termination of Gaussian 09 at Mon Jan 27 18:20:58 2020.

 ----------------------------------------------------------------------
 #N Geom=AllCheck Guess=TCheck SCRF=Check GenChk RB3LYP/6-31G(2df,p) Fr
 eq
 ----------------------------------------------------------------------

 Structure from the checkpoint file:  "/scratch/puck/g09_666c0118-2b41-4ae1-be1f-bf64a61b73e0/Gau-18230.chk"
 -----
 titel
 -----
 Charge =  0 Multiplicity = 1

                         Standard orientation:
 ---------------------------------------------------------------------
 Center     Atomic      Atomic             Coordinates (Angstroms)
 Number     Number       Type             X           Y           Z
 ---------------------------------------------------------------------
      1          6           0        1.763279   -1.573355   -0.017374
      2          6           0        0.490308   -0.774983   -0.040350
      3          6           0       -0.762565   -1.199778   -0.799603
      4          6           0       -1.590728    0.019962   -0.351491
      5          8           0       -1.493158   -0.021339    1.069244
      6          6           0       -0.079685   -0.015399    1.160373
      7          6           0        0.410238    0.757610   -0.045396
      8          6           0        1.527027    1.745878   -0.130078
      9          8           0       -0.780325    1.121780   -0.736323
     10          1           0        2.181189   -1.690135   -1.023812
     11          1           0        2.528466   -1.094017    0.602051
     12          1           0        1.593343   -2.575925    0.391450
     13          1           0       -0.626004   -1.228267   -1.883374
     14          1           0       -1.187662   -2.141854   -0.444603
     15          1           0       -2.619905    0.149037   -0.675090
     16          1           0        0.321332    0.009326    2.163922
     17          1           0        1.860856    1.875612   -1.164819
     18          1           0        1.206627    2.720619    0.250858
     19          1           0        2.382385    1.412464    0.463565
 ---------------------------------------------------------------------

 SCF Done:  E(RB3LYP) =  -423.188584627     A.U. after    1 cycles

 The electronic state is 1-A.
 Alpha  occ. eigenvalues --  -19.14610 -19.14518 -10.27565 -10.23537 -10.22823
 Alpha  occ. eigenvalues --  -10.19603 -10.18724 -10.18622 -10.18444  -1.10389
 Alpha  occ. eigenvalues --   -0.99421  -0.84661  -0.76807  -0.71259  -0.70911
 Alpha  occ. eigenvalues --   -0.61821  -0.58455  -0.52913  -0.51173  -0.47916
 Alpha  occ. eigenvalues --   -0.46796  -0.43548  -0.41632  -0.40905  -0.40626
 Alpha  occ. eigenvalues --   -0.40282  -0.39554  -0.37920  -0.36290  -0.35357
 Alpha  occ. eigenvalues --   -0.31015  -0.30051  -0.24715  -0.23082
 Alpha virt. eigenvalues --    0.08532   0.10634   0.11902   0.12162   0.13506
 Alpha virt. eigenvalues --    0.13932   0.15174   0.15551   0.16310   0.16932
 Alpha virt. eigenvalues --    0.17756   0.18449   0.19734   0.21412   0.21962

 Mulliken charges:
               1
     1  C   -0.501667
     2  C    0.180646
     3  C   -0.287938
     4  C    0.143165
     5  O   -0.255304
     6  C   -0.043960
     7  C    0.378037
     8  C   -0.504888
     9  O   -0.284192
    10  H    0.123085
    11  H    0.118069
    12  H    0.124169
    13  H    0.108062
    14  H    0.108590
    15  H    0.096800
    16  H    0.106498
    17  H    0.130313
    18  H    0.136379
    19  H    0.124136
 Sum of Mulliken charges =   0.00000

 Dipole moment (field-independent basis, Debye):
    X=              1.5928    Y=             -1.0548    Z=             -0.3087  Tot=              1.9352
 Quadrupole moment (field-independent basis, Debye-Ang):
   XX=            -51.5217   YY=            -53.5640   ZZ=            -53.4052
   XY=              1.9830   XZ=              3.2363   YZ=              1.5084

  Exact polarizability:  78.457   1.589  75.083   2.198   1.385  66.705
 Approx polarizability: 109.484   0.810 107.034   0.885  -0.767 106.157

                      1                      2                      3
                      A                      A                      A
 Frequencies --    184.6193               188.3358               214.6154
 Red. masses --      1.2739                 1.1860                 1.8816
 Frc consts  --      0.0256                 0.0248                 0.0511
 IR Inten    --      0.0618                 0.2955                 0.7787

                      4                      5                      6
                      A                      A                      A
 Frequencies --    217.4962               295.2825               340.6765
 Red. masses --      1.8415                 2.6092                 2.6989
 Frc consts  --      0.0513                 0.1340                 0.1846
 IR Inten    --      0.0545                 0.9632                 0.9524

                      7                      8                      9
                      A                      A                      A
 Frequencies --    440.7298               545.5625               584.0786
 Red. masses --      2.0069                 5.0106                 3.9997
 Frc consts  --      0.2297                 0.8787                 0.8039
 IR Inten    --      0.1277                 3.0049                 8.9920

                     10                     11                     12
                      A                      A                      A
 Frequencies --    627.3796               637.2472               707.8129
 Red. masses --      4.7885                 3.9412                 4.3995
 Frc consts  --      1.1105                 0.9430                 1.2987
 IR Inten    --      5.1364                 3.2852                 6.1797

                     13                     14                     15
                      A                      A                      A
 Frequencies --    734.9400               843.1996               875.0203
 Red. masses --      4.1389                 5.3098                 4.9485
 Frc consts  --      1.3171                 2.2243                 2.2323
 IR Inten    --     12.2089                 8.3352                49.6570

                     16                     17                     18
                      A                      A                      A
 Frequencies --    907.9190               908.4768               933.3112
 Red. masses --      2.6245                 1.9872                 2.0745
 Frc consts  --      1.2747                 0.9663                 1.0647
 IR Inten    --      8.5087                 3.1823                21.6284

                     19                     20                     21
                      A                      A                      A
 Frequencies --    966.0571               976.2143               999.4143
 Red. masses --      1.5371                 1.6584                 1.6486
 Frc consts  --      0.8452                 0.9312                 0.9702
 IR Inten    --      3.3282                14.1912                 8.4301

                     22                     23                     24
                      A                      A                      A
 Frequencies --   1039.8619              1074.1629              1093.3790
 Red. masses --      3.2432                 4.0481                 1.6331
 Frc consts  --      2.0662                 2.7520                 1.1503
 IR Inten    --     10.5274                62.5627                29.1430

                     25                     26                     27
                      A                      A                      A
 Frequencies --   1118.1988              1156.2994              1182.1790
 Red. masses --      1.7856                 2.1085                 1.5265
 Frc consts  --      1.3154                 1.6610                 1.2570
 IR Inten    --     16.4271                 3.6944                 0.2509

                     28                     29                     30
                      A                      A                      A
 Frequencies --   1204.4135              1217.8919              1243.6523
 Red. masses --      2.0652                 1.9681                 1.6466
 Frc consts  --      1.7650                 1.7200                 1.5005
 IR Inten    --     30.7338                 6.3601                 7.1708

                     31                     32                     33
                      A                      A                      A
 Frequencies --   1299.0272              1338.0023              1348.8870
 Red. masses --      1.6837                 1.5012                 2.7896
 Frc consts  --      1.6740                 1.5834                 2.9904
 IR Inten    --     18.4996                12.9577                 1.5745

                     34                     35                     36
                      A                      A                      A
 Frequencies --   1411.8147              1421.6571              1445.3429
 Red. masses --      1.4637                 1.2379                 3.0221
 Frc consts  --      1.7189                 1.4742                 3.7196
 IR Inten    --      4.7999                 1.5619                 1.4314

                     37                     38                     39
                      A                      A                      A
 Frequencies --   1477.0580              1479.8665              1492.0192
 Red. masses --      1.0560                 1.1709                 1.0479
 Frc consts  --      1.3574                 1.5109                 1.3744
 IR Inten    --      4.5147                 1.7623                 4.7225

                     40                     41                     42
                      A                      A                      A
 Frequencies --   1495.1428              1509.3771              3023.6717
 Red. masses --      1.0507                 1.1360                 1.0354
 Frc consts  --      1.3839                 1.5248                 5.5774
 IR Inten    --      0.9779                 7.2179                37.2926

                     43                     44                     45
                      A                      A                      A
 Frequencies --   3038.9860              3067.2171              3083.5046
 Red. masses --      1.0358                 1.0574                 1.1012
 Frc consts  --      5.6364                 5.8608                 6.1690
 IR Inten    --     26.5260                21.8144                21.2263

                     46                     47                     48
                      A                      A                      A
 Frequencies --   3092.6087              3102.7069              3119.9071
 Red. masses --      1.1000                 1.1015                 1.0999
 Frc consts  --      6.1987                 6.2474                 6.3078
 IR Inten    --     21.7007                18.0232                14.5067

                     49                     50                     51
                      A                      A                      A
 Frequencies --   3124.2185              3175.2110              3220.6261
 Red. masses --      1.1083                 1.0935                 1.0948
 Frc consts  --      6.3738                 6.4953                 6.6904
 IR Inten    --     17.1505                27.3236                 5.8489

 - Thermochemistry -
 -------------------
 Temperature   298.150 Kelvin.  Pressure   1.00000 Atm.
 Atom     1 has atomic number  6 and mass  12.00000

 Molecular mass:   126.06808 amu.
 Principal axes and moments of inertia in atomic units:
                           1         2         3
     Eigenvalues --   757.64762 894.975991191.76718
           X            0.99794   0.05818   0.02703
           Y           -0.05898   0.99782   0.02964
           Z           -0.02525  -0.03117   0.99920
 This molecule is an asymmetric top.
 Rotational symmetry number  1.
 Warning -- assumption of classical behavior for rotation
           may cause significant error
 Rotational temperatures (Kelvin)      0.11432     0.09678     0.07268
 Rotational constants (GHZ):           2.38203     2.01652     1.51434
 Zero-point vibrational energy     420040.4 (Joules/Mol)
                                  100.39208 (Kcal/Mol)
 Warning -- explicit consideration of   9 degrees of freedom as
           vibrations may cause significant error
 Vibrational temperatures:    265.63   270.97   308.78   312.93   424.85
          (Kelvin)            490.16   634.11   784.94   840.36   902.66
                              916.86  1018.38  1057.41  1213.17  1258.96
                             1306.29  1307.09  1342.83  1389.94  1404.55
                             1437.93  1496.13  1545.48  1573.13  1608.84
                             1663.65  1700.89  1732.88  1752.27  1789.34
                             1869.01  1925.08  1940.75  2031.28  2045.44
                             2079.52  2125.15  2129.20  2146.68  2151.17
                             2171.65  4350.38  4372.42  4413.04  4436.47
                             4449.57  4464.10  4488.84  4495.05  4568.41
                             4633.76

 Zero-point correction=                           0.159985 (Hartree/Particle)
 Thermal correction to Energy=                    0.167645
 Thermal correction to Enthalpy=                  0.168590
 Thermal correction to Gibbs Free Energy=         0.128368
 Sum of electronic and zero-point Energies=           -423.028600
 Sum of electronic and thermal Energies=              -423.020939
 Sum of electronic and thermal Enthalpies=            -423.019995
 Sum of electronic and thermal Free Energies=         -423.060217

                     E (Thermal)             CV                S
                      KCal/Mol        Cal/Mol-Kelvin    Cal/Mol-Kelvin
 Total                  105.199             30.738             84.653
 Electronic               0.000              0.000              0.000
 Translational            0.889              2.981             40.409
 Rotational               0.889              2.981             28.182
 Vibrational            103.422             24.777             16.063
 Vibration     1          0.631              1.861              2.281
 Vibration     2          0.633              1.856              2.244
 Vibration     3          0.645              1.819              2.004
 Vibration     4          0.646              1.814              1.980
 Vibration     5          0.690              1.683              1.444
 Vibration     6          0.720              1.594              1.209
 Vibration     7          0.801              1.381              0.824
 Vibration     8          0.901              1.149              0.553
 Vibration     9          0.941              1.066              0.478

 Optimization completed.
    -- Stationary point found.
 Normal termination of Gaussian 09 at Mon Jan 27 20:13:50 2020.
