 Gaussian 09, Revision D.01,
 Gaussian 09:  ES64L-G09RevD.01 24-Apr-2013

 -----------------------------
 # b3lyp 6-31G(2df,p) opt Freq
 -----------------------------

 -----
 titel
 -----
 Symbolic Z-matrix:
 Charge =  0 Multiplicity = 1

 SCF Done:  E(RB3LYP) =  -423.170877547     A.U. after   14 cycles
 Optimization completed.
    -- Stationary point found.
 Normal termination of Gaussian 09 at Mon Jan 27 23:06:57 2020.

 ----------------------------------------------------------------------
 #N Geom=AllCheck Guess=TCheck SCRF=Check GenChk RB3LYP/6-31G(2df,p) Fr
 eq
 ----------------------------------------------------------------------

 Structure from the checkpoint file:  "/scratch/puck/g09_e3e82231-c6a8-40ee-b2bd-cb97c9bde152/Gau-79627.chk"
 -----
 titel
 -----
 Charge =  0 Multiplicity = 1

                         Standard orientation:
 ---------------------------------------------------------------------
 Center     Atomic      Atomic             Coordinates (Angstroms)
 Number     Number       Type             X           Y           Z
 ---------------------------------------------------------------------
      1          6           0        0.018645    2.095176    0.098340
      2          6           0        0.911465    0.972864   -0.401592
      3          6           0        1.539089   -0.041149    0.593502
      4          6           0        1.734334   -0.988590   -0.612439
      5          6           0        0.354776   -0.367806   -1.005001
      6          6           0       -0.481571   -0.904951    0.168669
      7          8           0        0.391848   -0.602109    1.274703
      8          6           0       -1.865125   -0.313733    0.365412
      9          8           0       -2.660752   -0.175351   -0.527758
     10          1           0        0.624917    2.945724    0.427794
     11          1           0       -0.656915    2.450499   -0.686078
     12          1           0       -0.586339    1.781891    0.953763
     13          1           0        1.680737    1.362057   -1.073782
     14          1           0        2.306629    0.203486    1.325995
     15          1           0        2.543695   -0.687930   -1.278774
     16          1           0        1.776938   -2.059571   -0.402229
     17          1           0       -0.083188   -0.438394   -1.998201
     18          1           0       -0.621431   -1.995221    0.093302
     19          1           0       -2.103492   -0.053728    1.421292
 ---------------------------------------------------------------------

 SCF Done:  E(RB3LYP) =  -423.170877547     A.U. after    1 cycles

 The electronic state is 1-A.
 Alpha  occ. eigenvalues --  -19.14700 -19.14287 -10.27177 -10.24241 -10.24163
 Alpha  occ. eigenvalues --  -10.20713 -10.19901 -10.19368 -10.17912  -1.05667
 Alpha  occ. eigenvalues --   -1.04459  -0.84758  -0.75242  -0.73844  -0.63212
 Alpha  occ. eigenvalues --   -0.62818  -0.57530  -0.55175  -0.52906  -0.48244
 Alpha  occ. eigenvalues --   -0.46433  -0.45035  -0.42791  -0.42213  -0.41087
 Alpha  occ. eigenvalues --   -0.38438  -0.38054  -0.35928  -0.34737  -0.34227
 Alpha  occ. eigenvalues --   -0.32436  -0.31141  -0.27003  -0.24020
 Alpha virt. eigenvalues --   -0.02698   0.08627   0.10284   0.11022   0.12872
 Alpha virt. eigenvalues --    0.13077   0.13875   0.14530   0.15628   0.16275
 Alpha virt. eigenvalues --    0.16856   0.18174   0.19598   0.20190   0.20752

 Mulliken charges:
               1
     1  C   -0.438858
     2  C    0.037215
     3  C    0.093648
     4  C   -0.246498
     5  C   -0.091482
     6  C    0.038351
     7  O   -0.296822
     8  C    0.119736
     9  O   -0.252596
    10  H    0.116245
    11  H    0.130676
    12  H    0.127138
    13  H    0.080555
    14  H    0.082359
    15  H    0.106345
    16  H    0.102430
    17  H    0.091349
    18  H    0.107099
    19  H    0.093110
 Sum of Mulliken charges =   0.00000

 Dipole moment (field-independent basis, Debye):
    X=              2.4207    Y=              0.1144    Z=             -0.2169  Tot=              2.4331
 Quadrupole moment (field-independent basis, Debye-Ang):
   XX=            -57.6857   YY=            -50.9739   ZZ=            -54.9689
   XY=              1.2450   XZ=             -3.9971   YZ=              0.8024

  Exact polarizability:  82.552  -1.180  74.010  -0.126   1.793  67.884
 Approx polarizability: 116.407   0.135 104.382   6.016   0.102 111.564

                      1                      2                      3
                      A                      A                      A
 Frequencies --     74.8815               163.2235               174.1308
 Red. masses --      4.7644                 2.2539                 1.8870
 Frc consts  --      0.0157                 0.0354                 0.0337
 IR Inten    --      6.5845                 2.6560                 3.8716

                      4                      5                      6
                      A                      A                      A
 Frequencies --    232.5728               261.4763               311.1859
 Red. masses --      1.8617                 2.8121                 2.5030
 Frc consts  --      0.0593                 0.1133                 0.1428
 IR Inten    --      6.3116                 2.4738                 0.7985

                      7                      8                      9
                      A                      A                      A
 Frequencies --    431.5735               487.5682               557.4524
 Red. masses --      4.4180                 2.4057                 3.6826
 Frc consts  --      0.4848                 0.3369                 0.6743
 IR Inten    --      2.0155                 3.8162                 7.1039

                     10                     11                     12
                      A                      A                      A
 Frequencies --    640.7488               687.8378               741.2531
 Red. masses --      3.2216                 4.3607                 2.6090
 Frc consts  --      0.7793                 1.2156                 0.8446
 IR Inten    --      5.0785                 2.8414                 2.2705

                     13                     14                     15
                      A                      A                      A
 Frequencies --    802.9955               813.0077               856.7150
 Red. masses --      2.4499                 2.6093                 2.7209
 Frc consts  --      0.9307                 1.0162                 1.1766
 IR Inten    --      9.8833                 3.5783                 8.6483

                     16                     17                     18
                      A                      A                      A
 Frequencies --    895.1655               932.8706               972.2377
 Red. masses --      1.9412                 3.1821                 2.0414
 Frc consts  --      0.9165                 1.6316                 1.1369
 IR Inten    --      1.1079                49.9634                23.1819

                     19                     20                     21
                      A                      A                      A
 Frequencies --    992.6881              1020.2554              1036.0667
 Red. masses --      1.7184                 1.5051                 1.5930
 Frc consts  --      0.9977                 0.9231                 1.0075
 IR Inten    --     11.7628                 3.7453                 1.3270

                     22                     23                     24
                      A                      A                      A
 Frequencies --   1069.4178              1084.0017              1088.5388
 Red. masses --      2.4044                 1.7337                 2.0333
 Frc consts  --      1.6201                 1.2003                 1.4195
 IR Inten    --     36.8442                 6.2012                 3.3830

                     25                     26                     27
                      A                      A                      A
 Frequencies --   1110.7312              1123.4269              1160.9449
 Red. masses --      1.6917                 1.4006                 2.6758
 Frc consts  --      1.2297                 1.0415                 2.1248
 IR Inten    --      5.9588                 2.4287                 2.5143

                     28                     29                     30
                      A                      A                      A
 Frequencies --   1198.5318              1231.1456              1239.8642
 Red. masses --      1.5248                 1.7213                 1.5488
 Frc consts  --      1.2905                 1.5372                 1.4028
 IR Inten    --      1.5163                 8.3701                 2.3811

                     31                     32                     33
                      A                      A                      A
 Frequencies --   1266.1590              1286.4018              1329.4352
 Red. masses --      1.4629                 1.6464                 1.4890
 Frc consts  --      1.3818                 1.6053                 1.5505
 IR Inten    --      8.9612                 1.5759                 2.8212

                     34                     35                     36
                      A                      A                      A
 Frequencies --   1349.9807              1391.7978              1398.2237
 Red. masses --      1.4423                 1.3108                 1.2859
 Frc consts  --      1.5487                 1.4961                 1.4811
 IR Inten    --      1.6365                 2.2283                 3.9692

                     37                     38                     39
                      A                      A                      A
 Frequencies --   1411.8923              1484.0615              1498.6805
 Red. masses --      1.3242                 1.0475                 1.1245
 Frc consts  --      1.5553                 1.3593                 1.4880
 IR Inten    --      3.4982                 3.5240                 2.9803

                     40                     41                     42
                      A                      A                      A
 Frequencies --   1508.8008              1828.0650              2884.9710
 Red. masses --      1.0494                10.8708                 1.0840
 Frc consts  --      1.4075                21.4040                 5.3156
 IR Inten    --      6.5640               133.5048                86.0756

                     43                     44                     45
                      A                      A                      A
 Frequencies --   2978.6736              3037.1642              3069.8766
 Red. masses --      1.0816                 1.0364                 1.0712
 Frc consts  --      5.6542                 5.6325                 5.9479
 IR Inten    --     35.3302                21.3195                11.5981

                     46                     47                     48
                      A                      A                      A
 Frequencies --   3077.2182              3100.6517              3115.1092
 Red. masses --      1.0711                 1.1001                 1.1003
 Frc consts  --      5.9759                 6.2316                 6.2906
 IR Inten    --     27.3901                21.7931                20.9018

                     49                     50                     51
                      A                      A                      A
 Frequencies --   3138.2942              3141.6587              3149.1557
 Red. masses --      1.0935                 1.1063                 1.0915
 Frc consts  --      6.3454                 6.4331                 6.3778
 IR Inten    --     38.5057                32.2927                12.2846

 - Thermochemistry -
 -------------------
 Temperature   298.150 Kelvin.  Pressure   1.00000 Atm.
 Atom     1 has atomic number  6 and mass  12.00000

 Molecular mass:   126.06808 amu.
 Principal axes and moments of inertia in atomic units:
                           1         2         3
     Eigenvalues --   681.951281169.776281370.27992
           X            0.99951  -0.01237  -0.02859
           Y            0.01359   0.99899   0.04287
           Z            0.02803  -0.04324   0.99867
 This molecule is an asymmetric top.
 Rotational symmetry number  1.
 Warning -- assumption of classical behavior for rotation
           may cause significant error
 Rotational temperatures (Kelvin)      0.12701     0.07404     0.06321
 Rotational constants (GHZ):           2.64644     1.54281     1.31706
 Zero-point vibrational energy     417728.7 (Joules/Mol)
                                   99.83955 (Kcal/Mol)
 Warning -- explicit consideration of   9 degrees of freedom as
           vibrations may cause significant error
 Vibrational temperatures:    107.74   234.84   250.54   334.62   376.21
          (Kelvin)            447.73   620.94   701.50   802.05   921.89
                              989.64  1066.50  1155.33  1169.74  1232.62
                             1287.94  1342.19  1398.83  1428.25  1467.92
                             1490.67  1538.65  1559.63  1566.16  1598.09
                             1616.36  1670.34  1724.42  1771.34  1783.89
                             1821.72  1850.84  1912.76  1942.32  2002.48
                             2011.73  2031.40  2135.23  2156.26  2170.83
                             2630.17  4150.82  4285.64  4369.80  4416.86
                             4427.43  4461.14  4481.94  4515.30  4520.14
                             4530.93

 Zero-point correction=                           0.159104 (Hartree/Particle)
 Thermal correction to Energy=                    0.167123
 Thermal correction to Enthalpy=                  0.168067
 Thermal correction to Gibbs Free Energy=         0.126446
 Sum of electronic and zero-point Energies=           -423.011773
 Sum of electronic and thermal Energies=              -423.003755
 Sum of electronic and thermal Enthalpies=            -423.002811
 Sum of electronic and thermal Free Energies=         -423.044432

                     E (Thermal)             CV                S
                      KCal/Mol        Cal/Mol-Kelvin    Cal/Mol-Kelvin
 Total                  104.871             30.894             87.600
 Electronic               0.000              0.000              0.000
 Translational            0.889              2.981             40.409
 Rotational               0.889              2.981             28.482
 Vibrational            103.094             24.932             18.709
 Vibration     1          0.599              1.966              4.021
 Vibration     2          0.623              1.888              2.512
 Vibration     3          0.627              1.874              2.390
 Vibration     4          0.653              1.791              1.859
 Vibration     5          0.669              1.743              1.652
 Vibration     6          0.700              1.652              1.356
 Vibration     7          0.793              1.401              0.854
 Vibration     8          0.844              1.278              0.690
 Vibration     9          0.913              1.123              0.529

 Normal termination of Gaussian 09 at Mon Jan 27 23:52:48 2020.
