 Gaussian 09, Revision D.01,
 Gaussian 09:  ES64L-G09RevD.01 24-Apr-2013

 -----------------------------
 # b3lyp 6-31G(2df,p) opt Freq
 -----------------------------

 -----
 titel
 -----
 Symbolic Z-matrix:
 Charge =  0 Multiplicity = 1

 SCF Done:  E(RB3LYP) =  -423.160771823     A.U. after   13 cycles
 Optimization completed.
    -- Stationary point found.
 Normal termination of Gaussian 09 at Mon Jan 27 12:22:13 2020.

 ----------------------------------------------------------------------
 #N Geom=AllCheck Guess=TCheck SCRF=Check GenChk RB3LYP/6-31G(2df,p) Fr
 eq
 ----------------------------------------------------------------------

 Structure from the checkpoint file:  "/scratch/puck/g09_9b7b631e-2370-4316-853b-ccafac2bb10b/Gau-167240.chk"
 -----
 titel
 -----
 Charge =  0 Multiplicity = 1

                         Standard orientation:
 ---------------------------------------------------------------------
 Center     Atomic      Atomic             Coordinates (Angstroms)
 Number     Number       Type             X           Y           Z
 ---------------------------------------------------------------------
      1          6           0       -1.611035    0.192597   -1.012538
      2          6           0       -1.746230   -1.026831   -0.055475
      3          6           0       -0.840426   -0.298828    0.977749
      4          6           0       -0.987138    1.011252    0.158139
      5          8           0        0.288048    1.613077   -0.014404
      6          6           0        1.314747    0.710803    0.338471
      7          6           0        1.846445   -0.200283   -0.785312
      8          8           0        1.078431   -1.322301   -0.290937
      9          6           0        0.661095   -0.585960    0.885426
     10          1           0       -0.896880    0.020976   -1.819541
     11          1           0       -2.534183    0.592211   -1.438612
     12          1           0       -2.762457   -1.164536    0.320075
     13          1           0       -1.366985   -1.977622   -0.429600
     14          1           0       -1.170948   -0.286700    2.018431
     15          1           0       -1.659025    1.771227    0.565249
     16          1           0        2.061536    1.239816    0.934826
     17          1           0        1.567727    0.091024   -1.803168
     18          1           0        2.924219   -0.401285   -0.738325
     19          1           0        1.080414   -1.027820    1.794641
 ---------------------------------------------------------------------

 SCF Done:  E(RB3LYP) =  -423.160771823     A.U. after    1 cycles

 The electronic state is 1-A.
 Alpha  occ. eigenvalues --  -19.14235 -19.13665 -10.23553 -10.23531 -10.22871
 Alpha  occ. eigenvalues --  -10.22771 -10.18640 -10.18039 -10.17612  -1.05742
 Alpha  occ. eigenvalues --   -1.01963  -0.83632  -0.73972  -0.71185  -0.65315
 Alpha  occ. eigenvalues --   -0.63413  -0.55508  -0.55211  -0.52974  -0.47881
 Alpha  occ. eigenvalues --   -0.46637  -0.45244  -0.44757  -0.41796  -0.39510
 Alpha  occ. eigenvalues --   -0.38868  -0.37614  -0.34269  -0.33000  -0.30825
 Alpha  occ. eigenvalues --   -0.30233  -0.29147  -0.25635  -0.24527
 Alpha virt. eigenvalues --    0.06593   0.07713   0.10551   0.11542   0.12695
 Alpha virt. eigenvalues --    0.13922   0.14483   0.15489   0.15964   0.16915
 Alpha virt. eigenvalues --    0.18596   0.19424   0.19892   0.21263   0.22059

 Mulliken charges:
               1
     1  C   -0.249462
     2  C   -0.229749
     3  C   -0.074659
     4  C    0.121380
     5  O   -0.271680
     6  C    0.061235
     7  C   -0.102780
     8  O   -0.289717
     9  C    0.077559
    10  H    0.115335
    11  H    0.097228
    12  H    0.098786
    13  H    0.121076
    14  H    0.070495
    15  H    0.080630
    16  H    0.085933
    17  H    0.110901
    18  H    0.100588
    19  H    0.076900
 Sum of Mulliken charges =   0.00000

 Dipole moment (field-independent basis, Debye):
    X=             -0.1307    Y=              0.1841    Z=              0.8930  Tot=              0.9211
 Quadrupole moment (field-independent basis, Debye-Ang):
   XX=            -48.6480   YY=            -59.1160   ZZ=            -50.8855
   XY=              0.6034   XZ=             -0.0875   YZ=             -0.4751

  Exact polarizability:  84.422   0.443  65.583  -0.483  -0.805  69.708
 Approx polarizability: 111.766   0.350 101.433  -1.775  -0.981 103.579

                      1                      2                      3
                      A                      A                      A
 Frequencies --    103.8739               130.0394               252.6587
 Red. masses --      3.0205                 2.9937                 3.2060
 Frc consts  --      0.0192                 0.0298                 0.1206
 IR Inten    --      2.5209                 2.5850                 3.8323

                      4                      5                      6
                      A                      A                      A
 Frequencies --    354.6046               419.5822               482.9736
 Red. masses --      2.2544                 3.3808                 3.5256
 Frc consts  --      0.1670                 0.3507                 0.4845
 IR Inten    --      0.6103                 4.7822                 2.7605

                      7                      8                      9
                      A                      A                      A
 Frequencies --    614.8436               650.6877               714.0742
 Red. masses --      4.0165                 6.6117                 2.0014
 Frc consts  --      0.8946                 1.6493                 0.6013
 IR Inten    --      3.0559                 4.3622                 2.1671

                     10                     11                     12
                      A                      A                      A
 Frequencies --    746.7656               819.8026               833.1899
 Red. masses --      1.3734                 2.4377                 2.8360
 Frc consts  --      0.4512                 0.9653                 1.1600
 IR Inten    --      2.9947                 2.5059                 7.2232

                     13                     14                     15
                      A                      A                      A
 Frequencies --    865.6935               884.9552               919.5190
 Red. masses --      1.7927                 3.5681                 3.3415
 Frc consts  --      0.7916                 1.6464                 1.6646
 IR Inten    --      1.7025                12.6354                 3.1372

                     16                     17                     18
                      A                      A                      A
 Frequencies --    930.1609               951.0651               966.0333
 Red. masses --      1.9252                 2.4663                 2.5473
 Frc consts  --      0.9814                 1.3144                 1.4006
 IR Inten    --      9.8480                 3.7261                 5.9938

                     19                     20                     21
                      A                      A                      A
 Frequencies --   1014.6940              1028.2088              1053.7127
 Red. masses --      5.9584                 2.7836                 2.4650
 Frc consts  --      3.6145                 1.7339                 1.6126
 IR Inten    --     78.1924                39.8696                20.7993

                     22                     23                     24
                      A                      A                      A
 Frequencies --   1071.5871              1083.3178              1126.0038
 Red. masses --      2.1795                 2.1156                 1.8939
 Frc consts  --      1.4745                 1.4629                 1.4148
 IR Inten    --     15.4538                 7.6271                 8.5157

                     25                     26                     27
                      A                      A                      A
 Frequencies --   1146.6693              1177.9854              1194.5539
 Red. masses --      2.5285                 1.4328                 1.4581
 Frc consts  --      1.9588                 1.1715                 1.2259
 IR Inten    --     63.0905                39.7595                 8.9927

                     28                     29                     30
                      A                      A                      A
 Frequencies --   1229.2517              1238.3248              1242.0190
 Red. masses --      1.4486                 1.3654                 1.5709
 Frc consts  --      1.2897                 1.2336                 1.4278
 IR Inten    --      9.3076                 0.8548                 1.3063

                     31                     32                     33
                      A                      A                      A
 Frequencies --   1253.2394              1272.0008              1277.4178
 Red. masses --      1.3750                 1.5018                 1.5145
 Frc consts  --      1.2724                 1.4317                 1.4560
 IR Inten    --      2.2093                 4.9130                 4.1012

                     34                     35                     36
                      A                      A                      A
 Frequencies --   1323.5562              1329.2602              1351.8400
 Red. masses --      1.4965                 1.3625                 1.2529
 Frc consts  --      1.5446                 1.4184                 1.3490
 IR Inten    --      1.1808                 1.7518                 3.2534

                     37                     38                     39
                      A                      A                      A
 Frequencies --   1359.6379              1384.5472              1468.7955
 Red. masses --      1.3233                 1.4099                 1.0836
 Frc consts  --      1.4413                 1.5924                 1.3774
 IR Inten    --      2.7078                 8.3149                 2.3566

                     40                     41                     42
                      A                      A                      A
 Frequencies --   1486.8996              1511.6714              3018.9244
 Red. masses --      1.1247                 1.1003                 1.0588
 Frc consts  --      1.4650                 1.4814                 5.6853
 IR Inten    --      6.7386                 1.1332                64.0672

                     43                     44                     45
                      A                      A                      A
 Frequencies --   3053.7142              3068.2870              3073.0372
 Red. masses --      1.0871                 1.0722                 1.0750
 Frc consts  --      5.9725                 5.9473                 5.9816
 IR Inten    --     23.5428                13.1281                40.6801

                     46                     47                     48
                      A                      A                      A
 Frequencies --   3075.4808              3078.3038              3086.9240
 Red. masses --      1.0667                 1.1001                 1.0912
 Frc consts  --      5.9443                 6.1419                 6.1263
 IR Inten    --     34.4224                22.5720                71.9243

                     49                     50                     51
                      A                      A                      A
 Frequencies --   3092.9989              3126.5078              3143.2345
 Red. masses --      1.0885                 1.1051                 1.1063
 Frc consts  --      6.1351                 6.3647                 6.4396
 IR Inten    --     56.2190                 9.9954                28.1919

 - Thermochemistry -
 -------------------
 Temperature   298.150 Kelvin.  Pressure   1.00000 Atm.
 Atom     1 has atomic number  6 and mass  12.00000

 Molecular mass:   126.06808 amu.
 Principal axes and moments of inertia in atomic units:
                           1         2         3
     Eigenvalues --   643.00474 978.589181180.67600
           X            0.99971   0.02363   0.00363
           Y           -0.02360   0.99968  -0.00926
           Z           -0.00385   0.00918   0.99995
 This molecule is an asymmetric top.
 Rotational symmetry number  1.
 Warning -- assumption of classical behavior for rotation
           may cause significant error
 Rotational temperatures (Kelvin)      0.13470     0.08851     0.07336
 Rotational constants (GHZ):           2.80673     1.84423     1.52857
 Zero-point vibrational energy     425171.5 (Joules/Mol)
                                  101.61843 (Kcal/Mol)
 Warning -- explicit consideration of   7 degrees of freedom as
           vibrations may cause significant error
 Vibrational temperatures:    149.45   187.10   363.52   510.20   603.68
          (Kelvin)            694.89   884.62   936.19  1027.39  1074.43
                             1179.51  1198.77  1245.54  1273.25  1322.98
                             1338.29  1368.37  1389.90  1459.92  1479.36
                             1516.06  1541.77  1558.65  1620.07  1649.80
                             1694.86  1718.69  1768.62  1781.67  1786.99
                             1803.13  1830.12  1837.92  1904.30  1912.51
                             1944.99  1956.21  1992.05  2113.27  2139.31
                             2174.96  4343.55  4393.61  4414.58  4421.41
                             4424.93  4428.99  4441.39  4450.13  4498.34
                             4522.41

 Zero-point correction=                           0.161939 (Hartree/Particle)
 Thermal correction to Energy=                    0.168853
 Thermal correction to Enthalpy=                  0.169797
 Thermal correction to Gibbs Free Energy=         0.130499
 Sum of electronic and zero-point Energies=           -422.998833
 Sum of electronic and thermal Energies=              -422.991919
 Sum of electronic and thermal Enthalpies=            -422.990975
 Sum of electronic and thermal Free Energies=         -423.030273

                     E (Thermal)             CV                S
                      KCal/Mol        Cal/Mol-Kelvin    Cal/Mol-Kelvin
 Total                  105.957             27.877             82.710
 Electronic               0.000              0.000              0.000
 Translational            0.889              2.981             40.409
 Rotational               0.889              2.981             28.098
 Vibrational            104.179             21.915             14.203
 Vibration     1          0.605              1.946              3.380
 Vibration     2          0.612              1.923              2.945
 Vibration     3          0.664              1.758              1.712
 Vibration     4          0.730              1.566              1.146
 Vibration     5          0.782              1.428              0.893
 Vibration     6          0.839              1.288              0.702
 Vibration     7          0.974              1.000              0.425

 Optimization completed.
    -- Stationary point found.
 Normal termination of Gaussian 09 at Mon Jan 27 13:09:41 2020.
