 Gaussian 09, Revision D.01,
 Gaussian 09:  ES64L-G09RevD.01 24-Apr-2013

 -----------------------------
 # b3lyp 6-31G(2df,p) opt Freq
 -----------------------------

 -----
 titel
 -----
 Symbolic Z-matrix:
 Charge =  0 Multiplicity = 1

 SCF Done:  E(RB3LYP) =  -423.206271334     A.U. after   14 cycles
 Optimization completed.
    -- Stationary point found.
 Normal termination of Gaussian 09 at Tue Jan 28 04:05:25 2020.

 ----------------------------------------------------------------------
 #N Geom=AllCheck Guess=TCheck SCRF=Check GenChk RB3LYP/6-31G(2df,p) Fr
 eq
 ----------------------------------------------------------------------

 Structure from the checkpoint file:  "/scratch/puck/g09_8ba30b8a-9f8b-4634-ad1d-c8fcbd907d5c/Gau-91849.chk"
 -----
 titel
 -----
 Charge =  0 Multiplicity = 1

                         Standard orientation:
 ---------------------------------------------------------------------
 Center     Atomic      Atomic             Coordinates (Angstroms)
 Number     Number       Type             X           Y           Z
 ---------------------------------------------------------------------
      1          6           0        1.767142    1.582665   -0.555399
      2          6           0        1.220016    0.165422   -0.598483
      3          6           0        1.975451   -0.967989    0.150334
      4          6           0        0.604924   -1.549565    0.583786
      5          6           0       -0.063917   -0.200795    0.211739
      6          6           0       -0.685350    0.720229    1.277358
      7          8           0       -1.967686    0.688953    0.565586
      8          6           0       -1.453024   -0.132402   -0.408609
      9          8           0       -2.009485   -0.569621   -1.365174
     10          1           0        1.974499    1.905148    0.470956
     11          1           0        2.706687    1.645178   -1.114775
     12          1           0        1.068808    2.299487   -1.001345
     13          1           0        1.043216   -0.133897   -1.637524
     14          1           0        2.634574   -1.609248   -0.438653
     15          1           0        2.540609   -0.577369    1.002653
     16          1           0        0.259428   -2.347462   -0.078736
     17          1           0        0.493865   -1.879125    1.619479
     18          1           0       -0.790574    0.295065    2.278470
     19          1           0       -0.305191    1.742168    1.331818
 ---------------------------------------------------------------------

 SCF Done:  E(RB3LYP) =  -423.206271334     A.U. after    1 cycles

 The electronic state is 1-A.
 Alpha  occ. eigenvalues --  -19.17688 -19.13120 -10.30007 -10.25056 -10.21324
 Alpha  occ. eigenvalues --  -10.20628 -10.19995 -10.19368 -10.18859  -1.10055
 Alpha  occ. eigenvalues --   -1.02814  -0.86571  -0.74398  -0.72862  -0.67062
 Alpha  occ. eigenvalues --   -0.63594  -0.59082  -0.52206  -0.50489  -0.49890
 Alpha  occ. eigenvalues --   -0.47586  -0.45304  -0.43096  -0.42146  -0.40381
 Alpha  occ. eigenvalues --   -0.39909  -0.38742  -0.37661  -0.34914  -0.33865
 Alpha  occ. eigenvalues --   -0.31633  -0.31287  -0.29698  -0.26433
 Alpha virt. eigenvalues --    0.00645   0.06908   0.08312   0.09107   0.10898
 Alpha virt. eigenvalues --    0.12151   0.13191   0.14170   0.14907   0.16105
 Alpha virt. eigenvalues --    0.17847   0.17964   0.18690   0.19090   0.21610

 Mulliken charges:
               1
     1  C   -0.421803
     2  C   -0.014044
     3  C   -0.236493
     4  C   -0.291926
     5  C    0.112994
     6  C   -0.142583
     7  O   -0.250035
     8  C    0.420653
     9  O   -0.338615
    10  H    0.114623
    11  H    0.125140
    12  H    0.127260
    13  H    0.101178
    14  H    0.106568
    15  H    0.102880
    16  H    0.129708
    17  H    0.108780
    18  H    0.121463
    19  H    0.124252
 Sum of Mulliken charges =   0.00000

 Dipole moment (field-independent basis, Debye):
    X=              3.5884    Y=              0.3867    Z=              2.0512  Tot=              4.1513
 Quadrupole moment (field-independent basis, Debye-Ang):
   XX=            -60.8583   YY=            -52.0857   ZZ=            -53.3766
   XY=             -0.1228   XZ=             -3.9048   YZ=             -1.2389

  Exact polarizability:  79.266   0.291  72.782   1.271   2.759  73.117
 Approx polarizability: 109.390   0.464 103.671   6.089   9.994 116.252

                      1                      2                      3
                      A                      A                      A
 Frequencies --     81.0455               121.5729               136.0117
 Red. masses --      2.6372                 4.8277                 3.6262
 Frc consts  --      0.0102                 0.0420                 0.0395
 IR Inten    --      1.2782                 1.1000                 3.6867

                      4                      5                      6
                      A                      A                      A
 Frequencies --    221.6115               242.8979               279.0821
 Red. masses --      2.3960                 1.3791                 2.0405
 Frc consts  --      0.0693                 0.0479                 0.0936
 IR Inten    --      1.5733                 1.4585                 0.8774

                      7                      8                      9
                      A                      A                      A
 Frequencies --    358.7268               406.5004               486.9217
 Red. masses --      2.1714                 2.8098                 3.0611
 Frc consts  --      0.1646                 0.2736                 0.4276
 IR Inten    --      0.3240                 0.6028                 0.0435

                     10                     11                     12
                      A                      A                      A
 Frequencies --    621.2944               654.5330               698.3334
 Red. masses --      5.9751                 3.0141                 2.6584
 Frc consts  --      1.3589                 0.7608                 0.7638
 IR Inten    --      4.6103                 1.6700                 2.0700

                     13                     14                     15
                      A                      A                      A
 Frequencies --    781.7361               803.0773               878.1496
 Red. masses --      4.8980                 1.9039                 2.2555
 Frc consts  --      1.7635                 0.7234                 1.0248
 IR Inten    --      2.9566                 0.6806                 2.3097

                     16                     17                     18
                      A                      A                      A
 Frequencies --    894.2471               897.8995               939.9543
 Red. masses --      2.0403                 1.9124                 1.8162
 Frc consts  --      0.9613                 0.9084                 0.9454
 IR Inten    --      0.4940                 1.3091                18.1545

                     19                     20                     21
                      A                      A                      A
 Frequencies --    957.1307               969.9005              1058.1232
 Red. masses --      2.8479                 2.3095                 1.6950
 Frc consts  --      1.5371                 1.2800                 1.1182
 IR Inten    --     27.4090                32.6970                12.4576

                     22                     23                     24
                      A                      A                      A
 Frequencies --   1076.2286              1114.6768              1144.7413
 Red. masses --      2.1077                 3.5566                 2.1939
 Frc consts  --      1.4384                 2.6037                 1.6938
 IR Inten    --     14.1008               116.5270                 3.1856

                     25                     26                     27
                      A                      A                      A
 Frequencies --   1158.9796              1173.8055              1189.3485
 Red. masses --      1.3050                 1.7040                 2.3562
 Frc consts  --      1.0328                 1.3833                 1.9637
 IR Inten    --      1.1718                 5.9821                 5.7114

                     28                     29                     30
                      A                      A                      A
 Frequencies --   1205.5565              1254.4748              1269.9875
 Red. masses --      1.7530                 1.4785                 1.3932
 Frc consts  --      1.5011                 1.3708                 1.3239
 IR Inten    --      0.9786                 1.1563                 1.4544

                     31                     32                     33
                      A                      A                      A
 Frequencies --   1280.6668              1298.7794              1352.6630
 Red. masses --      1.9467                 1.4122                 1.8294
 Frc consts  --      1.8811                 1.4035                 1.9721
 IR Inten    --      2.2085                 5.7736                27.2973

                     34                     35                     36
                      A                      A                      A
 Frequencies --   1368.4037              1412.8343              1477.1269
 Red. masses --      1.4632                 1.2626                 1.0881
 Frc consts  --      1.6143                 1.4849                 1.3988
 IR Inten    --      4.3932                 2.2466                 2.9250

                     37                     38                     39
                      A                      A                      A
 Frequencies --   1492.2422              1499.2847              1500.3964
 Red. masses --      1.0629                 1.0792                 1.0724
 Frc consts  --      1.3945                 1.4292                 1.4224
 IR Inten    --      3.7740                 5.8774                 2.8311

                     40                     41                     42
                      A                      A                      A
 Frequencies --   1516.0729              1928.8465              3027.3839
 Red. masses --      1.0967                12.7759                 1.0355
 Frc consts  --      1.4851                28.0052                 5.5913
 IR Inten    --      2.1741               375.7815                17.6142

                     43                     44                     45
                      A                      A                      A
 Frequencies --   3045.3427              3054.5596              3063.3456
 Red. masses --      1.0813                 1.0630                 1.0589
 Frc consts  --      5.9082                 5.8438                 5.8545
 IR Inten    --      7.2005                31.1846                23.9039

                     46                     47                     48
                      A                      A                      A
 Frequencies --   3067.3861              3095.7441              3097.4054
 Red. masses --      1.0564                 1.1013                 1.1008
 Frc consts  --      5.8564                 6.2183                 6.2225
 IR Inten    --     27.5058                27.7676                20.2447

                     49                     50                     51
                      A                      A                      A
 Frequencies --   3106.5433              3122.1986              3128.0903
 Red. masses --      1.1058                 1.1075                 1.1118
 Frc consts  --      6.2874                 6.3611                 6.4097
 IR Inten    --     13.5810                34.3902                19.7809

 - Thermochemistry -
 -------------------
 Temperature   298.150 Kelvin.  Pressure   1.00000 Atm.
 Atom     1 has atomic number  6 and mass  12.00000

 Molecular mass:   126.06808 amu.
 Principal axes and moments of inertia in atomic units:
                           1         2         3
     Eigenvalues --   722.619901344.025441458.96541
           X            0.99964   0.01273  -0.02351
           Y           -0.01471   0.99617  -0.08619
           Z            0.02232   0.08651   0.99600
 This molecule is an asymmetric top.
 Rotational symmetry number  1.
 Warning -- assumption of classical behavior for rotation
           may cause significant error
 Rotational temperatures (Kelvin)      0.11986     0.06444     0.05937
 Rotational constants (GHZ):           2.49750     1.34279     1.23700
 Zero-point vibrational energy     418763.9 (Joules/Mol)
                                  100.08699 (Kcal/Mol)
 Warning -- explicit consideration of   9 degrees of freedom as
           vibrations may cause significant error
 Vibrational temperatures:    116.61   174.92   195.69   318.85   349.48
          (Kelvin)            401.54   516.13   584.86   700.57   893.90
                              941.73  1004.74  1124.74  1155.45  1263.46
                             1286.62  1291.88  1352.38  1377.10  1395.47
                             1522.40  1548.45  1603.77  1647.03  1667.51
                             1688.84  1711.21  1734.52  1804.91  1827.23
                             1842.59  1868.65  1946.18  1968.83  2032.75
                             2125.25  2147.00  2157.13  2158.73  2181.29
                             2775.18  4355.72  4381.56  4394.82  4407.47
                             4413.28  4454.08  4456.47  4469.62  4492.14
                             4500.62

 Zero-point correction=                           0.159499 (Hartree/Particle)
 Thermal correction to Energy=                    0.167953
 Thermal correction to Enthalpy=                  0.168897
 Thermal correction to Gibbs Free Energy=         0.126167
 Sum of electronic and zero-point Energies=           -423.046773
 Sum of electronic and thermal Energies=              -423.038318
 Sum of electronic and thermal Enthalpies=            -423.037374
 Sum of electronic and thermal Free Energies=         -423.080105

                     E (Thermal)             CV                S
                      KCal/Mol        Cal/Mol-Kelvin    Cal/Mol-Kelvin
 Total                  105.392             31.632             89.934
 Electronic               0.000              0.000              0.000
 Translational            0.889              2.981             40.409
 Rotational               0.889              2.981             28.740
 Vibrational            103.615             25.670             20.785
 Vibration     1          0.600              1.962              3.865
 Vibration     2          0.609              1.931              3.075
 Vibration     3          0.614              1.917              2.859
 Vibration     4          0.648              1.808              1.946
 Vibration     5          0.659              1.775              1.782
 Vibration     6          0.679              1.712              1.539
 Vibration     7          0.734              1.557              1.128
 Vibration     8          0.771              1.456              0.939
 Vibration     9          0.843              1.279              0.692

 Optimization completed.
    -- Stationary point found.
 Normal termination of Gaussian 09 at Tue Jan 28 04:46:23 2020.
