 Gaussian 09, Revision D.01,
 Gaussian 09:  ES64L-G09RevD.01 24-Apr-2013

 -----------------------------
 # b3lyp 6-31G(2df,p) opt Freq
 -----------------------------

 -----
 titel
 -----
 Symbolic Z-matrix:
 Charge =  0 Multiplicity = 1

 SCF Done:  E(RB3LYP) =  -423.203686788     A.U. after   14 cycles
 Optimization completed.
    -- Stationary point found.
 Normal termination of Gaussian 09 at Tue Jan 28 09:01:00 2020.

 ----------------------------------------------------------------------
 #N Geom=AllCheck Guess=TCheck SCRF=Check GenChk RB3LYP/6-31G(2df,p) Fr
 eq
 ----------------------------------------------------------------------

 Structure from the checkpoint file:  "/scratch/puck/g09_2ccaaf3e-3bae-4ecb-bf69-8caec87cf4ae/Gau-15939.chk"
 -----
 titel
 -----
 Charge =  0 Multiplicity = 1

                         Standard orientation:
 ---------------------------------------------------------------------
 Center     Atomic      Atomic             Coordinates (Angstroms)
 Number     Number       Type             X           Y           Z
 ---------------------------------------------------------------------
      1          6           0        2.320846   -1.521596   -0.153126
      2          6           0        1.207768   -0.965458    0.743153
      3          6           0        0.292991    0.097629    0.105293
      4          6           0       -0.962679    0.444918    0.961543
      5          6           0       -1.822696   -0.290172   -0.067328
      6          8           0       -2.962008   -0.650900   -0.097609
      7          6           0       -0.639132   -0.475194   -1.035413
      8          6           0        1.056196    1.314524   -0.369046
      9          8           0        0.795662    2.452039   -0.066650
     10          1           0        1.923378   -1.910257   -1.096684
     11          1           0        3.076644   -0.768960   -0.394587
     12          1           0        2.833629   -2.345582    0.351570
     13          1           0        0.565822   -1.793382    1.070363
     14          1           0        1.644864   -0.545431    1.657783
     15          1           0       -0.997804    0.054543    1.981997
     16          1           0       -1.156881    1.522180    0.985319
     17          1           0       -0.450217   -1.503749   -1.354811
     18          1           0       -0.719342    0.156524   -1.926575
     19          1           0        1.890921    1.097090   -1.070763
 ---------------------------------------------------------------------

 SCF Done:  E(RB3LYP) =  -423.203686788     A.U. after    1 cycles

 The electronic state is 1-A.
 Alpha  occ. eigenvalues --  -19.15209 -19.14228 -10.27966 -10.27771 -10.22031
 Alpha  occ. eigenvalues --  -10.20768 -10.20719 -10.19466 -10.19400  -1.05856
 Alpha  occ. eigenvalues --   -1.05153  -0.87026  -0.77889  -0.69576  -0.68950
 Alpha  occ. eigenvalues --   -0.63702  -0.55141  -0.53636  -0.50611  -0.47542
 Alpha  occ. eigenvalues --   -0.46538  -0.46025  -0.43198  -0.42833  -0.41915
 Alpha  occ. eigenvalues --   -0.40342  -0.39739  -0.38288  -0.36643  -0.35973
 Alpha  occ. eigenvalues --   -0.33697  -0.33143  -0.26157  -0.24909
 Alpha virt. eigenvalues --   -0.03428  -0.02550   0.07260   0.09761   0.11057
 Alpha virt. eigenvalues --    0.11967   0.12536   0.12847   0.15330   0.16093
 Alpha virt. eigenvalues --    0.17049   0.17779   0.18513   0.19227   0.21189

 Mulliken charges:
               1
     1  C   -0.398056
     2  C   -0.251052
     3  C    0.219204
     4  C   -0.402982
     5  C    0.418917
     6  O   -0.285575
     7  C   -0.406742
     8  C    0.103433
     9  O   -0.248356
    10  H    0.123498
    11  H    0.126642
    12  H    0.126559
    13  H    0.110201
    14  H    0.114951
    15  H    0.128896
    16  H    0.158442
    17  H    0.135232
    18  H    0.139917
    19  H    0.086873
 Sum of Mulliken charges =   0.00000

 Dipole moment (field-independent basis, Debye):
    X=              2.8954    Y=             -1.7977    Z=             -0.1946  Tot=              3.4136
 Quadrupole moment (field-independent basis, Debye-Ang):
   XX=            -62.3357   YY=            -59.7296   ZZ=            -50.5319
   XY=             -5.0614   XZ=             -0.4305   YZ=             -0.6915

  Exact polarizability:  85.851   0.363  75.700  -3.000   2.890  68.169
 Approx polarizability: 120.833   5.153 117.481  -3.469   6.999 103.208

                      1                      2                      3
                      A                      A                      A
 Frequencies --     35.8297                63.5208               102.5450
 Red. masses --      3.8567                 5.2498                 1.7867
 Frc consts  --      0.0029                 0.0125                 0.0111
 IR Inten    --      2.3425                 6.8751                 0.1025

                      4                      5                      6
                      A                      A                      A
 Frequencies --    194.5038               238.4278               253.2247
 Red. masses --      1.8278                 2.5819                 1.8344
 Frc consts  --      0.0407                 0.0865                 0.0693
 IR Inten    --      1.4187                 6.0685                 2.3135

                      7                      8                      9
                      A                      A                      A
 Frequencies --    298.0046               324.7512               383.1093
 Red. masses --      2.4798                 2.4856                 3.3226
 Frc consts  --      0.1298                 0.1545                 0.2873
 IR Inten    --      1.5951                 3.2343                 0.8477

                     10                     11                     12
                      A                      A                      A
 Frequencies --    418.0070               480.7338               569.4647
 Red. masses --      1.8100                 4.0534                 3.4286
 Frc consts  --      0.1863                 0.5519                 0.6551
 IR Inten    --      0.2193                 3.0583                 3.6836

                     13                     14                     15
                      A                      A                      A
 Frequencies --    655.2672               686.7813               749.5769
 Red. masses --      2.9377                 1.7811                 2.6491
 Frc consts  --      0.7432                 0.4950                 0.8770
 IR Inten    --      8.4058                 2.2356                 3.4354

                     16                     17                     18
                      A                      A                      A
 Frequencies --    781.0739               843.7198               901.2764
 Red. masses --      1.2210                 2.3055                 2.8874
 Frc consts  --      0.4389                 0.9670                 1.3819
 IR Inten    --      5.6719                17.0685                 4.9224

                     19                     20                     21
                      A                      A                      A
 Frequencies --    916.7709               999.6716              1012.5571
 Red. masses --      3.1634                 1.3439                 2.5013
 Frc consts  --      1.5665                 0.7913                 1.5109
 IR Inten    --      0.6490                 0.4818                 8.4705

                     22                     23                     24
                      A                      A                      A
 Frequencies --   1026.1905              1052.4071              1085.3190
 Red. masses --      1.3735                 1.9644                 2.8967
 Frc consts  --      0.8522                 1.2819                 2.0103
 IR Inten    --      0.4153                26.7617                36.6817

                     25                     26                     27
                      A                      A                      A
 Frequencies --   1124.5372              1156.4459              1176.2866
 Red. masses --      2.1089                 2.3048                 1.9614
 Frc consts  --      1.5713                 1.8161                 1.5989
 IR Inten    --      2.5077                 7.4147                11.6876

                     28                     29                     30
                      A                      A                      A
 Frequencies --   1200.8049              1244.2057              1262.8391
 Red. masses --      1.5813                 1.9069                 1.8298
 Frc consts  --      1.3434                 1.7392                 1.7193
 IR Inten    --      5.4922                 1.9510                 1.1023

                     31                     32                     33
                      A                      A                      A
 Frequencies --   1328.2301              1372.8686              1413.8081
 Red. masses --      1.3653                 1.4603                 1.2436
 Frc consts  --      1.4192                 1.6216                 1.4645
 IR Inten    --      3.9767                 3.9501                 9.2705

                     34                     35                     36
                      A                      A                      A
 Frequencies --   1425.1057              1428.5249              1443.3103
 Red. masses --      1.1320                 1.1578                 1.1115
 Frc consts  --      1.3545                 1.3921                 1.3642
 IR Inten    --     17.3202                 9.1934                 3.0446

                     37                     38                     39
                      A                      A                      A
 Frequencies --   1487.9042              1499.9754              1507.9912
 Red. masses --      1.0628                 1.0479                 1.0587
 Frc consts  --      1.3863                 1.3892                 1.4184
 IR Inten    --      0.6964                 4.1708                 3.4825

                     40                     41                     42
                      A                      A                      A
 Frequencies --   1818.9078              1896.9760              2891.9139
 Red. masses --     10.8339                12.7024                 1.0822
 Frc consts  --     21.1182                26.9315                 5.3324
 IR Inten    --    156.7819               303.6070                93.3778

                     43                     44                     45
                      A                      A                      A
 Frequencies --   3020.2010              3041.0886              3051.4531
 Red. masses --      1.0603                 1.0371                 1.0587
 Frc consts  --      5.6984                 5.6513                 5.8079
 IR Inten    --     17.7241                19.0560                 7.6556

                     46                     47                     48
                      A                      A                      A
 Frequencies --   3053.9673              3060.0041              3106.6795
 Red. masses --      1.1006                 1.0597                 1.1010
 Frc consts  --      6.0479                 5.8465                 6.2606
 IR Inten    --      9.6850                10.9432                29.7132

                     49                     50                     51
                      A                      A                      A
 Frequencies --   3109.9204              3114.2989              3116.1859
 Red. masses --      1.1044                 1.1015                 1.1047
 Frc consts  --      6.2934                 6.2945                 6.3203
 IR Inten    --      3.0505                29.9522                 4.3911

 - Thermochemistry -
 -------------------
 Temperature   298.150 Kelvin.  Pressure   1.00000 Atm.
 Atom     1 has atomic number  6 and mass  12.00000

 Molecular mass:   126.06808 amu.
 Principal axes and moments of inertia in atomic units:
                           1         2         3
     Eigenvalues --   844.370181374.029721861.35156
           X            0.99544  -0.09507  -0.00781
           Y            0.09512   0.99544   0.00734
           Z            0.00707  -0.00805   0.99994
 This molecule is an asymmetric top.
 Rotational symmetry number  1.
 Warning -- assumption of classical behavior for rotation
           may cause significant error
 Rotational temperatures (Kelvin)      0.10258     0.06304     0.04653
 Rotational constants (GHZ):           2.13738     1.31347     0.96959
 Zero-point vibrational energy     409285.4 (Joules/Mol)
                                   97.82155 (Kcal/Mol)
 Warning -- explicit consideration of  12 degrees of freedom as
           vibrations may cause significant error
 Vibrational temperatures:     51.55    91.39   147.54   279.85   343.04
          (Kelvin)            364.33   428.76   467.24   551.21   601.42
                              691.67   819.33   942.78   988.12  1078.47
                             1123.79  1213.92  1296.73  1319.03  1438.30
                             1456.84  1476.46  1514.18  1561.53  1617.96
                             1663.87  1692.41  1727.69  1790.13  1816.94
                             1911.02  1975.25  2034.15  2050.41  2055.33
                             2076.60  2140.76  2158.13  2169.66  2617.00
                             2729.32  4160.81  4345.39  4375.44  4390.35
                             4393.97  4402.66  4469.81  4474.48  4480.78
                             4483.49

 Zero-point correction=                           0.155889 (Hartree/Particle)
 Thermal correction to Energy=                    0.165452
 Thermal correction to Enthalpy=                  0.166396
 Thermal correction to Gibbs Free Energy=         0.120415
 Sum of electronic and zero-point Energies=           -423.047798
 Sum of electronic and thermal Energies=              -423.038234
 Sum of electronic and thermal Enthalpies=            -423.037290
 Sum of electronic and thermal Free Energies=         -423.083272

                     E (Thermal)             CV                S
                      KCal/Mol        Cal/Mol-Kelvin    Cal/Mol-Kelvin
 Total                  103.823             34.506             96.777
 Electronic               0.000              0.000              0.000
 Translational            0.889              2.981             40.409
 Rotational               0.889              2.981             29.159
 Vibrational            102.045             28.544             27.210
 Vibration     1          0.594              1.982              5.477
 Vibration     2          0.597              1.972              4.345
 Vibration     3          0.605              1.947              3.405
 Vibration     4          0.635              1.848              2.184
 Vibration     5          0.656              1.782              1.815
 Vibration     6          0.664              1.757              1.708
 Vibration     7          0.691              1.677              1.428
 Vibration     8          0.709              1.626              1.286
 Vibration     9          0.752              1.506              1.027
 Vibration    10          0.781              1.431              0.899
 Vibration    11          0.837              1.293              0.708
 Vibration    12          0.926              1.097              0.505

 Optimization completed.
    -- Stationary point found.
 Normal termination of Gaussian 09 at Tue Jan 28 09:42:01 2020.
