 Gaussian 09, Revision D.01,
 Gaussian 09:  ES64L-G09RevD.01 24-Apr-2013

 -----------------------------
 # b3lyp 6-31G(2df,p) opt Freq
 -----------------------------

 -----
 titel
 -----
 Symbolic Z-matrix:
 Charge =  0 Multiplicity = 1

 SCF Done:  E(RB3LYP) =  -423.115141395     A.U. after   13 cycles
 Optimization completed.
    -- Stationary point found.
 Normal termination of Gaussian 09 at Mon Jan 27 18:07:11 2020.

 ----------------------------------------------------------------------
 #N Geom=AllCheck Guess=TCheck SCRF=Check GenChk RB3LYP/6-31G(2df,p) Fr
 eq
 ----------------------------------------------------------------------

 Structure from the checkpoint file:  "/scratch/puck/g09_c161b8de-e98d-459a-99e0-61ade28b1f17/Gau-181620.chk"
 -----
 titel
 -----
 Charge =  0 Multiplicity = 1

                         Standard orientation:
 ---------------------------------------------------------------------
 Center     Atomic      Atomic             Coordinates (Angstroms)
 Number     Number       Type             X           Y           Z
 ---------------------------------------------------------------------
      1          8           0       -2.068621   -1.296961   -0.088770
      2          6           0       -1.014665   -0.395565    0.014361
      3          6           0       -0.193033   -0.086150    1.292885
      4          6           0        0.702922    0.589148    0.198042
      5          6           0        2.177856    0.212850    0.154624
      6          6           0        1.668981   -1.208902   -0.317909
      7          6           0        0.304950   -0.557626   -0.758585
      8          8           0       -0.028777    1.753079   -0.161573
      9          6           0       -1.307633    1.099623   -0.410775
     10          1           0       -2.780718   -1.007688    0.493361
     11          1           0       -0.625965    0.591528    2.032183
     12          1           0        0.237337   -0.963487    1.771882
     13          1           0        2.711670    0.721904   -0.652491
     14          1           0        2.756516    0.285102    1.078835
     15          1           0        2.223008   -1.639872   -1.152193
     16          1           0        1.616354   -1.949307    0.480542
     17          1           0        0.274758   -0.355352   -1.831005
     18          1           0       -2.087035    1.553519    0.212923
     19          1           0       -1.583014    1.194447   -1.467148
 ---------------------------------------------------------------------

 SCF Done:  E(RB3LYP) =  -423.115141395     A.U. after    1 cycles

 The electronic state is 1-A.
 Alpha  occ. eigenvalues --  -19.14622 -19.13748 -10.25052 -10.23836 -10.22817
 Alpha  occ. eigenvalues --  -10.19530 -10.19242 -10.17886 -10.17883  -1.04750
 Alpha  occ. eigenvalues --   -1.02524  -0.86805  -0.77154  -0.69619  -0.65800
 Alpha  occ. eigenvalues --   -0.62830  -0.58015  -0.52833  -0.50975  -0.50181
 Alpha  occ. eigenvalues --   -0.46961  -0.44397  -0.43163  -0.41776  -0.38257
 Alpha  occ. eigenvalues --   -0.37219  -0.36918  -0.35066  -0.33891  -0.32692
 Alpha  occ. eigenvalues --   -0.31161  -0.29573  -0.25192  -0.22937
 Alpha virt. eigenvalues --    0.05996   0.08749   0.09710   0.10597   0.12353
 Alpha virt. eigenvalues --    0.14104   0.14846   0.15252   0.16603   0.17159
 Alpha virt. eigenvalues --    0.18672   0.19482   0.19844   0.21531   0.22908

 Mulliken charges:
               1
     1  O   -0.480708
     2  C    0.333526
     3  C   -0.359182
     4  C    0.460535
     5  C   -0.324472
     6  C   -0.286496
     7  C   -0.069400
     8  O   -0.338100
     9  C   -0.145902
    10  H    0.279584
    11  H    0.092860
    12  H    0.108402
    13  H    0.117640
    14  H    0.103156
    15  H    0.111200
    16  H    0.117573
    17  H    0.076256
    18  H    0.095541
    19  H    0.107987
 Sum of Mulliken charges =   0.00000

 Dipole moment (field-independent basis, Debye):
    X=             -0.2623    Y=             -0.4637    Z=              0.8667  Tot=              1.0173
 Quadrupole moment (field-independent basis, Debye-Ang):
   XX=            -47.1284   YY=            -59.9315   ZZ=            -51.4001
   XY=             -3.3075   XZ=             -2.7882   YZ=             -1.0958

  Exact polarizability:  87.206  -4.961  67.656  -1.120  -0.015  69.149
 Approx polarizability: 118.414  -3.269 104.992  -0.910   1.036 106.145

                      1                      2                      3
                      A                      A                      A
 Frequencies --    230.8792               252.8108               267.6076
 Red. masses --      1.3236                 3.5387                 1.5895
 Frc consts  --      0.0416                 0.1333                 0.0671
 IR Inten    --     43.2523                 8.0679                33.5821

                      4                      5                      6
                      A                      A                      A
 Frequencies --    309.1651               361.7359               409.3928
 Red. masses --      2.6193                 3.3799                 3.5647
 Frc consts  --      0.1475                 0.2606                 0.3520
 IR Inten    --      9.3881                 7.8035                13.0067

                      7                      8                      9
                      A                      A                      A
 Frequencies --    476.3731               507.2594               567.5599
 Red. masses --      2.6431                 2.3120                 3.0472
 Frc consts  --      0.3534                 0.3505                 0.5783
 IR Inten    --      3.5457                 1.5018                 2.9328

                     10                     11                     12
                      A                      A                      A
 Frequencies --    606.5441               645.0134               710.6073
 Red. masses --      4.7586                 3.5870                 2.3075
 Frc consts  --      1.0315                 0.8793                 0.6865
 IR Inten    --      0.6272                 4.1053                 1.1723

                     13                     14                     15
                      A                      A                      A
 Frequencies --    765.5315               810.9744               858.3693
 Red. masses --      2.0130                 1.9727                 2.6769
 Frc consts  --      0.6951                 0.7644                 1.1621
 IR Inten    --      0.8082                 4.6777                19.5250

                     16                     17                     18
                      A                      A                      A
 Frequencies --    863.9805               904.6334               946.0604
 Red. masses --      2.5603                 2.5414                 2.4270
 Frc consts  --      1.1260                 1.2254                 1.2798
 IR Inten    --      3.4370                 6.6066                 9.9947

                     19                     20                     21
                      A                      A                      A
 Frequencies --    969.8436               982.3507              1031.0340
 Red. masses --      2.4369                 2.5362                 2.3523
 Frc consts  --      1.3505                 1.4420                 1.4733
 IR Inten    --     20.3820                45.7433                 3.4990

                     22                     23                     24
                      A                      A                      A
 Frequencies --   1039.7563              1056.0204              1096.8415
 Red. masses --      2.3803                 1.8394                 1.5828
 Frc consts  --      1.5162                 1.2086                 1.1219
 IR Inten    --     11.9220                 5.6986                 4.6144

                     25                     26                     27
                      A                      A                      A
 Frequencies --   1104.1393              1140.9944              1158.3883
 Red. masses --      1.5433                 1.8279                 1.7468
 Frc consts  --      1.1085                 1.4021                 1.3810
 IR Inten    --     32.5427                19.7865                 4.4201

                     28                     29                     30
                      A                      A                      A
 Frequencies --   1170.9525              1199.1599              1212.2914
 Red. masses --      1.2285                 1.6686                 1.3217
 Frc consts  --      0.9925                 1.4137                 1.1444
 IR Inten    --     13.8420                22.3737                 6.0119

                     31                     32                     33
                      A                      A                      A
 Frequencies --   1225.2048              1245.2179              1252.6280
 Red. masses --      1.4549                 2.4708                 1.4801
 Frc consts  --      1.2867                 2.2573                 1.3684
 IR Inten    --     30.0450               178.8316                10.3494

                     34                     35                     36
                      A                      A                      A
 Frequencies --   1322.3001              1335.3170              1338.5536
 Red. masses --      2.8832                 1.7446                 1.3716
 Frc consts  --      2.9702                 1.8328                 1.4480
 IR Inten    --     25.3491                15.0458                22.4324

                     37                     38                     39
                      A                      A                      A
 Frequencies --   1392.7667              1473.1734              1489.0587
 Red. masses --      1.9765                 1.1003                 1.1347
 Frc consts  --      2.2589                 1.4070                 1.4823
 IR Inten    --     11.5037                 1.9535                 1.7867

                     40                     41                     42
                      A                      A                      A
 Frequencies --   1505.3038              1520.3857              3024.2858
 Red. masses --      1.1131                 1.1398                 1.0555
 Frc consts  --      1.4860                 1.5523                 5.6877
 IR Inten    --      3.8684                 3.1490                59.8288

                     43                     44                     45
                      A                      A                      A
 Frequencies --   3059.3414              3073.9535              3077.6612
 Red. masses --      1.0572                 1.1010                 1.0697
 Frc consts  --      5.8297                 6.1294                 5.9697
 IR Inten    --     42.6660                 3.9222                52.6527

                     46                     47                     48
                      A                      A                      A
 Frequencies --   3087.0306              3091.1995              3113.8730
 Red. masses --      1.0696                 1.0778                 1.1090
 Frc consts  --      6.0054                 6.0678                 6.3356
 IR Inten    --     30.8002                18.5610                11.9340

                     49                     50                     51
                      A                      A                      A
 Frequencies --   3142.8337              3158.7603              3792.4529
 Red. masses --      1.1088                 1.1047                 1.0656
 Frc consts  --      6.4525                 6.4942                 9.0300
 IR Inten    --     28.7821                20.7423                16.1792

 - Thermochemistry -
 -------------------
 Temperature   298.150 Kelvin.  Pressure   1.00000 Atm.
 Atom     1 has atomic number  8 and mass  15.99491

 Molecular mass:   126.06808 amu.
 Principal axes and moments of inertia in atomic units:
                           1         2         3
     Eigenvalues --   640.319821018.908301317.72457
           X            0.99775  -0.06674  -0.00696
           Y            0.06666   0.99771  -0.01117
           Z            0.00769   0.01068   0.99991
 This molecule is an asymmetric top.
 Rotational symmetry number  1.
 Warning -- assumption of classical behavior for rotation
           may cause significant error
 Rotational temperatures (Kelvin)      0.13527     0.08501     0.06573
 Rotational constants (GHZ):           2.81850     1.77125     1.36959
 Zero-point vibrational energy     420951.4 (Joules/Mol)
                                  100.60979 (Kcal/Mol)
 Warning -- explicit consideration of  10 degrees of freedom as
           vibrations may cause significant error
 Vibrational temperatures:    332.18   363.74   385.03   444.82   520.46
          (Kelvin)            589.02   685.39   729.83   816.59   872.68
                              928.03  1022.40  1101.43  1166.81  1235.00
                             1243.07  1301.56  1361.17  1395.39  1413.38
                             1483.43  1495.98  1519.38  1578.11  1588.61
                             1641.63  1666.66  1684.74  1725.32  1744.21
                             1762.79  1791.59  1802.25  1902.49  1921.22
                             1925.88  2003.88  2119.57  2142.42  2165.79
                             2187.49  4351.27  4401.70  4422.73  4428.06
                             4441.54  4447.54  4480.16  4521.83  4544.75
                             5456.49

 Zero-point correction=                           0.160332 (Hartree/Particle)
 Thermal correction to Energy=                    0.167527
 Thermal correction to Enthalpy=                  0.168471
 Thermal correction to Gibbs Free Energy=         0.129372
 Sum of electronic and zero-point Energies=           -422.954809
 Sum of electronic and thermal Energies=              -422.947615
 Sum of electronic and thermal Enthalpies=            -422.946671
 Sum of electronic and thermal Free Energies=         -422.985770

                     E (Thermal)             CV                S
                      KCal/Mol        Cal/Mol-Kelvin    Cal/Mol-Kelvin
 Total                  105.125             30.519             82.291
 Electronic               0.000              0.000              0.000
 Translational            0.889              2.981             40.409
 Rotational               0.889              2.981             28.243
 Vibrational            103.347             24.557             13.639
 Vibration     1          0.653              1.794              1.872
 Vibration     2          0.664              1.758              1.711
 Vibration     3          0.673              1.733              1.612
 Vibration     4          0.699              1.656              1.367
 Vibration     5          0.736              1.551              1.115
 Vibration     6          0.774              1.450              0.929
 Vibration     7          0.833              1.302              0.720
 Vibration     8          0.862              1.234              0.640
 Vibration     9          0.924              1.101              0.509
 Vibration    10          0.965              1.018              0.439

 Optimization completed.
    -- Stationary point found.
 Normal termination of Gaussian 09 at Mon Jan 27 18:54:28 2020.
