 Gaussian 09, Revision D.01,
 Gaussian 09:  ES64L-G09RevD.01 24-Apr-2013

 -----------------------------
 # b3lyp 6-31G(2df,p) opt Freq
 -----------------------------

 -----
 titel
 -----
 Symbolic Z-matrix:
 Charge =  0 Multiplicity = 1

 SCF Done:  E(RB3LYP) =  -423.179482614     A.U. after   13 cycles
 Optimization completed.
    -- Stationary point found.
 Normal termination of Gaussian 09 at Mon Jan 27 18:07:12 2020.

 ----------------------------------------------------------------------
 #N Geom=AllCheck Guess=TCheck SCRF=Check GenChk RB3LYP/6-31G(2df,p) Fr
 eq
 ----------------------------------------------------------------------

 Structure from the checkpoint file:  "/scratch/puck/g09_2d8b10c4-d14e-4bea-9661-438465458b88/Gau-88634.chk"
 -----
 titel
 -----
 Charge =  0 Multiplicity = 1

                         Standard orientation:
 ---------------------------------------------------------------------
 Center     Atomic      Atomic             Coordinates (Angstroms)
 Number     Number       Type             X           Y           Z
 ---------------------------------------------------------------------
      1          8           0       -2.108972   -1.071186    0.015781
      2          6           0       -1.040816   -0.182237    0.063118
      3          6           0       -1.153365    1.318857   -0.352453
      4          6           0        0.362574    1.167923   -0.590748
      5          6           0        0.096493   -0.296544   -1.012605
      6          8           0        1.213563   -1.107390   -0.708478
      7          6           0        1.990052   -0.364149    0.247625
      8          6           0        1.007528    0.697314    0.753122
      9          6           0       -0.205909   -0.074521    1.356582
     10          1           0       -2.644580   -0.953593    0.807797
     11          1           0       -1.707095    1.449363   -1.285212
     12          1           0       -1.499100    2.034713    0.398186
     13          1           0        0.936247    1.856935   -1.208102
     14          1           0       -0.256274   -0.490602   -2.025438
     15          1           0        2.334641   -1.044549    1.033565
     16          1           0        2.869048    0.078885   -0.244252
     17          1           0        1.449869    1.465787    1.387869
     18          1           0        0.075594   -1.053482    1.753980
     19          1           0       -0.734425    0.485300    2.135334
 ---------------------------------------------------------------------

 SCF Done:  E(RB3LYP) =  -423.179482614     A.U. after    1 cycles

 The electronic state is 1-A.
 Alpha  occ. eigenvalues --  -19.14099 -19.13244 -10.23542 -10.22516 -10.22376
 Alpha  occ. eigenvalues --  -10.19511 -10.18994 -10.18257 -10.18037  -1.03881
 Alpha  occ. eigenvalues --   -1.02240  -0.87353  -0.75908  -0.69914  -0.66261
 Alpha  occ. eigenvalues --   -0.62127  -0.55769  -0.54772  -0.53052  -0.48431
 Alpha  occ. eigenvalues --   -0.47820  -0.44742  -0.42130  -0.40633  -0.39382
 Alpha  occ. eigenvalues --   -0.36964  -0.36161  -0.35678  -0.33233  -0.32814
 Alpha  occ. eigenvalues --   -0.31828  -0.29714  -0.25756  -0.23326
 Alpha virt. eigenvalues --    0.07465   0.09487   0.11194   0.12446   0.13071
 Alpha virt. eigenvalues --    0.14052   0.15139   0.16239   0.17024   0.17130
 Alpha virt. eigenvalues --    0.18144   0.19034   0.20426   0.21778   0.22570

 Mulliken charges:
               1
     1  O   -0.490757
     2  C    0.387792
     3  C   -0.317356
     4  C   -0.068192
     5  C    0.105810
     6  O   -0.281763
     7  C   -0.078463
     8  C   -0.057956
     9  C   -0.287630
    10  H    0.278658
    11  H    0.104944
    12  H    0.089279
    13  H    0.070688
    14  H    0.087885
    15  H    0.104605
    16  H    0.089970
    17  H    0.068609
    18  H    0.106993
    19  H    0.086886
 Sum of Mulliken charges =   0.00000

 Dipole moment (field-independent basis, Debye):
    X=             -0.2132    Y=              2.0270    Z=              1.7216  Tot=              2.6680
 Quadrupole moment (field-independent basis, Debye-Ang):
   XX=            -50.9201   YY=            -56.5644   ZZ=            -50.6994
   XY=              0.5639   XZ=             -1.5299   YZ=             -2.4929

  Exact polarizability:  81.304  -0.881  68.040   0.729  -2.181  70.799
 Approx polarizability: 112.556   0.232 105.466   0.496  -0.181 106.486

                      1                      2                      3
                      A                      A                      A
 Frequencies --    213.5039               230.4047               262.7200
 Red. masses --      1.1041                 3.0581                 5.0517
 Frc consts  --      0.0297                 0.0957                 0.2054
 IR Inten    --     73.7984                14.9216                 0.6092

                      4                      5                      6
                      A                      A                      A
 Frequencies --    361.4762               390.6916               456.9833
 Red. masses --      3.2140                 2.0777                 2.3734
 Frc consts  --      0.2474                 0.1869                 0.2920
 IR Inten    --     14.1655                 1.7474                 2.7976

                      7                      8                      9
                      A                      A                      A
 Frequencies --    482.1663               562.6986               636.8295
 Red. masses --      2.3056                 4.6168                 4.7052
 Frc consts  --      0.3158                 0.8613                 1.1243
 IR Inten    --      8.1122                 0.1020                 7.2034

                     10                     11                     12
                      A                      A                      A
 Frequencies --    728.4388               767.1736               815.2793
 Red. masses --      4.3860                 4.0231                 3.7801
 Frc consts  --      1.3712                 1.3951                 1.4804
 IR Inten    --      6.9555                 2.2756                 1.0759

                     13                     14                     15
                      A                      A                      A
 Frequencies --    839.1251               866.3475               883.2170
 Red. masses --      2.2310                 3.0252                 2.1531
 Frc consts  --      0.9256                 1.3378                 0.9896
 IR Inten    --      2.8645                 4.7217                 0.7338

                     16                     17                     18
                      A                      A                      A
 Frequencies --    914.8810               937.1924               970.9276
 Red. masses --      1.8136                 2.9366                 1.6719
 Frc consts  --      0.8944                 1.5197                 0.9286
 IR Inten    --      5.6624                13.5975                 5.6433

                     19                     20                     21
                      A                      A                      A
 Frequencies --    976.8373               997.9556              1008.7885
 Red. masses --      2.0910                 1.7210                 1.5997
 Frc consts  --      1.1756                 1.0098                 0.9591
 IR Inten    --      9.8786                 5.2219                 4.5047

                     22                     23                     24
                      A                      A                      A
 Frequencies --   1073.0346              1081.2362              1103.8959
 Red. masses --      1.3419                 2.9150                 2.1449
 Frc consts  --      0.9103                 2.0078                 1.5400
 IR Inten    --      7.0610                63.8574                72.4741

                     25                     26                     27
                      A                      A                      A
 Frequencies --   1120.4725              1128.6935              1163.9235
 Red. masses --      1.9162                 1.9094                 1.5405
 Frc consts  --      1.4174                 1.4332                 1.2296
 IR Inten    --     33.6693                17.7597                 7.2902

                     28                     29                     30
                      A                      A                      A
 Frequencies --   1182.9300              1206.9857              1224.8333
 Red. masses --      1.4188                 1.3411                 1.4907
 Frc consts  --      1.1698                 1.1511                 1.3176
 IR Inten    --      0.4178                 2.0573                 2.8054

                     31                     32                     33
                      A                      A                      A
 Frequencies --   1231.9938              1256.6489              1273.3057
 Red. masses --      1.5220                 2.4793                 1.4845
 Frc consts  --      1.3610                 2.3068                 1.4180
 IR Inten    --      0.9469                63.9110                 0.8924

                     34                     35                     36
                      A                      A                      A
 Frequencies --   1312.7166              1319.3210              1339.4701
 Red. masses --      1.6273                 1.4787                 1.8455
 Frc consts  --      1.6522                 1.5165                 1.9508
 IR Inten    --     12.3667                14.4514                90.4149

                     37                     38                     39
                      A                      A                      A
 Frequencies --   1384.0142              1396.3511              1489.1248
 Red. masses --      1.5817                 1.7294                 1.0980
 Frc consts  --      1.7851                 1.9867                 1.4345
 IR Inten    --      1.3178                10.7717                 1.8783

                     40                     41                     42
                      A                      A                      A
 Frequencies --   1512.3757              1523.6171              2990.6246
 Red. masses --      1.1480                 1.0948                 1.0678
 Frc consts  --      1.5471                 1.4973                 5.6269
 IR Inten    --      4.7692                 0.1757                80.4356

                     43                     44                     45
                      A                      A                      A
 Frequencies --   3042.3832              3058.0148              3067.1855
 Red. masses --      1.0603                 1.0574                 1.0968
 Frc consts  --      5.7826                 5.8258                 6.0793
 IR Inten    --     30.7944                38.2329                33.0291

                     46                     47                     48
                      A                      A                      A
 Frequencies --   3096.7305              3108.7706              3118.6652
 Red. masses --      1.1036                 1.0892                 1.1074
 Frc consts  --      6.2352                 6.2020                 6.3460
 IR Inten    --     24.3810                30.4822                16.4484

                     49                     50                     51
                      A                      A                      A
 Frequencies --   3124.1900              3134.8037              3802.4268
 Red. masses --      1.0891                 1.0923                 1.0659
 Frc consts  --      6.2629                 6.3241                 9.0801
 IR Inten    --     33.1451                34.2779                17.6497

 - Thermochemistry -
 -------------------
 Temperature   298.150 Kelvin.  Pressure   1.00000 Atm.
 Atom     1 has atomic number  8 and mass  15.99491

 Molecular mass:   126.06808 amu.
 Principal axes and moments of inertia in atomic units:
                           1         2         3
     Eigenvalues --   621.554371033.496791125.37660
           X            0.99987  -0.01285   0.00932
           Y            0.01381   0.99366  -0.11155
           Z           -0.00783   0.11167   0.99371
 This molecule is an asymmetric top.
 Rotational symmetry number  1.
 Warning -- assumption of classical behavior for rotation
           may cause significant error
 Rotational temperatures (Kelvin)      0.13935     0.08381     0.07696
 Rotational constants (GHZ):           2.90359     1.74625     1.60368
 Zero-point vibrational energy     425705.3 (Joules/Mol)
                                  101.74602 (Kcal/Mol)
 Warning -- explicit consideration of   8 degrees of freedom as
           vibrations may cause significant error
 Vibrational temperatures:    307.18   331.50   378.00   520.08   562.12
          (Kelvin)            657.50   693.73   809.60   916.25  1048.06
                             1103.79  1173.00  1207.31  1246.48  1270.75
                             1316.31  1348.41  1396.95  1405.45  1435.83
                             1451.42  1543.86  1555.66  1588.26  1612.11
                             1623.94  1674.62  1701.97  1736.58  1762.26
                             1772.56  1808.04  1832.00  1888.70  1898.21
                             1927.20  1991.29  2009.04  2142.52  2175.97
                             2192.14  4302.84  4377.31  4399.80  4412.99
                             4455.50  4472.82  4487.06  4495.01  4510.28
                             5470.84

 Zero-point correction=                           0.162143 (Hartree/Particle)
 Thermal correction to Energy=                    0.168981
 Thermal correction to Enthalpy=                  0.169925
 Thermal correction to Gibbs Free Energy=         0.131403
 Sum of electronic and zero-point Energies=           -423.017340
 Sum of electronic and thermal Energies=              -423.010502
 Sum of electronic and thermal Enthalpies=            -423.009558
 Sum of electronic and thermal Free Energies=         -423.048080

                     E (Thermal)             CV                S
                      KCal/Mol        Cal/Mol-Kelvin    Cal/Mol-Kelvin
 Total                  106.037             28.919             81.076
 Electronic               0.000              0.000              0.000
 Translational            0.889              2.981             40.409
 Rotational               0.889              2.981             28.071
 Vibrational            104.260             22.957             12.597
 Vibration     1          0.644              1.820              2.014
 Vibration     2          0.652              1.795              1.876
 Vibration     3          0.670              1.741              1.644
 Vibration     4          0.736              1.552              1.116
 Vibration     5          0.758              1.490              0.998
 Vibration     6          0.815              1.345              0.775
 Vibration     7          0.838              1.290              0.704
 Vibration     8          0.918              1.112              0.518

 Optimization completed.
    -- Stationary point found.
 Normal termination of Gaussian 09 at Mon Jan 27 18:52:52 2020.
