 Gaussian 09, Revision D.01,
 Gaussian 09:  ES64L-G09RevD.01 24-Apr-2013

 -----------------------------
 # b3lyp 6-31G(2df,p) opt Freq
 -----------------------------

 -----
 titel
 -----
 Symbolic Z-matrix:
 Charge =  0 Multiplicity = 1

 SCF Done:  E(RB3LYP) =  -423.109350078     A.U. after   13 cycles
 Optimization completed.
    -- Stationary point found.
 Normal termination of Gaussian 09 at Tue Jan 28 14:02:59 2020.

 ----------------------------------------------------------------------
 #N Geom=AllCheck Guess=TCheck SCRF=Check GenChk RB3LYP/6-31G(2df,p) Fr
 eq
 ----------------------------------------------------------------------

 Structure from the checkpoint file:  "/scratch/puck/g09_7fc9e0b8-8df0-49a7-b1a1-d96281401b8f/Gau-71020.chk"
 -----
 titel
 -----
 Charge =  0 Multiplicity = 1

                         Standard orientation:
 ---------------------------------------------------------------------
 Center     Atomic      Atomic             Coordinates (Angstroms)
 Number     Number       Type             X           Y           Z
 ---------------------------------------------------------------------
      1          6           0        2.856037    0.637124    0.171256
      2          8           0        1.906637   -0.179995   -0.476410
      3          6           0        0.593699    0.273291   -0.324408
      4          6           0       -0.121616   -0.171484    0.989032
      5          8           0       -0.181331   -1.520179    0.407504
      6          6           0       -0.412077   -0.776525   -0.841725
      7          6           0       -1.808948   -0.175755   -0.591500
      8          6           0       -1.959428    1.284954   -0.242078
      9          6           0       -1.581318    0.299353    0.838220
     10          1           0        2.718295    0.648137    1.262604
     11          1           0        3.841917    0.223996   -0.053113
     12          1           0        2.814667    1.676531   -0.191824
     13          1           0        0.519812    1.317476   -0.647996
     14          1           0        0.344867   -0.135822    1.973041
     15          1           0       -0.230629   -1.358821   -1.744118
     16          1           0       -2.676240   -0.757384   -0.878652
     17          1           0       -1.270740    2.037589   -0.603787
     18          1           0       -2.984639    1.641805   -0.196646
     19          1           0       -2.277856    0.082138    1.638953
 ---------------------------------------------------------------------

 SCF Done:  E(RB3LYP) =  -423.109350078     A.U. after    1 cycles

 The electronic state is 1-A.
 Alpha  occ. eigenvalues --  -19.14323 -19.12342 -10.23751 -10.23701 -10.23615
 Alpha  occ. eigenvalues --  -10.22624 -10.19722 -10.19445 -10.19421  -1.05830
 Alpha  occ. eigenvalues --   -1.01954  -0.86498  -0.74004  -0.69853  -0.67483
 Alpha  occ. eigenvalues --   -0.62372  -0.55564  -0.54376  -0.53134  -0.51043
 Alpha  occ. eigenvalues --   -0.46411  -0.45496  -0.45090  -0.42990  -0.40789
 Alpha  occ. eigenvalues --   -0.38713  -0.35983  -0.35089  -0.33589  -0.31642
 Alpha  occ. eigenvalues --   -0.29576  -0.27374  -0.24958  -0.24112
 Alpha virt. eigenvalues --    0.08493   0.09338   0.09793   0.10156   0.11828
 Alpha virt. eigenvalues --    0.12905   0.13452   0.14771   0.15912   0.16131
 Alpha virt. eigenvalues --    0.17745   0.18872   0.20357   0.21640   0.22438

 Mulliken charges:
               1
     1  C   -0.244960
     2  O   -0.250474
     3  C    0.157100
     4  C    0.013190
     5  O   -0.299083
     6  C    0.024934
     7  C   -0.046275
     8  C   -0.311056
     9  C   -0.045036
    10  H    0.107938
    11  H    0.131587
    12  H    0.103039
    13  H    0.060615
    14  H    0.080064
    15  H    0.084926
    16  H    0.100239
    17  H    0.120356
    18  H    0.113577
    19  H    0.099320
 Sum of Mulliken charges =   0.00000

 Dipole moment (field-independent basis, Debye):
    X=             -0.5150    Y=              2.3713    Z=              0.1546  Tot=              2.4315
 Quadrupole moment (field-independent basis, Debye-Ang):
   XX=            -48.4785   YY=            -56.3163   ZZ=            -51.6704
   XY=              2.1536   XZ=              1.6882   YZ=              1.4191

  Exact polarizability:  87.250  -1.470  68.172   1.810   0.926  67.478
 Approx polarizability: 108.899  -3.485 108.839   2.704   1.605 108.098

                      1                      2                      3
                      A                      A                      A
 Frequencies --     87.9565               175.9680               178.1800
 Red. masses --      2.5383                 1.1835                 2.9744
 Frc consts  --      0.0116                 0.0216                 0.0556
 IR Inten    --      2.4051                 0.5038                 0.6917

                      4                      5                      6
                      A                      A                      A
 Frequencies --    303.5071               329.2683               380.0563
 Red. masses --      3.5267                 2.9576                 4.7155
 Frc consts  --      0.1914                 0.1889                 0.4013
 IR Inten    --      2.3680                 0.2774                 1.6494

                      7                      8                      9
                      A                      A                      A
 Frequencies --    445.6518               547.7543               607.1318
 Red. masses --      3.0069                 3.3994                 5.9921
 Frc consts  --      0.3519                 0.6009                 1.3014
 IR Inten    --      0.2193                 2.7025                 8.1137

                     10                     11                     12
                      A                      A                      A
 Frequencies --    660.8088               783.2268               804.2167
 Red. masses --      4.0876                 2.2834                 1.6128
 Frc consts  --      1.0517                 0.8253                 0.6146
 IR Inten    --      1.5173                14.0315                10.1758

                     13                     14                     15
                      A                      A                      A
 Frequencies --    848.7520               859.7779               865.3381
 Red. masses --      3.3219                 3.0011                 2.4844
 Frc consts  --      1.4099                 1.3071                 1.0961
 IR Inten    --     18.0520                32.5074                24.1201

                     16                     17                     18
                      A                      A                      A
 Frequencies --    900.9737               916.2136               966.8097
 Red. masses --      2.7484                 2.3632                 4.7422
 Frc consts  --      1.3145                 1.1688                 2.6116
 IR Inten    --     13.5529                 1.0769                19.5138

                     19                     20                     21
                      A                      A                      A
 Frequencies --    991.0675              1007.5126              1029.1947
 Red. masses --      2.4134                 2.0293                 1.2478
 Frc consts  --      1.3967                 1.2136                 0.7787
 IR Inten    --     10.6370                 6.1283                 0.1366

                     22                     23                     24
                      A                      A                      A
 Frequencies --   1060.1138              1083.9093              1090.8933
 Red. masses --      2.4680                 1.3705                 2.7149
 Frc consts  --      1.6342                 0.9487                 1.9036
 IR Inten    --      4.7121                 2.3539                22.1797

                     25                     26                     27
                      A                      A                      A
 Frequencies --   1102.0405              1160.2780              1181.7275
 Red. masses --      1.2857                 2.6641                 1.3763
 Frc consts  --      0.9200                 2.1131                 1.1324
 IR Inten    --      3.9938               126.7280                 5.7829

                     28                     29                     30
                      A                      A                      A
 Frequencies --   1184.9533              1191.3880              1218.1031
 Red. masses --      1.3917                 1.6385                 1.8757
 Frc consts  --      1.1513                 1.3703                 1.6397
 IR Inten    --      1.0384                 0.2481                32.3891

                     31                     32                     33
                      A                      A                      A
 Frequencies --   1234.3007              1245.6537              1273.2822
 Red. masses --      1.5367                 1.6916                 1.6741
 Frc consts  --      1.3794                 1.5465                 1.5991
 IR Inten    --     12.8387                10.5606                 4.2196

                     34                     35                     36
                      A                      A                      A
 Frequencies --   1292.1159              1315.6369              1364.2651
 Red. masses --      1.6051                 1.5030                 1.7879
 Frc consts  --      1.5789                 1.5327                 1.9606
 IR Inten    --     28.9537                 3.8036                 3.3540

                     37                     38                     39
                      A                      A                      A
 Frequencies --   1431.1762              1482.4468              1488.2687
 Red. masses --      1.4016                 1.1351                 1.0756
 Frc consts  --      1.6914                 1.4698                 1.4037
 IR Inten    --     19.5849                 3.5301                 3.0866

                     40                     41                     42
                      A                      A                      A
 Frequencies --   1502.5474              1512.4522              2973.4425
 Red. masses --      1.1149                 1.1122                 1.0389
 Frc consts  --      1.4829                 1.4989                 5.4121
 IR Inten    --      7.9042                 2.0886                54.5108

                     43                     44                     45
                      A                      A                      A
 Frequencies --   3023.0470              3034.5516              3119.9877
 Red. masses --      1.1006                 1.0833                 1.0959
 Frc consts  --      5.9262                 5.8774                 6.2854
 IR Inten    --     57.9246                42.9802                29.1950

                     46                     47                     48
                      A                      A                      A
 Frequencies --   3129.0301              3132.6906              3136.9622
 Red. masses --      1.0894                 1.0582                 1.0912
 Frc consts  --      6.2844                 6.1187                 6.3264
 IR Inten    --     39.2162                23.7129                20.7778

                     49                     50                     51
                      A                      A                      A
 Frequencies --   3181.2321              3189.5457              3215.5904
 Red. masses --      1.0896                 1.0958                 1.1102
 Frc consts  --      6.4967                 6.5679                 6.7637
 IR Inten    --     16.5406                 8.5637                16.7640

 - Thermochemistry -
 -------------------
 Temperature   298.150 Kelvin.  Pressure   1.00000 Atm.
 Atom     1 has atomic number  6 and mass  12.00000

 Molecular mass:   126.06808 amu.
 Principal axes and moments of inertia in atomic units:
                           1         2         3
     Eigenvalues --   502.257411380.449211494.54230
           X            0.99987   0.01035   0.01246
           Y           -0.01075   0.99943   0.03210
           Z           -0.01212  -0.03223   0.99941
 This molecule is an asymmetric top.
 Rotational symmetry number  1.
 Warning -- assumption of classical behavior for rotation
           may cause significant error
 Rotational temperatures (Kelvin)      0.17245     0.06274     0.05795
 Rotational constants (GHZ):           3.59326     1.30736     1.20755
 Zero-point vibrational energy     420134.5 (Joules/Mol)
                                  100.41455 (Kcal/Mol)
 Warning -- explicit consideration of   9 degrees of freedom as
           vibrations may cause significant error
 Vibrational temperatures:    126.55   253.18   256.36   436.68   473.74
          (Kelvin)            546.82   641.19   788.10   873.53   950.76
                             1126.89  1157.09  1221.16  1237.03  1245.03
                             1296.30  1318.23  1391.02  1425.92  1449.58
                             1480.78  1525.27  1559.50  1569.55  1585.59
                             1669.38  1700.24  1704.88  1714.14  1752.58
                             1775.88  1792.22  1831.97  1859.06  1892.91
                             1962.87  2059.14  2132.91  2141.28  2161.83
                             2176.08  4278.12  4349.48  4366.04  4488.96
                             4501.97  4507.24  4513.38  4577.08  4589.04
                             4626.51

 Zero-point correction=                           0.160021 (Hartree/Particle)
 Thermal correction to Energy=                    0.167577
 Thermal correction to Enthalpy=                  0.168521
 Thermal correction to Gibbs Free Energy=         0.127943
 Sum of electronic and zero-point Energies=           -422.949329
 Sum of electronic and thermal Energies=              -422.941773
 Sum of electronic and thermal Enthalpies=            -422.940829
 Sum of electronic and thermal Free Energies=         -422.981407

                     E (Thermal)             CV                S
                      KCal/Mol        Cal/Mol-Kelvin    Cal/Mol-Kelvin
 Total                  105.156             29.971             85.405
 Electronic               0.000              0.000              0.000
 Translational            0.889              2.981             40.409
 Rotational               0.889              2.981             28.429
 Vibrational            103.379             24.009             16.567
 Vibration     1          0.601              1.958              3.705
 Vibration     2          0.628              1.872              2.371
 Vibration     3          0.629              1.869              2.347
 Vibration     4          0.695              1.667              1.397
 Vibration     5          0.712              1.617              1.264
 Vibration     6          0.750              1.513              1.039
 Vibration     7          0.805              1.370              0.809
 Vibration     8          0.903              1.145              0.549
 Vibration     9          0.966              1.017              0.438

 Optimization completed.
    -- Stationary point found.
 Normal termination of Gaussian 09 at Tue Jan 28 14:59:26 2020.
