 Gaussian 09, Revision D.01,
 Gaussian 09:  ES64L-G09RevD.01 24-Apr-2013

 -----------------------------
 # b3lyp 6-31G(2df,p) opt Freq
 -----------------------------

 -----
 titel
 -----
 Symbolic Z-matrix:
 Charge =  0 Multiplicity = 1

 SCF Done:  E(RB3LYP) =  -423.181450535     A.U. after   14 cycles
 Optimization completed.
    -- Stationary point found.
 Normal termination of Gaussian 09 at Tue Jan 28 14:02:38 2020.

 ----------------------------------------------------------------------
 #N Geom=AllCheck Guess=TCheck SCRF=Check GenChk RB3LYP/6-31G(2df,p) Fr
 eq
 ----------------------------------------------------------------------

 Structure from the checkpoint file:  "/scratch/puck/g09_d0a55897-6610-41de-8bf9-a401dbc565c2/Gau-9767.chk"
 -----
 titel
 -----
 Charge =  0 Multiplicity = 1

                         Standard orientation:
 ---------------------------------------------------------------------
 Center     Atomic      Atomic             Coordinates (Angstroms)
 Number     Number       Type             X           Y           Z
 ---------------------------------------------------------------------
      1          6           0        2.974982   -0.390406    0.116438
      2          6           0        1.750782    0.405930   -0.344372
      3          6           0        0.489952    0.119525    0.477392
      4          6           0       -0.245098   -1.199299    0.148502
      5          6           0       -1.633273   -1.051166    0.812475
      6          6           0       -1.738743   -0.012337   -0.329833
      7          8           0       -0.873585   -0.874715   -1.142031
      8          6           0       -0.701583    1.037705    0.100545
      9          8           0       -0.769560    2.234834    0.107243
     10          1           0        3.850410   -0.148881   -0.493991
     11          1           0        3.224109   -0.167005    1.159819
     12          1           0        2.809409   -1.470493    0.039233
     13          1           0        1.958127    1.480164   -0.279337
     14          1           0        1.532524    0.194157   -1.397052
     15          1           0        0.706981    0.220706    1.548289
     16          1           0        0.315326   -2.133300    0.142170
     17          1           0       -2.276250   -1.912277    0.627538
     18          1           0       -1.695871   -0.714635    1.850796
     19          1           0       -2.661717    0.310902   -0.806040
 ---------------------------------------------------------------------

 SCF Done:  E(RB3LYP) =  -423.181450535     A.U. after    1 cycles

 The electronic state is 1-A.
 Alpha  occ. eigenvalues --  -19.15282 -19.13987 -10.27078 -10.25219 -10.24958
 Alpha  occ. eigenvalues --  -10.20732 -10.19871 -10.18726 -10.17980  -1.06870
 Alpha  occ. eigenvalues --   -1.04353  -0.81452  -0.77107  -0.71138  -0.69784
 Alpha  occ. eigenvalues --   -0.61978  -0.56437  -0.54409  -0.50846  -0.48183
 Alpha  occ. eigenvalues --   -0.45908  -0.44083  -0.43418  -0.43249  -0.40045
 Alpha  occ. eigenvalues --   -0.39663  -0.37378  -0.36123  -0.35535  -0.34535
 Alpha  occ. eigenvalues --   -0.33078  -0.32974  -0.28449  -0.23033
 Alpha virt. eigenvalues --   -0.01880   0.07773   0.09708   0.10622   0.11220
 Alpha virt. eigenvalues --    0.12712   0.13633   0.15331   0.15626   0.16069
 Alpha virt. eigenvalues --    0.16943   0.17813   0.18060   0.20058   0.21203

 Mulliken charges:
               1
     1  C   -0.391489
     2  C   -0.194665
     3  C   -0.104042
     4  C    0.065589
     5  C   -0.251855
     6  C   -0.036715
     7  O   -0.297315
     8  C    0.438692
     9  O   -0.334213
    10  H    0.119536
    11  H    0.115885
    12  H    0.115025
    13  H    0.117668
    14  H    0.117166
    15  H    0.092923
    16  H    0.091811
    17  H    0.123885
    18  H    0.110521
    19  H    0.101595
 Sum of Mulliken charges =   0.00000

 Dipole moment (field-independent basis, Debye):
    X=              0.2047    Y=             -2.3292    Z=              1.5365  Tot=              2.7979
 Quadrupole moment (field-independent basis, Debye-Ang):
   XX=            -49.4495   YY=            -59.4568   ZZ=            -53.9510
   XY=              1.8717   XZ=             -1.1134   YZ=             -2.2195

  Exact polarizability:  86.113   0.048  76.161   0.437  -1.493  62.957
 Approx polarizability: 109.249  -2.622 120.650   1.975   1.359 102.402

                      1                      2                      3
                      A                      A                      A
 Frequencies --     87.0201               128.4528               158.0096
 Red. masses --      2.6319                 3.0818                 3.2734
 Frc consts  --      0.0117                 0.0300                 0.0482
 IR Inten    --      0.1075                 2.9134                 3.2842

                      4                      5                      6
                      A                      A                      A
 Frequencies --    206.4668               276.6908               306.3359
 Red. masses --      1.6356                 1.7618                 3.8896
 Frc consts  --      0.0411                 0.0795                 0.2151
 IR Inten    --      2.1088                 1.5577                 1.1836

                      7                      8                      9
                      A                      A                      A
 Frequencies --    439.1967               487.0058               545.4857
 Red. masses --      2.4996                 3.3905                 4.5620
 Frc consts  --      0.2841                 0.4738                 0.7998
 IR Inten    --      1.5246                 2.4352                10.4678

                     10                     11                     12
                      A                      A                      A
 Frequencies --    642.7154               671.7686               765.5540
 Red. masses --      4.0100                 3.7026                 1.6601
 Frc consts  --      0.9760                 0.9845                 0.5733
 IR Inten    --      6.8900                 1.3936                 4.5968

                     13                     14                     15
                      A                      A                      A
 Frequencies --    822.3743               833.9256               864.5010
 Red. masses --      2.0142                 4.5035                 2.8940
 Frc consts  --      0.8026                 1.8453                 1.2743
 IR Inten    --     19.9064                 6.8796                26.3478

                     16                     17                     18
                      A                      A                      A
 Frequencies --    870.6536               890.1351               915.7469
 Red. masses --      3.2224                 2.1307                 3.0100
 Frc consts  --      1.4392                 0.9947                 1.4872
 IR Inten    --      3.6187                22.4991                10.7835

                     19                     20                     21
                      A                      A                      A
 Frequencies --    961.4233              1005.1704              1024.4769
 Red. masses --      2.0945                 1.6771                 3.3470
 Frc consts  --      1.1407                 0.9984                 2.0697
 IR Inten    --      5.2097                 4.5817                 7.9052

                     22                     23                     24
                      A                      A                      A
 Frequencies --   1059.4985              1061.6152              1100.8548
 Red. masses --      1.2103                 2.2122                 1.4775
 Frc consts  --      0.8004                 1.4690                 1.0550
 IR Inten    --      2.3982                 3.0893                 7.0615

                     25                     26                     27
                      A                      A                      A
 Frequencies --   1136.7375              1156.5872              1187.3773
 Red. masses --      1.7112                 2.6795                 1.6124
 Frc consts  --      1.3028                 2.1118                 1.3394
 IR Inten    --      0.4173                14.8077                 9.3919

                     28                     29                     30
                      A                      A                      A
 Frequencies --   1214.6126              1230.2504              1262.3820
 Red. masses --      1.6849                 1.4950                 1.5374
 Frc consts  --      1.4646                 1.3331                 1.4435
 IR Inten    --      2.1608                 7.3553                 0.2883

                     31                     32                     33
                      A                      A                      A
 Frequencies --   1267.1294              1293.0120              1312.9352
 Red. masses --      1.3949                 1.4726                 1.4760
 Frc consts  --      1.3196                 1.4506                 1.4991
 IR Inten    --      0.1697                 1.1073                11.9110

                     34                     35                     36
                      A                      A                      A
 Frequencies --   1344.5135              1374.1165              1413.3384
 Red. masses --      1.3904                 1.5148                 1.2314
 Frc consts  --      1.4809                 1.6852                 1.4493
 IR Inten    --      0.9575                10.4920                 1.5291

                     37                     38                     39
                      A                      A                      A
 Frequencies --   1484.2497              1491.9789              1499.9621
 Red. masses --      1.1336                 1.0583                 1.0433
 Frc consts  --      1.4714                 1.3880                 1.3829
 IR Inten    --      2.1509                 0.6823                 5.5852

                     40                     41                     42
                      A                      A                      A
 Frequencies --   1505.2516              1879.5192              3030.3910
 Red. masses --      1.0680                12.5676                 1.0394
 Frc consts  --      1.4257                26.1574                 5.6239
 IR Inten    --      4.3255               222.1745                19.3870

                     43                     44                     45
                      A                      A                      A
 Frequencies --   3032.8198              3041.4925              3067.5308
 Red. masses --      1.0764                 1.0618                 1.0594
 Frc consts  --      5.8333                 5.7874                 5.8735
 IR Inten    --      8.9051                18.6252                26.9885

                     46                     47                     48
                      A                      A                      A
 Frequencies --   3074.1538              3100.7586              3104.8323
 Red. masses --      1.1008                 1.1026                 1.1005
 Frc consts  --      6.1292                 6.2458                 6.2505
 IR Inten    --      1.3999                41.5801                32.2864

                     49                     50                     51
                      A                      A                      A
 Frequencies --   3130.2388              3144.3307              3157.1554
 Red. masses --      1.0925                 1.1068                 1.0930
 Frc consts  --      6.3069                 6.4474                 6.4187
 IR Inten    --     31.1230                15.3277                23.3003

 - Thermochemistry -
 -------------------
 Temperature   298.150 Kelvin.  Pressure   1.00000 Atm.
 Atom     1 has atomic number  6 and mass  12.00000

 Molecular mass:   126.06808 amu.
 Principal axes and moments of inertia in atomic units:
                           1         2         3
     Eigenvalues --   708.117391224.472431608.44476
           X            0.99989   0.01262  -0.00762
           Y           -0.01287   0.99934  -0.03403
           Z            0.00719   0.03413   0.99939
 This molecule is an asymmetric top.
 Rotational symmetry number  1.
 Warning -- assumption of classical behavior for rotation
           may cause significant error
 Rotational temperatures (Kelvin)      0.12232     0.07074     0.05385
 Rotational constants (GHZ):           2.54865     1.47389     1.12204
 Zero-point vibrational energy     419068.2 (Joules/Mol)
                                  100.15971 (Kcal/Mol)
 Warning -- explicit consideration of   9 degrees of freedom as
           vibrations may cause significant error
 Vibrational temperatures:    125.20   184.81   227.34   297.06   398.10
          (Kelvin)            440.75   631.91   700.69   784.83   924.72
                              966.52  1101.46  1183.21  1199.83  1243.82
                             1252.67  1280.70  1317.55  1383.27  1446.21
                             1473.99  1524.38  1527.43  1583.88  1635.51
                             1664.07  1708.37  1747.55  1770.05  1816.28
                             1823.11  1860.35  1889.02  1934.45  1977.04
                             2033.48  2135.50  2146.62  2158.11  2165.72
                             2704.21  4360.05  4363.55  4376.02  4413.49
                             4423.02  4461.29  4467.16  4503.71  4523.98
                             4542.44

 Zero-point correction=                           0.159615 (Hartree/Particle)
 Thermal correction to Energy=                    0.167731
 Thermal correction to Enthalpy=                  0.168676
 Thermal correction to Gibbs Free Energy=         0.126695
 Sum of electronic and zero-point Energies=           -423.021836
 Sum of electronic and thermal Energies=              -423.013719
 Sum of electronic and thermal Enthalpies=            -423.012775
 Sum of electronic and thermal Free Energies=         -423.054756

                     E (Thermal)             CV                S
                      KCal/Mol        Cal/Mol-Kelvin    Cal/Mol-Kelvin
 Total                  105.253             31.021             88.355
 Electronic               0.000              0.000              0.000
 Translational            0.889              2.981             40.409
 Rotational               0.889              2.981             28.724
 Vibrational            103.476             25.059             19.223
 Vibration     1          0.601              1.958              3.726
 Vibration     2          0.611              1.925              2.969
 Vibration     3          0.621              1.894              2.573
 Vibration     4          0.641              1.831              2.075
 Vibration     5          0.678              1.717              1.554
 Vibration     6          0.697              1.662              1.382
 Vibration     7          0.799              1.385              0.829
 Vibration     8          0.843              1.279              0.691
 Vibration     9          0.901              1.150              0.554

 Optimization completed.
    -- Stationary point found.
 Normal termination of Gaussian 09 at Tue Jan 28 14:51:58 2020.
