 Gaussian 09, Revision D.01,
 Gaussian 09:  ES64L-G09RevD.01 24-Apr-2013

 -----------------------------
 # b3lyp 6-31G(2df,p) opt Freq
 -----------------------------

 -----
 titel
 -----
 Symbolic Z-matrix:
 Charge =  0 Multiplicity = 1

 SCF Done:  E(RB3LYP) =  -423.110925317     A.U. after   12 cycles
 Optimization completed.
    -- Stationary point found.
 Normal termination of Gaussian 09 at Mon Jan 27 21:59:56 2020.

 ----------------------------------------------------------------------
 #N Geom=AllCheck Guess=TCheck SCRF=Check GenChk RB3LYP/6-31G(2df,p) Fr
 eq
 ----------------------------------------------------------------------

 Structure from the checkpoint file:  "/scratch/puck/g09_5e89aa98-e438-4bbc-9bfa-268aa88329fe/Gau-125551.chk"
 -----
 titel
 -----
 Charge =  0 Multiplicity = 1

                         Standard orientation:
 ---------------------------------------------------------------------
 Center     Atomic      Atomic             Coordinates (Angstroms)
 Number     Number       Type             X           Y           Z
 ---------------------------------------------------------------------
      1          8           0       -0.212631    1.945985   -0.322237
      2          6           0       -0.107811    0.706249    0.347800
      3          6           0        1.298319    0.498779    0.941583
      4          6           0        1.964416   -0.461916   -0.127493
      5          8           0        0.956089   -0.876767   -1.092795
      6          6           0       -0.242502   -0.582397   -0.458123
      7          6           0       -1.694974   -0.184663   -0.823754
      8          6           0       -1.498731    0.100193    0.728827
      9          6           0       -0.822112   -1.289194    0.814716
     10          1           0        0.477768    1.986427   -0.994417
     11          1           0        1.825733    1.451065    1.017808
     12          1           0        1.310097    0.037225    1.929275
     13          1           0        2.768303    0.021980   -0.689559
     14          1           0        2.375564   -1.353507    0.358385
     15          1           0       -1.825136    0.687782   -1.458944
     16          1           0       -2.383916   -0.995499   -1.068747
     17          1           0       -2.250695    0.509484    1.400609
     18          1           0       -0.154332   -1.474223    1.656209
     19          1           0       -1.470676   -2.146785    0.628291
 ---------------------------------------------------------------------

 SCF Done:  E(RB3LYP) =  -423.110925317     A.U. after    1 cycles

 The electronic state is 1-A.
 Alpha  occ. eigenvalues --  -19.14788 -19.13812 -10.23643 -10.23618 -10.23211
 Alpha  occ. eigenvalues --  -10.20872 -10.19128 -10.19091 -10.18464  -1.05002
 Alpha  occ. eigenvalues --   -1.01795  -0.90062  -0.76410  -0.67224  -0.66663
 Alpha  occ. eigenvalues --   -0.62905  -0.58765  -0.53972  -0.50183  -0.49410
 Alpha  occ. eigenvalues --   -0.48481  -0.46115  -0.42627  -0.40894  -0.39211
 Alpha  occ. eigenvalues --   -0.36386  -0.35557  -0.34217  -0.33395  -0.32858
 Alpha  occ. eigenvalues --   -0.32154  -0.29612  -0.26494  -0.23655
 Alpha virt. eigenvalues --    0.06562   0.09619   0.10183   0.11153   0.12239
 Alpha virt. eigenvalues --    0.13865   0.14759   0.15620   0.15848   0.16849
 Alpha virt. eigenvalues --    0.17930   0.18931   0.20170   0.21179   0.22591

 Mulliken charges:
               1
     1  O   -0.491449
     2  C    0.444993
     3  C   -0.380205
     4  C   -0.099647
     5  O   -0.323379
     6  C    0.370594
     7  C   -0.304318
     8  C   -0.136474
     9  C   -0.304307
    10  H    0.279868
    11  H    0.111218
    12  H    0.121060
    13  H    0.112313
    14  H    0.111745
    15  H    0.116857
    16  H    0.095218
    17  H    0.085094
    18  H    0.093458
    19  H    0.097361
 Sum of Mulliken charges =   0.00000

 Dipole moment (field-independent basis, Debye):
    X=              0.9380    Y=             -0.1883    Z=              0.8523  Tot=              1.2813
 Quadrupole moment (field-independent basis, Debye-Ang):
   XX=            -49.6567   YY=            -56.3069   ZZ=            -53.4617
   XY=              3.3714   XZ=              0.8220   YZ=             -3.2774

  Exact polarizability:  85.231   2.981  70.708   1.927  -3.391  66.823
 Approx polarizability: 117.831   1.800 107.529   0.063  -3.188 105.551

                      1                      2                      3
                      A                      A                      A
 Frequencies --     95.1345               187.7324               303.0504
 Red. masses --      2.0550                 2.3650                 1.4331
 Frc consts  --      0.0110                 0.0491                 0.0775
 IR Inten    --      1.1490                32.5884                54.4696

                      4                      5                      6
                      A                      A                      A
 Frequencies --    335.9894               361.2600               425.7976
 Red. masses --      3.3840                 3.1706                 3.1844
 Frc consts  --      0.2251                 0.2438                 0.3402
 IR Inten    --      9.7916                 2.2836                 2.2111

                      7                      8                      9
                      A                      A                      A
 Frequencies --    505.4819               545.4160               561.6683
 Red. masses --      3.4562                 2.6853                 3.1188
 Frc consts  --      0.5203                 0.4707                 0.5797
 IR Inten    --      4.9541                 3.5488                 1.3792

                     10                     11                     12
                      A                      A                      A
 Frequencies --    629.7813               739.6568               765.9348
 Red. masses --      3.0728                 5.1802                 3.9975
 Frc consts  --      0.7181                 1.6698                 1.3817
 IR Inten    --      4.8003                 8.6424                 3.1294

                     13                     14                     15
                      A                      A                      A
 Frequencies --    789.0138               801.6474               842.7423
 Red. masses --      2.4966                 1.6647                 3.2214
 Frc consts  --      0.9157                 0.6303                 1.3480
 IR Inten    --      2.1517                 5.0462                22.1564

                     16                     17                     18
                      A                      A                      A
 Frequencies --    899.3007               909.2006               943.6138
 Red. masses --      3.3047                 3.5249                 1.8477
 Frc consts  --      1.5747                 1.7168                 0.9693
 IR Inten    --      5.6886                14.5481                 0.5973

                     19                     20                     21
                      A                      A                      A
 Frequencies --    969.8008               980.7693               987.1965
 Red. masses --      1.6638                 1.9074                 2.4360
 Frc consts  --      0.9220                 1.0810                 1.3987
 IR Inten    --     15.8041                35.3655                18.5481

                     22                     23                     24
                      A                      A                      A
 Frequencies --    996.3567              1068.2082              1077.2623
 Red. masses --      1.5016                 1.3245                 1.4669
 Frc consts  --      0.8783                 0.8904                 1.0030
 IR Inten    --      4.7132                 1.6802                11.8530

                     25                     26                     27
                      A                      A                      A
 Frequencies --   1107.2038              1140.2835              1167.2221
 Red. masses --      2.3044                 1.6999                 1.6170
 Frc consts  --      1.6644                 1.3022                 1.2980
 IR Inten    --      4.8975                13.3216                 8.2627

                     28                     29                     30
                      A                      A                      A
 Frequencies --   1168.7615              1199.7929              1205.5035
 Red. masses --      1.8816                 1.5048                 1.6284
 Frc consts  --      1.5144                 1.2763                 1.3943
 IR Inten    --     30.4720                11.2654                 4.6593

                     31                     32                     33
                      A                      A                      A
 Frequencies --   1218.7323              1224.0508              1253.6830
 Red. masses --      1.6880                 1.4329                 1.5313
 Frc consts  --      1.4772                 1.2649                 1.4180
 IR Inten    --     24.5823                10.3593                12.9326

                     34                     35                     36
                      A                      A                      A
 Frequencies --   1265.4172              1288.8382              1353.3452
 Red. masses --      2.4464                 1.9131                 1.7686
 Frc consts  --      2.3081                 1.8724                 1.9085
 IR Inten    --     82.7959                62.4493                25.9239

                     37                     38                     39
                      A                      A                      A
 Frequencies --   1383.1974              1482.9574              1497.5205
 Red. masses --      1.5237                 1.0931                 1.1017
 Frc consts  --      1.7176                 1.4163                 1.4556
 IR Inten    --     24.9670                 3.1857                 5.7125

                     40                     41                     42
                      A                      A                      A
 Frequencies --   1519.0482              1541.1807              3039.0080
 Red. masses --      1.1043                 1.1653                 1.0606
 Frc consts  --      1.5013                 1.6308                 5.7712
 IR Inten    --      1.8673                10.3038                55.4036

                     43                     44                     45
                      A                      A                      A
 Frequencies --   3077.8493              3083.0174              3085.5522
 Red. masses --      1.0562                 1.0593                 1.1019
 Frc consts  --      5.8953                 5.9321                 6.1812
 IR Inten    --     23.9070                47.2635                22.6152

                     46                     47                     48
                      A                      A                      A
 Frequencies --   3089.0133              3133.1681              3136.9762
 Red. masses --      1.0649                 1.1075                 1.0929
 Frc consts  --      5.9868                 6.4058                 6.3366
 IR Inten    --     11.0720                28.1182                38.9003

                     49                     50                     51
                      A                      A                      A
 Frequencies --   3145.6043              3177.7330              3784.6949
 Red. masses --      1.1080                 1.1061                 1.0659
 Frc consts  --      6.4597                 6.5809                 8.9954
 IR Inten    --     29.9419                14.8920                15.4407

 - Thermochemistry -
 -------------------
 Temperature   298.150 Kelvin.  Pressure   1.00000 Atm.
 Atom     1 has atomic number  8 and mass  15.99491

 Molecular mass:   126.06808 amu.
 Principal axes and moments of inertia in atomic units:
                           1         2         3
     Eigenvalues --   706.72824 929.129361118.55633
           X            0.99742   0.06537   0.02981
           Y           -0.06309   0.99541  -0.07191
           Z           -0.03438   0.06985   0.99697
 This molecule is an asymmetric top.
 Rotational symmetry number  1.
 Warning -- assumption of classical behavior for rotation
           may cause significant error
 Rotational temperatures (Kelvin)      0.12256     0.09322     0.07743
 Rotational constants (GHZ):           2.55366     1.94240     1.61346
 Zero-point vibrational energy     421632.0 (Joules/Mol)
                                  100.77247 (Kcal/Mol)
 Warning -- explicit consideration of   9 degrees of freedom as
           vibrations may cause significant error
 Vibrational temperatures:    136.88   270.10   436.02   483.41   519.77
          (Kelvin)            612.63   727.27   784.73   808.11   906.11
                             1064.20  1102.01  1135.21  1153.39  1212.52
                             1293.89  1308.14  1357.65  1395.33  1411.11
                             1420.35  1433.53  1536.91  1549.94  1593.02
                             1640.61  1679.37  1681.59  1726.23  1734.45
                             1753.48  1761.13  1803.77  1820.65  1854.35
                             1947.16  1990.11  2133.64  2154.60  2185.57
                             2217.41  4372.45  4428.33  4435.77  4439.42
                             4444.40  4507.92  4513.40  4525.82  4572.04
                             5445.33

 Zero-point correction=                           0.160591 (Hartree/Particle)
 Thermal correction to Energy=                    0.167914
 Thermal correction to Enthalpy=                  0.168858
 Thermal correction to Gibbs Free Energy=         0.129132
 Sum of electronic and zero-point Energies=           -422.950334
 Sum of electronic and thermal Energies=              -422.943011
 Sum of electronic and thermal Enthalpies=            -422.942067
 Sum of electronic and thermal Free Energies=         -422.981793

                     E (Thermal)             CV                S
                      KCal/Mol        Cal/Mol-Kelvin    Cal/Mol-Kelvin
 Total                  105.368             30.249             83.611
 Electronic               0.000              0.000              0.000
 Translational            0.889              2.981             40.409
 Rotational               0.889              2.981             28.087
 Vibrational            103.590             24.287             15.115
 Vibration     1          0.603              1.953              3.552
 Vibration     2          0.632              1.857              2.250
 Vibration     3          0.694              1.668              1.400
 Vibration     4          0.717              1.604              1.231
 Vibration     5          0.735              1.552              1.117
 Vibration     6          0.788              1.414              0.872
 Vibration     7          0.861              1.238              0.645
 Vibration     8          0.901              1.150              0.554
 Vibration     9          0.917              1.114              0.521

 Normal termination of Gaussian 09 at Mon Jan 27 22:45:24 2020.
