 Gaussian 09, Revision D.01,
 Gaussian 09:  ES64L-G09RevD.01 24-Apr-2013

 -----------------------------
 # b3lyp 6-31G(2df,p) opt Freq
 -----------------------------

 -----
 titel
 -----
 Symbolic Z-matrix:
 Charge =  0 Multiplicity = 1

 SCF Done:  E(RB3LYP) =  -423.193974958     A.U. after   13 cycles
 Optimization completed.
    -- Stationary point found.
 Normal termination of Gaussian 09 at Tue Jan 28 00:02:30 2020.

 ----------------------------------------------------------------------
 #N Geom=AllCheck Guess=TCheck SCRF=Check GenChk RB3LYP/6-31G(2df,p) Fr
 eq
 ----------------------------------------------------------------------

 Structure from the checkpoint file:  "/scratch/puck/g09_10bf4c43-1886-4360-bc60-1b7dfbfc01b2/Gau-164421.chk"
 -----
 titel
 -----
 Charge =  0 Multiplicity = 1

                         Standard orientation:
 ---------------------------------------------------------------------
 Center     Atomic      Atomic             Coordinates (Angstroms)
 Number     Number       Type             X           Y           Z
 ---------------------------------------------------------------------
      1          8           0       -1.358254   -1.541414   -0.676368
      2          6           0       -0.344423   -0.572241   -0.809902
      3          6           0        1.070954   -0.914501   -0.284406
      4          6           0        1.792556    0.442454   -0.595507
      5          6           0        0.693450    1.512834   -0.296607
      6          6           0       -0.514126    0.642075    0.143577
      7          8           0       -1.743700    1.307358    0.085379
      8          6           0       -0.127608   -0.006647    1.471397
      9          6           0        0.805239   -0.932294    1.215471
     10          1           0       -1.299110   -1.876076    0.228705
     11          1           0       -0.352206   -0.273273   -1.862154
     12          1           0        1.557406   -1.795419   -0.703364
     13          1           0        2.684663    0.571249    0.020831
     14          1           0        2.105925    0.476487   -1.643035
     15          1           0        0.987966    2.226716    0.475036
     16          1           0        0.419298    2.078654   -1.191415
     17          1           0       -2.414663    0.621292   -0.027812
     18          1           0       -0.497231    0.329150    2.432639
     19          1           0        1.367339   -1.516408    1.934343
 ---------------------------------------------------------------------

 SCF Done:  E(RB3LYP) =  -423.193974958     A.U. after    1 cycles

 The electronic state is 1-A.
 Alpha  occ. eigenvalues --  -19.14237 -19.13441 -10.23285 -10.22838 -10.19332
 Alpha  occ. eigenvalues --  -10.18836 -10.18783 -10.18280 -10.18127  -1.03552
 Alpha  occ. eigenvalues --   -1.01251  -0.87130  -0.75023  -0.71112  -0.68550
 Alpha  occ. eigenvalues --   -0.59184  -0.58117  -0.54084  -0.52587  -0.49395
 Alpha  occ. eigenvalues --   -0.46152  -0.45086  -0.42208  -0.40598  -0.39876
 Alpha  occ. eigenvalues --   -0.37931  -0.36441  -0.34879  -0.33663  -0.33416
 Alpha  occ. eigenvalues --   -0.32009  -0.27515  -0.25463  -0.24567
 Alpha virt. eigenvalues --    0.00481   0.08511   0.09361   0.11264   0.12426
 Alpha virt. eigenvalues --    0.12983   0.15220   0.16107   0.16296   0.17094
 Alpha virt. eigenvalues --    0.19170   0.20078   0.20752   0.21826   0.24848

 Mulliken charges:
               1
     1  O   -0.462775
     2  C    0.103163
     3  C   -0.109168
     4  C   -0.216053
     5  C   -0.240999
     6  C    0.387239
     7  O   -0.514419
     8  C   -0.173143
     9  C   -0.105780
    10  H    0.275759
    11  H    0.085387
    12  H    0.067769
    13  H    0.103830
    14  H    0.103687
    15  H    0.105309
    16  H    0.108903
    17  H    0.278846
    18  H    0.102774
    19  H    0.099670
 Sum of Mulliken charges =   0.00000

 Dipole moment (field-independent basis, Debye):
    X=              1.3412    Y=             -0.8616    Z=              0.8787  Tot=              1.8202
 Quadrupole moment (field-independent basis, Debye-Ang):
   XX=            -52.6934   YY=            -56.0692   ZZ=            -51.5013
   XY=              0.9233   XZ=             -1.9071   YZ=             -2.8448

  Exact polarizability:  76.689  -3.639  73.309  -2.063  -2.102  72.189
 Approx polarizability: 115.984 -10.783 113.593  -3.204  -0.622 109.083

                      1                      2                      3
                      A                      A                      A
 Frequencies --    212.6522               228.1084               247.6536
 Red. masses --      4.4583                 2.5461                 2.6537
 Frc consts  --      0.1188                 0.0781                 0.0959
 IR Inten    --     12.0077                 1.3182                 2.6000

                      4                      5                      6
                      A                      A                      A
 Frequencies --    361.3414               370.6244               392.7110
 Red. masses --      2.9162                 2.8831                 1.1745
 Frc consts  --      0.2243                 0.2333                 0.1067
 IR Inten    --      5.1748                 5.3807                56.1488

                      7                      8                      9
                      A                      A                      A
 Frequencies --    416.5875               480.6451               508.1004
 Red. masses --      2.6495                 2.3862                 1.4932
 Frc consts  --      0.2709                 0.3248                 0.2271
 IR Inten    --      4.9179                16.9731                49.3390

                     10                     11                     12
                      A                      A                      A
 Frequencies --    576.7374               636.7580               698.0547
 Red. masses --      3.4630                 5.1144                 4.0039
 Frc consts  --      0.6787                 1.2218                 1.1495
 IR Inten    --      7.3518                 8.4420                 1.6776

                     13                     14                     15
                      A                      A                      A
 Frequencies --    756.4185               780.1262               809.0212
 Red. masses --      1.4976                 4.1591                 1.3933
 Frc consts  --      0.5049                 1.4914                 0.5373
 IR Inten    --     38.6872                 7.4599                 0.7717

                     16                     17                     18
                      A                      A                      A
 Frequencies --    826.3754               875.9571               913.2013
 Red. masses --      3.3589                 2.3461                 2.0345
 Frc consts  --      1.3515                 1.0606                 0.9996
 IR Inten    --      9.4604                 0.2824                12.3789

                     19                     20                     21
                      A                      A                      A
 Frequencies --    939.8838               958.8302               976.9951
 Red. masses --      2.3902                 1.4118                 2.8216
 Frc consts  --      1.2440                 0.7647                 1.5868
 IR Inten    --      5.5894                 6.2875                 0.9086

                     22                     23                     24
                      A                      A                      A
 Frequencies --    993.6672              1017.5370              1078.9390
 Red. masses --      2.1913                 2.3143                 1.2299
 Frc consts  --      1.2748                 1.4118                 0.8436
 IR Inten    --     12.8562                26.8736                11.4576

                     25                     26                     27
                      A                      A                      A
 Frequencies --   1095.6917              1125.9076              1164.5901
 Red. masses --      1.5635                 2.3854                 1.5904
 Frc consts  --      1.1059                 1.7816                 1.2709
 IR Inten    --     21.0867                51.8635                81.2542

                     28                     29                     30
                      A                      A                      A
 Frequencies --   1192.8058              1212.7255              1230.8932
 Red. masses --      1.8232                 1.5236                 1.5481
 Frc consts  --      1.5284                 1.3202                 1.3819
 IR Inten    --     13.1574                 7.5782                12.5515

                     31                     32                     33
                      A                      A                      A
 Frequencies --   1247.1322              1282.0001              1294.8409
 Red. masses --      1.4952                 1.4764                 1.5998
 Frc consts  --      1.3702                 1.4296                 1.5804
 IR Inten    --     29.5185                 8.3169                26.2819

                     34                     35                     36
                      A                      A                      A
 Frequencies --   1301.6965              1326.2238              1368.2349
 Red. masses --      1.4233                 1.7251                 1.7538
 Frc consts  --      1.4209                 1.7877                 1.9344
 IR Inten    --      4.4211                12.5452                81.8260

                     37                     38                     39
                      A                      A                      A
 Frequencies --   1375.1520              1445.0184              1489.6644
 Red. masses --      1.5950                 1.2518                 1.0813
 Frc consts  --      1.7772                 1.5400                 1.4137
 IR Inten    --      8.0733                76.0834                 0.0510

                     40                     41                     42
                      A                      A                      A
 Frequencies --   1507.6400              1631.9451              3056.0615
 Red. masses --      1.1078                 6.0121                 1.0613
 Frc consts  --      1.4836                 9.4338                 5.8401
 IR Inten    --      7.1167                 3.4863                26.0831

                     43                     44                     45
                      A                      A                      A
 Frequencies --   3067.1793              3079.8105              3101.2506
 Red. masses --      1.0623                 1.0846                 1.1045
 Frc consts  --      5.8880                 6.0616                 6.2587
 IR Inten    --     25.6129                32.0509                 3.5635

                     46                     47                     48
                      A                      A                      A
 Frequencies --   3114.4644              3119.8186              3191.7912
 Red. masses --      1.0890                 1.1053                 1.0860
 Frc consts  --      6.2239                 6.3384                 6.5186
 IR Inten    --     28.7347                40.2219                 7.0437

                     49                     50                     51
                      A                      A                      A
 Frequencies --   3218.0771              3752.1812              3762.2052
 Red. masses --      1.1061                 1.0643                 1.0654
 Frc consts  --      6.7489                 8.8284                 8.8847
 IR Inten    --     11.7786                18.3118                26.7442

 - Thermochemistry -
 -------------------
 Temperature   298.150 Kelvin.  Pressure   1.00000 Atm.
 Atom     1 has atomic number  8 and mass  15.99491

 Molecular mass:   126.06808 amu.
 Principal axes and moments of inertia in atomic units:
                           1         2         3
     Eigenvalues --   812.89565 919.372711136.08157
           X            0.99829   0.05006  -0.03024
           Y           -0.05152   0.99743  -0.04972
           Z            0.02768   0.05120   0.99831
 This molecule is an asymmetric top.
 Rotational symmetry number  1.
 Warning -- assumption of classical behavior for rotation
           may cause significant error
 Rotational temperatures (Kelvin)      0.10655     0.09421     0.07624
 Rotational constants (GHZ):           2.22014     1.96301     1.58857
 Zero-point vibrational energy     423549.4 (Joules/Mol)
                                  101.23073 (Kcal/Mol)
 Warning -- explicit consideration of  10 degrees of freedom as
           vibrations may cause significant error
 Vibrational temperatures:    305.96   328.20   356.32   519.89   533.25
          (Kelvin)            565.02   599.38   691.54   731.04   829.80
                              916.15  1004.34  1088.32  1122.43  1164.00
                             1188.97  1260.31  1313.89  1352.28  1379.54
                             1405.68  1429.66  1464.01  1552.35  1576.45
                             1619.93  1675.58  1716.18  1744.84  1770.98
                             1794.34  1844.51  1862.98  1872.85  1908.14
                             1968.58  1978.53  2079.06  2143.29  2169.15
                             2348.00  4396.99  4412.98  4431.15  4462.00
                             4481.01  4488.72  4592.27  4630.09  5398.55
                             5412.97

 Zero-point correction=                           0.161321 (Hartree/Particle)
 Thermal correction to Energy=                    0.168758
 Thermal correction to Enthalpy=                  0.169702
 Thermal correction to Gibbs Free Energy=         0.130187
 Sum of electronic and zero-point Energies=           -423.032654
 Sum of electronic and thermal Energies=              -423.025217
 Sum of electronic and thermal Enthalpies=            -423.024273
 Sum of electronic and thermal Free Energies=         -423.063788

                     E (Thermal)             CV                S
                      KCal/Mol        Cal/Mol-Kelvin    Cal/Mol-Kelvin
 Total                  105.897             31.385             83.166
 Electronic               0.000              0.000              0.000
 Translational            0.889              2.981             40.409
 Rotational               0.889              2.981             28.231
 Vibrational            104.120             25.423             14.526
 Vibration     1          0.644              1.822              2.021
 Vibration     2          0.651              1.798              1.894
 Vibration     3          0.661              1.767              1.747
 Vibration     4          0.736              1.552              1.116
 Vibration     5          0.743              1.533              1.077
 Vibration     6          0.760              1.486              0.990
 Vibration     7          0.780              1.434              0.904
 Vibration     8          0.837              1.293              0.708
 Vibration     9          0.863              1.232              0.638
 Vibration    10          0.933              1.082              0.491

 Optimization completed.
    -- Stationary point found.
 Normal termination of Gaussian 09 at Tue Jan 28 00:41:42 2020.
