 Gaussian 09, Revision D.01,
 Gaussian 09:  ES64L-G09RevD.01 24-Apr-2013

 -----------------------------
 # b3lyp 6-31G(2df,p) opt Freq
 -----------------------------

 -----
 titel
 -----
 Symbolic Z-matrix:
 Charge =  0 Multiplicity = 1

 SCF Done:  E(RB3LYP) =  -423.169944672     A.U. after   14 cycles
 SCF Done:  E(RB3LYP) =  -423.169944517     A.U. after    7 cycles
 SCF Done:  E(RB3LYP) =  -423.169944746     A.U. after    7 cycles
 Optimization completed.
    -- Stationary point found.
 Normal termination of Gaussian 09 at Mon Jan 27 16:40:22 2020.

 ----------------------------------------------------------------------
 #N Geom=AllCheck Guess=TCheck SCRF=Check GenChk RB3LYP/6-31G(2df,p) Fr
 eq
 ----------------------------------------------------------------------

 Structure from the checkpoint file:  "/scratch/puck/g09_aee7aaf3-5ce3-42b0-a99e-2ee6f5c6d012/Gau-166501.chk"
 -----
 titel
 -----
 Charge =  0 Multiplicity = 1

                         Standard orientation:
 ---------------------------------------------------------------------
 Center     Atomic      Atomic             Coordinates (Angstroms)
 Number     Number       Type             X           Y           Z
 ---------------------------------------------------------------------
      1          8           0       -1.767809   -1.405688   -0.000020
      2          6           0       -0.836417   -0.374233   -0.000001
      3          6           0        0.290412   -0.427448    1.093059
      4          6           0        1.311142   -0.097607    0.000021
      5          6           0        2.237443    1.086669   -0.000056
      6          6           0        2.789575   -0.322786    0.000056
      7          6           0        0.290442   -0.427633   -1.092990
      8          6           0       -1.535692    0.961133   -0.000087
      9          8           0       -2.740855    1.052739    0.000093
     10          1           0       -2.639111   -0.976586    0.000013
     11          1           0        0.206151    0.253815    1.945270
     12          1           0        0.369641   -1.454695    1.459649
     13          1           0        2.327637    1.668858   -0.912052
     14          1           0        2.327623    1.668993    0.911855
     15          1           0        3.250774   -0.690048   -0.911311
     16          1           0        3.250737   -0.689930    0.911489
     17          1           0        0.206195    0.253479   -1.945322
     18          1           0        0.369682   -1.454943   -1.459404
     19          1           0       -0.881438    1.856084   -0.000794
 ---------------------------------------------------------------------

 SCF Done:  E(RB3LYP) =  -423.169944746     A.U. after    1 cycles

 The electronic state is 1-A.
 Alpha  occ. eigenvalues --  -19.15771 -19.13712 -10.27966 -10.24899 -10.20575
 Alpha  occ. eigenvalues --  -10.19319 -10.19318 -10.19236 -10.19002  -1.07004
 Alpha  occ. eigenvalues --   -1.02118  -0.88211  -0.80786  -0.67896  -0.66906
 Alpha  occ. eigenvalues --   -0.60821  -0.57939  -0.53596  -0.52512  -0.50020
 Alpha  occ. eigenvalues --   -0.48521  -0.46338  -0.42956  -0.42402  -0.40377
 Alpha  occ. eigenvalues --   -0.40086  -0.37235  -0.36496  -0.35311  -0.32594
 Alpha  occ. eigenvalues --   -0.29364  -0.28864  -0.26548  -0.26265
 Alpha virt. eigenvalues --   -0.03392   0.07891   0.09056   0.10348   0.10505
 Alpha virt. eigenvalues --    0.11815   0.13483   0.15073   0.15699   0.15889
 Alpha virt. eigenvalues --    0.17714   0.18742   0.19421   0.22764   0.23971

 Mulliken charges:
               1
     1  O   -0.487217
     2  C    0.348344
     3  C   -0.371840
     4  C    0.394346
     5  C   -0.321182
     6  C   -0.333613
     7  C   -0.371841
     8  C    0.117170
     9  O   -0.284781
    10  H    0.289790
    11  H    0.104158
    12  H    0.124197
    13  H    0.114286
    14  H    0.114287
    15  H    0.116112
    16  H    0.116113
    17  H    0.104152
    18  H    0.124200
    19  H    0.103318
 Sum of Mulliken charges =   0.00000

 Dipole moment (field-independent basis, Debye):
    X=              2.2985    Y=              0.7411    Z=             -0.0003  Tot=              2.4151
 Quadrupole moment (field-independent basis, Debye-Ang):
   XX=            -59.3260   YY=            -55.5796   ZZ=            -50.9763
   XY=              0.7197   XZ=              0.0008   YZ=             -0.0005

  Exact polarizability:  93.869  -0.110  72.258  -0.001  -0.002  65.035
 Approx polarizability: 128.801  -1.635 109.468  -0.002  -0.002  96.780

                      1                      2                      3
                      A                      A                      A
 Frequencies --     64.8132               106.4136               232.9749
 Red. masses --      4.0152                 4.3044                 2.7846
 Frc consts  --      0.0099                 0.0287                 0.0891
 IR Inten    --      0.7205                 0.2240                 4.9008

                      4                      5                      6
                      A                      A                      A
 Frequencies --    259.9641               273.5720               334.6631
 Red. masses --      2.2396                 4.2575                 4.2263
 Frc consts  --      0.0892                 0.1877                 0.2789
 IR Inten    --      1.0152                 6.6708                 9.5358

                      7                      8                      9
                      A                      A                      A
 Frequencies --    344.4678               392.6754               414.5247
 Red. masses --      1.8554                 2.6959                 1.8327
 Frc consts  --      0.1297                 0.2449                 0.1855
 IR Inten    --      0.5331                 6.1495                32.1830

                     10                     11                     12
                      A                      A                      A
 Frequencies --    449.0703               513.9186               629.6809
 Red. masses --      3.3506                 1.3262                 3.3469
 Frc consts  --      0.3981                 0.2064                 0.7819
 IR Inten    --      4.2352                32.5325                 1.0745

                     13                     14                     15
                      A                      A                      A
 Frequencies --    777.0576               783.1997               835.6908
 Red. masses --      1.0335                 3.2868                 1.2953
 Frc consts  --      0.3677                 1.1879                 0.5330
 IR Inten    --      0.1374                 1.3822                 0.2986

                     16                     17                     18
                      A                      A                      A
 Frequencies --    839.1388               876.9682               895.4437
 Red. masses --      4.4047                 2.7445                 2.1738
 Frc consts  --      1.8274                 1.2436                 1.0269
 IR Inten    --     24.8328                28.2860                 1.3335

                     19                     20                     21
                      A                      A                      A
 Frequencies --    915.5571               924.8268               982.5976
 Red. masses --      1.5892                 2.8231                 1.7210
 Frc consts  --      0.7849                 1.4226                 0.9790
 IR Inten    --      1.1371                 5.5539                 0.5675

                     22                     23                     24
                      A                      A                      A
 Frequencies --    998.3021              1052.6949              1077.4009
 Red. masses --      2.5733                 1.4433                 2.1032
 Frc consts  --      1.5110                 0.9424                 1.4384
 IR Inten    --      1.6642                 4.0955                 1.6257

                     25                     26                     27
                      A                      A                      A
 Frequencies --   1080.6179              1083.3919              1101.1872
 Red. masses --      1.4236                 1.1254                 2.6085
 Frc consts  --      0.9794                 0.7783                 1.8637
 IR Inten    --      0.5714                 0.6199                68.6435

                     28                     29                     30
                      A                      A                      A
 Frequencies --   1178.5077              1188.3474              1223.8844
 Red. masses --      1.8865                 1.2909                 1.3576
 Frc consts  --      1.5438                 1.0741                 1.1981
 IR Inten    --     41.0026                 0.0078                 0.1021

                     31                     32                     33
                      A                      A                      A
 Frequencies --   1229.0602              1254.2694              1314.6612
 Red. masses --      1.4789                 2.8503                 2.7994
 Frc consts  --      1.3163                 2.6419                 2.8506
 IR Inten    --     13.2204                 0.0518                21.3847

                     34                     35                     36
                      A                      A                      A
 Frequencies --   1384.0216              1389.6802              1441.1344
 Red. masses --      1.2951                 2.1007                 1.4566
 Frc consts  --      1.4617                 2.3903                 1.7823
 IR Inten    --     62.7783                23.1009                40.3564

                     37                     38                     39
                      A                      A                      A
 Frequencies --   1465.4022              1466.8950              1490.9536
 Red. masses --      1.0874                 1.0882                 1.1404
 Frc consts  --      1.3758                 1.3796                 1.4936
 IR Inten    --      1.7444                 3.6051                 3.4500

                     40                     41                     42
                      A                      A                      A
 Frequencies --   1505.8168              1805.5884              2937.1747
 Red. masses --      1.5847                10.2360                 1.0862
 Frc consts  --      2.1171                19.6615                 5.5210
 IR Inten    --      0.0290               200.1437                58.1608

                     43                     44                     45
                      A                      A                      A
 Frequencies --   3046.9593              3050.2086              3106.3648
 Red. masses --      1.0570                 1.0598                 1.1075
 Frc consts  --      5.7817                 5.8094                 6.2966
 IR Inten    --     47.5286                 1.5536                 5.1033

                     46                     47                     48
                      A                      A                      A
 Frequencies --   3106.7719              3119.7608              3125.2796
 Red. masses --      1.1074                 1.0512                 1.0572
 Frc consts  --      6.2973                 6.0279                 6.0838
 IR Inten    --     20.9815                16.8909                11.5498

                     49                     50                     51
                      A                      A                      A
 Frequencies --   3198.4741              3213.6483              3676.7097
 Red. masses --      1.1178                 1.1156                 1.0645
 Frc consts  --      6.7378                 6.7880                 8.4788
 IR Inten    --      0.3632                15.8284                74.9539

 - Thermochemistry -
 -------------------
 Temperature   298.150 Kelvin.  Pressure   1.00000 Atm.
 Atom     1 has atomic number  8 and mass  15.99491

 Molecular mass:   126.06808 amu.
 Principal axes and moments of inertia in atomic units:
                           1         2         3
     Eigenvalues --   504.709661666.651801857.50176
           X            0.99995   0.01001   0.00000
           Y           -0.01001   0.99995  -0.00002
           Z            0.00000   0.00002   1.00000
 This molecule is an asymmetric top.
 Rotational symmetry number  1.
 Warning -- assumption of classical behavior for rotation
           may cause significant error
 Rotational temperatures (Kelvin)      0.17161     0.05197     0.04663
 Rotational constants (GHZ):           3.57580     1.08285     0.97160
 Zero-point vibrational energy     413671.0 (Joules/Mol)
                                   98.86974 (Kcal/Mol)
 Warning -- explicit consideration of  11 degrees of freedom as
           vibrations may cause significant error
 Vibrational temperatures:     93.25   153.11   335.20   374.03   393.61
          (Kelvin)            481.50   495.61   564.97   596.41   646.11
                              739.41   905.97  1118.01  1126.85  1202.37
                             1207.33  1261.76  1288.34  1317.28  1330.62
                             1413.74  1436.33  1514.59  1550.14  1554.77
                             1558.76  1584.36  1695.61  1709.76  1760.89
                             1768.34  1804.61  1891.50  1991.30  1999.44
                             2073.47  2108.38  2110.53  2145.15  2166.53
                             2597.84  4225.93  4383.89  4388.56  4469.36
                             4469.95  4488.63  4496.57  4601.89  4623.72
                             5289.96

 Zero-point correction=                           0.157559 (Hartree/Particle)
 Thermal correction to Energy=                    0.166203
 Thermal correction to Enthalpy=                  0.167147
 Thermal correction to Gibbs Free Energy=         0.124218
 Sum of electronic and zero-point Energies=           -423.012386
 Sum of electronic and thermal Energies=              -423.003742
 Sum of electronic and thermal Enthalpies=            -423.002798
 Sum of electronic and thermal Free Energies=         -423.045727

                     E (Thermal)             CV                S
                      KCal/Mol        Cal/Mol-Kelvin    Cal/Mol-Kelvin
 Total                  104.294             33.388             90.351
 Electronic               0.000              0.000              0.000
 Translational            0.889              2.981             40.409
 Rotational               0.889              2.981             28.837
 Vibrational            102.516             27.427             21.106
 Vibration     1          0.597              1.971              4.305
 Vibration     2          0.605              1.944              3.333
 Vibration     3          0.654              1.790              1.856
 Vibration     4          0.668              1.746              1.662
 Vibration     5          0.676              1.722              1.574
 Vibration     6          0.716              1.606              1.237
 Vibration     7          0.723              1.587              1.191
 Vibration     8          0.760              1.486              0.990
 Vibration     9          0.778              1.439              0.911
 Vibration    10          0.808              1.363              0.799
 Vibration    11          0.869              1.219              0.624

 Normal termination of Gaussian 09 at Mon Jan 27 17:24:22 2020.
