 Gaussian 09, Revision D.01,
 Gaussian 09:  ES64L-G09RevD.01 24-Apr-2013

 -----------------------------
 # b3lyp 6-31G(2df,p) opt Freq
 -----------------------------

 -----
 titel
 -----
 Symbolic Z-matrix:
 Charge =  0 Multiplicity = 1

 SCF Done:  E(RB3LYP) =  -423.116131598     A.U. after   12 cycles
 Optimization completed.
    -- Stationary point found.
 Normal termination of Gaussian 09 at Tue Jan 28 01:56:40 2020.

 ----------------------------------------------------------------------
 #N Geom=AllCheck Guess=TCheck SCRF=Check GenChk RB3LYP/6-31G(2df,p) Fr
 eq
 ----------------------------------------------------------------------

 Structure from the checkpoint file:  "/scratch/puck/g09_a127df6c-700d-47b9-a51e-d902e3be16f5/Gau-89540.chk"
 -----
 titel
 -----
 Charge =  0 Multiplicity = 1

                         Standard orientation:
 ---------------------------------------------------------------------
 Center     Atomic      Atomic             Coordinates (Angstroms)
 Number     Number       Type             X           Y           Z
 ---------------------------------------------------------------------
      1          6           0       -0.654097    2.021075    0.036892
      2          6           0       -0.837257    0.534206    0.125161
      3          6           0       -2.074278   -0.145371    0.699879
      4          6           0       -1.637915   -0.450615   -0.699474
      5          8           0       -0.591123   -1.433528   -0.694979
      6          6           0        0.244505   -0.522238    0.034664
      7          6           0        1.267935   -0.997715    1.023791
      8          6           0        1.686010   -0.379619   -0.305794
      9          8           0        2.221301    0.911535   -0.336301
     10          1           0       -1.616500    2.513156   -0.137259
     11          1           0       -0.240190    2.425703    0.967421
     12          1           0        0.029641    2.290730   -0.771362
     13          1           0       -1.992364   -0.914036    1.463272
     14          1           0       -2.937131    0.508584    0.790080
     15          1           0       -2.231047   -0.350982   -1.600797
     16          1           0        1.407385   -0.398106    1.918228
     17          1           0        1.400309   -2.066981    1.150031
     18          1           0        2.063710   -1.065643   -1.064684
     19          1           0        3.105353    0.875173    0.044604
 ---------------------------------------------------------------------

 SCF Done:  E(RB3LYP) =  -423.116131598     A.U. after    1 cycles

 The electronic state is 1-A.
 Alpha  occ. eigenvalues --  -19.14789 -19.13666 -10.23928 -10.23400 -10.23323
 Alpha  occ. eigenvalues --  -10.20006 -10.18331 -10.18199 -10.17544  -1.05385
 Alpha  occ. eigenvalues --   -1.02975  -0.84043  -0.83385  -0.71125  -0.62724
 Alpha  occ. eigenvalues --   -0.61107  -0.59449  -0.52815  -0.52162  -0.47855
 Alpha  occ. eigenvalues --   -0.46695  -0.45879  -0.42502  -0.41050  -0.39469
 Alpha  occ. eigenvalues --   -0.39215  -0.38444  -0.36634  -0.33250  -0.31408
 Alpha  occ. eigenvalues --   -0.30857  -0.26779  -0.24510  -0.22223
 Alpha virt. eigenvalues --    0.06380   0.09578   0.11019   0.11628   0.12390
 Alpha virt. eigenvalues --    0.13059   0.14632   0.14967   0.15567   0.16338
 Alpha virt. eigenvalues --    0.17946   0.20181   0.20517   0.21964   0.22557

 Mulliken charges:
               1
     1  C   -0.484509
     2  C    0.179596
     3  C   -0.347108
     4  C    0.058644
     5  O   -0.324811
     6  C    0.418151
     7  C   -0.405362
     8  C   -0.003776
     9  O   -0.421371
    10  H    0.109978
    11  H    0.119264
    12  H    0.141486
    13  H    0.113414
    14  H    0.109590
    15  H    0.104615
    16  H    0.118485
    17  H    0.123847
    18  H    0.100131
    19  H    0.289737
 Sum of Mulliken charges =   0.00000

 Dipole moment (field-independent basis, Debye):
    X=              0.7902    Y=              0.7921    Z=              1.0155  Tot=              1.5109
 Quadrupole moment (field-independent basis, Debye-Ang):
   XX=            -44.8235   YY=            -55.9846   ZZ=            -52.8793
   XY=             -2.6210   XZ=              2.2720   YZ=             -0.5032

  Exact polarizability:  88.093  -0.846  73.130   1.123  -0.739  66.884
 Approx polarizability: 118.265   1.995 105.771   2.298   1.381 103.731

                      1                      2                      3
                      A                      A                      A
 Frequencies --    122.3774               151.0989               176.9577
 Red. masses --      3.0376                 3.9241                 1.4792
 Frc consts  --      0.0268                 0.0528                 0.0273
 IR Inten    --      0.2425                 3.8406                 1.7140

                      4                      5                      6
                      A                      A                      A
 Frequencies --    216.1753               277.4965               300.7159
 Red. masses --      1.7315                 1.8666                 2.2371
 Frc consts  --      0.0477                 0.0847                 0.1192
 IR Inten    --      3.0460                38.9135                12.8271

                      7                      8                      9
                      A                      A                      A
 Frequencies --    320.9443               399.3042               431.0667
 Red. masses --      1.8575                 2.9505                 2.2405
 Frc consts  --      0.1127                 0.2772                 0.2453
 IR Inten    --     44.0246                 8.7678                 6.6850

                     10                     11                     12
                      A                      A                      A
 Frequencies --    473.0463               565.4593               584.1490
 Red. masses --      2.5605                 3.6195                 3.3239
 Frc consts  --      0.3376                 0.6819                 0.6683
 IR Inten    --      1.3808                 3.5974                 2.7781

                     13                     14                     15
                      A                      A                      A
 Frequencies --    641.2454               801.5291               826.3599
 Red. masses --      3.1858                 2.3219                 1.9341
 Frc consts  --      0.7718                 0.8789                 0.7782
 IR Inten    --      0.9298                 8.6116                10.3859

                     16                     17                     18
                      A                      A                      A
 Frequencies --    859.4267               873.4980               892.8798
 Red. masses --      2.2318                 2.2369                 1.7634
 Frc consts  --      0.9712                 1.0056                 0.8283
 IR Inten    --     20.4217                 1.3299                21.3317

                     19                     20                     21
                      A                      A                      A
 Frequencies --    958.2002               973.3172               997.0912
 Red. masses --      2.2540                 1.9463                 1.7104
 Frc consts  --      1.2193                 1.0864                 1.0019
 IR Inten    --      9.4816                 9.4992                 7.9576

                     22                     23                     24
                      A                      A                      A
 Frequencies --   1006.4246              1019.0535              1035.6252
 Red. masses --      2.0079                 1.4812                 1.6931
 Frc consts  --      1.1983                 0.9063                 1.0699
 IR Inten    --     10.2605                11.7438                23.8936

                     25                     26                     27
                      A                      A                      A
 Frequencies --   1073.6934              1084.2388              1100.2975
 Red. masses --      1.8344                 1.7129                 1.7688
 Frc consts  --      1.2460                 1.1864                 1.2617
 IR Inten    --     49.9153                27.6289                10.0072

                     28                     29                     30
                      A                      A                      A
 Frequencies --   1122.9296              1151.4624              1170.4834
 Red. masses --      2.0070                 1.9675                 2.7553
 Frc consts  --      1.4911                 1.5370                 2.2241
 IR Inten    --      1.4876                33.9810                35.1630

                     31                     32                     33
                      A                      A                      A
 Frequencies --   1253.4499              1270.0780              1296.9942
 Red. masses --      2.2901                 1.7396                 1.3086
 Frc consts  --      2.1199                 1.6533                 1.2969
 IR Inten    --     27.6382                31.4633                51.9488

                     34                     35                     36
                      A                      A                      A
 Frequencies --   1346.5925              1399.5433              1414.7583
 Red. masses --      1.9811                 1.6067                 1.2186
 Frc consts  --      2.1165                 1.8542                 1.4371
 IR Inten    --      4.1291                 3.2265                 0.3519

                     37                     38                     39
                      A                      A                      A
 Frequencies --   1426.9244              1478.5679              1482.9514
 Red. masses --      1.4881                 1.4922                 1.0824
 Frc consts  --      1.7852                 1.9220                 1.4025
 IR Inten    --      2.6419                 7.4100                10.5257

                     40                     41                     42
                      A                      A                      A
 Frequencies --   1496.3162              1506.1411              3032.9538
 Red. masses --      1.0959                 2.5746                 1.0375
 Frc consts  --      1.4457                 3.4410                 5.6229
 IR Inten    --      3.1280                10.4012                29.6814

                     43                     44                     45
                      A                      A                      A
 Frequencies --   3090.8243              3099.6780              3112.2752
 Red. masses --      1.0994                 1.0872                 1.0535
 Frc consts  --      6.1883                 6.1545                 6.0125
 IR Inten    --     21.5708                26.2159                11.9760

                     46                     47                     48
                      A                      A                      A
 Frequencies --   3123.0490              3125.5798              3183.4917
 Red. masses --      1.0997                 1.0538                 1.0955
 Frc consts  --      6.3194                 6.0655                 6.5411
 IR Inten    --     13.9068                 4.1775                19.8920

                     49                     50                     51
                      A                      A                      A
 Frequencies --   3204.6217              3220.5384              3797.6387
 Red. masses --      1.1153                 1.1169                 1.0663
 Frc consts  --      6.7486                 6.8253                 9.0605
 IR Inten    --     11.8011                 3.9760                19.6841

 - Thermochemistry -
 -------------------
 Temperature   298.150 Kelvin.  Pressure   1.00000 Atm.
 Atom     1 has atomic number  6 and mass  12.00000

 Molecular mass:   126.06808 amu.
 Principal axes and moments of inertia in atomic units:
                           1         2         3
     Eigenvalues --   683.032551153.123541491.79055
           X            0.99883  -0.04834   0.00292
           Y            0.04839   0.99860  -0.02126
           Z           -0.00189   0.02138   0.99977
 This molecule is an asymmetric top.
 Rotational symmetry number  1.
 Warning -- assumption of classical behavior for rotation
           may cause significant error
 Rotational temperatures (Kelvin)      0.12681     0.07511     0.05806
 Rotational constants (GHZ):           2.64225     1.56509     1.20978
 Zero-point vibrational energy     412529.3 (Joules/Mol)
                                   98.59687 (Kcal/Mol)
 Warning -- explicit consideration of  12 degrees of freedom as
           vibrations may cause significant error
 Vibrational temperatures:    176.07   217.40   254.60   311.03   399.26
          (Kelvin)            432.66   461.77   574.51   620.21   680.61
                              813.57   840.46   922.61  1153.22  1188.95
                             1236.52  1256.77  1284.65  1378.63  1400.38
                             1434.59  1448.02  1466.19  1490.03  1544.80
                             1559.98  1583.08  1615.64  1656.70  1684.06
                             1803.43  1827.36  1866.08  1937.44  2013.63
                             2035.52  2053.02  2127.33  2133.63  2152.86
                             2167.00  4363.74  4447.00  4459.74  4477.86
                             4493.37  4497.01  4580.33  4610.73  4633.63
                             5463.95

 Zero-point correction=                           0.157124 (Hartree/Particle)
 Thermal correction to Energy=                    0.165790
 Thermal correction to Enthalpy=                  0.166734
 Thermal correction to Gibbs Free Energy=         0.124345
 Sum of electronic and zero-point Energies=           -422.959007
 Sum of electronic and thermal Energies=              -422.950342
 Sum of electronic and thermal Enthalpies=            -422.949397
 Sum of electronic and thermal Free Energies=         -422.991787

                     E (Thermal)             CV                S
                      KCal/Mol        Cal/Mol-Kelvin    Cal/Mol-Kelvin
 Total                  104.035             33.771             89.216
 Electronic               0.000              0.000              0.000
 Translational            0.889              2.981             40.409
 Rotational               0.889              2.981             28.554
 Vibrational            102.257             27.810             20.254
 Vibration     1          0.610              1.930              3.062
 Vibration     2          0.619              1.901              2.658
 Vibration     3          0.628              1.871              2.360
 Vibration     4          0.645              1.816              1.991
 Vibration     5          0.678              1.715              1.549
 Vibration     6          0.693              1.672              1.413
 Vibration     7          0.706              1.633              1.305
 Vibration     8          0.765              1.472              0.965
 Vibration     9          0.792              1.403              0.855
 Vibration    10          0.830              1.310              0.729
 Vibration    11          0.921              1.106              0.513
 Vibration    12          0.941              1.066              0.478

 Optimization completed.
    -- Stationary point found.
 Normal termination of Gaussian 09 at Tue Jan 28 02:43:58 2020.
 Normal termination of Gaussian 09 at Tue Jan 28 01:50:54 2020.
