 Gaussian 09, Revision D.01,
 Gaussian 09:  ES64L-G09RevD.01 24-Apr-2013

 -----------------------------
 # b3lyp 6-31G(2df,p) opt Freq
 -----------------------------

 -----
 titel
 -----
 Symbolic Z-matrix:
 Charge =  0 Multiplicity = 1

 SCF Done:  E(RB3LYP) =  -423.115019626     A.U. after   14 cycles
 Optimization completed.
    -- Stationary point found.
 Normal termination of Gaussian 09 at Mon Jan 27 14:00:00 2020.

 ----------------------------------------------------------------------
 #N Geom=AllCheck Guess=TCheck SCRF=Check GenChk RB3LYP/6-31G(2df,p) Fr
 eq
 ----------------------------------------------------------------------

 Structure from the checkpoint file:  "/scratch/puck/g09_4ab299f5-249b-4870-9e70-722db5ae4425/Gau-160131.chk"
 -----
 titel
 -----
 Charge =  0 Multiplicity = 1

                         Standard orientation:
 ---------------------------------------------------------------------
 Center     Atomic      Atomic             Coordinates (Angstroms)
 Number     Number       Type             X           Y           Z
 ---------------------------------------------------------------------
      1          6           0       -4.618936   -0.781065    0.072252
      2          6           0       -3.317510   -0.137243   -0.023357
      3          6           0       -2.237227    0.386412   -0.101497
      4          6           0       -0.943632    1.045157   -0.205562
      5          8           0        0.093941    0.147578    0.150798
      6          6           0        1.367610    0.751551    0.097686
      7          6           0        2.396447   -0.272530    0.488071
      8          6           0        3.793291   -0.147589    0.057582
      9          8           0        2.920997   -1.096903   -0.552901
     10          1           0       -4.511126   -1.843119    0.318162
     11          1           0       -5.237483   -0.321373    0.850821
     12          1           0       -5.167567   -0.714537   -0.873607
     13          1           0       -0.789581    1.413543   -1.234703
     14          1           0       -0.919169    1.933068    0.451028
     15          1           0        1.591612    1.124860   -0.915120
     16          1           0        1.417155    1.610599    0.791141
     17          1           0        2.178939   -0.802960    1.415316
     18          1           0        4.090875    0.688501   -0.574998
     19          1           0        4.586590   -0.562144    0.677726
 ---------------------------------------------------------------------

 SCF Done:  E(RB3LYP) =  -423.115019626     A.U. after    1 cycles

 The electronic state is 1-A.
 Alpha  occ. eigenvalues --  -19.15026 -19.14497 -10.25111 -10.23923 -10.23629
 Alpha  occ. eigenvalues --  -10.23601 -10.20361 -10.17689 -10.16820  -1.07283
 Alpha  occ. eigenvalues --   -1.03902  -0.78594  -0.75844  -0.71154  -0.66635
 Alpha  occ. eigenvalues --   -0.64827  -0.59864  -0.51790  -0.50632  -0.49034
 Alpha  occ. eigenvalues --   -0.47319  -0.46639  -0.44092  -0.42842  -0.42559
 Alpha  occ. eigenvalues --   -0.41972  -0.38139  -0.37504  -0.33269  -0.31086
 Alpha  occ. eigenvalues --   -0.27087  -0.26526  -0.25777  -0.24526
 Alpha virt. eigenvalues --    0.03735   0.06081   0.09961   0.10038   0.11117
 Alpha virt. eigenvalues --    0.11143   0.12513   0.13825   0.15560   0.16173
 Alpha virt. eigenvalues --    0.16988   0.18104   0.18191   0.20532   0.20739

 Mulliken charges:
               1
     1  C   -0.498926
     2  C    0.139099
     3  C    0.002816
     4  C   -0.205297
     5  O   -0.246651
     6  C   -0.063094
     7  C    0.082245
     8  C   -0.182447
     9  O   -0.224655
    10  H    0.154732
    11  H    0.148071
    12  H    0.149210
    13  H    0.115544
    14  H    0.110918
    15  H    0.095842
    16  H    0.088713
    17  H    0.103811
    18  H    0.112684
    19  H    0.117384
 Sum of Mulliken charges =   0.00000

 Dipole moment (field-independent basis, Debye):
    X=             -0.2427    Y=              2.0099    Z=              0.8863  Tot=              2.2100
 Quadrupole moment (field-independent basis, Debye-Ang):
   XX=            -40.5423   YY=            -53.0319   ZZ=            -53.1830
   XY=              6.3770   XZ=              3.0447   YZ=             -2.2484

  Exact polarizability: 122.128  11.581  67.155  -2.133  -2.572  59.786
 Approx polarizability: 149.514  22.115 101.938  -5.019  -1.342  90.152

                      1                      2                      3
                      A                      A                      A
 Frequencies --     24.0137                38.4788                65.5859
 Red. masses --      1.0316                 4.0504                 3.5863
 Frc consts  --      0.0004                 0.0035                 0.0091
 IR Inten    --      0.1358                 3.5721                 3.1728

                      4                      5                      6
                      A                      A                      A
 Frequencies --     81.1952               131.0300               170.7687
 Red. masses --      3.4317                 3.5547                 3.6221
 Frc consts  --      0.0133                 0.0360                 0.0622
 IR Inten    --      1.0740                 4.8352                 0.8558

                      7                      8                      9
                      A                      A                      A
 Frequencies --    209.7387               298.1934               316.7515
 Red. masses --      2.8323                 3.7972                 4.0176
 Frc consts  --      0.0734                 0.1989                 0.2375
 IR Inten    --      5.7068                 2.0103                 1.9957

                     10                     11                     12
                      A                      A                      A
 Frequencies --    376.8238               405.1766               453.0181
 Red. masses --      4.2132                 3.8284                 2.7406
 Frc consts  --      0.3525                 0.3703                 0.3314
 IR Inten    --      0.1457                 1.0069                 6.3148

                     13                     14                     15
                      A                      A                      A
 Frequencies --    549.5436               780.7811               817.3601
 Red. masses --      5.2646                 3.3152                 4.1199
 Frc consts  --      0.9367                 1.1907                 1.6217
 IR Inten    --      1.5397                 8.7275                 6.9954

                     16                     17                     18
                      A                      A                      A
 Frequencies --    872.9911               950.9615               989.6901
 Red. masses --      1.7148                 3.2944                 1.9428
 Frc consts  --      0.7700                 1.7553                 1.1212
 IR Inten    --     18.5013                34.6895                 7.3452

                     19                     20                     21
                      A                      A                      A
 Frequencies --   1023.2545              1033.7192              1051.4741
 Red. masses --      2.4664                 1.7467                 1.4207
 Frc consts  --      1.5215                 1.0997                 0.9255
 IR Inten    --     21.3786                 9.9973                 0.2387

                     22                     23                     24
                      A                      A                      A
 Frequencies --   1058.4993              1103.4988              1131.3585
 Red. masses --      1.4115                 1.5620                 5.8449
 Frc consts  --      0.9318                 1.1207                 4.4078
 IR Inten    --      0.1604                 4.3173               206.1213

                     25                     26                     27
                      A                      A                      A
 Frequencies --   1154.3133              1161.4542              1174.9437
 Red. masses --      1.6938                 1.4417                 1.6347
 Frc consts  --      1.3297                 1.1459                 1.3296
 IR Inten    --     14.6214                 6.3498                 5.6536

                     28                     29                     30
                      A                      A                      A
 Frequencies --   1182.0545              1252.9747              1268.6464
 Red. masses --      3.6932                 1.0632                 1.1555
 Frc consts  --      3.0404                 0.9834                 1.0958
 IR Inten    --     50.7380                 1.1246                 7.4928

                     31                     32                     33
                      A                      A                      A
 Frequencies --   1292.4211              1359.1607              1413.2894
 Red. masses --      1.5232                 1.2720                 1.3530
 Frc consts  --      1.4990                 1.3845                 1.5923
 IR Inten    --      3.4700                89.4199                31.0278

                     34                     35                     36
                      A                      A                      A
 Frequencies --   1418.1100              1468.3729              1476.6520
 Red. masses --      1.3856                 1.6369                 1.0392
 Frc consts  --      1.6418                 2.0794                 1.3351
 IR Inten    --     33.5898                 2.2194                 5.7388

                     37                     38                     39
                      A                      A                      A
 Frequencies --   1478.7822              1491.4641              1512.4621
 Red. masses --      1.0403                 1.0913                 1.0861
 Frc consts  --      1.3403                 1.4303                 1.4638
 IR Inten    --      5.4240                 3.9991                 2.6080

                     40                     41                     42
                      A                      A                      A
 Frequencies --   1532.7521              2381.3477              2939.5590
 Red. masses --      1.4248                11.8511                 1.0573
 Frc consts  --      1.9722                39.5963                 5.3828
 IR Inten    --      3.0236                18.2298                10.1360

                     43                     44                     45
                      A                      A                      A
 Frequencies --   2947.6760              2961.9761              2989.3903
 Red. masses --      1.0616                 1.0985                 1.0978
 Frc consts  --      5.4348                 5.6784                 5.7802
 IR Inten    --     89.2302                42.3824                35.6766

                     46                     47                     48
                      A                      A                      A
 Frequencies --   3028.8350              3080.8763              3089.6334
 Red. masses --      1.0348                 1.0503                 1.1005
 Frc consts  --      5.5930                 5.8739                 6.1893
 IR Inten    --     29.1104                29.4972                10.4321

                     49                     50                     51
                      A                      A                      A
 Frequencies --   3091.7617              3117.3376              3166.5015
 Red. masses --      1.0999                 1.0887                 1.1188
 Frc consts  --      6.1945                 6.2333                 6.6095
 IR Inten    --      8.7038                16.9077                29.2089

 - Thermochemistry -
 -------------------
 Temperature   298.150 Kelvin.  Pressure   1.00000 Atm.
 Atom     1 has atomic number  6 and mass  12.00000

 Molecular mass:   126.06808 amu.
 Principal axes and moments of inertia in atomic units:
                           1         2         3
     Eigenvalues --   290.947753571.151013744.72415
           X            0.99989   0.01449   0.00197
           Y           -0.01436   0.99835  -0.05560
           Z           -0.00277   0.05557   0.99845
 This molecule is an asymmetric top.
 Rotational symmetry number  1.
 Rotational temperatures (Kelvin)      0.29770     0.02425     0.02313
 Rotational constants (GHZ):           6.20297     0.50537     0.48194
 Zero-point vibrational energy     408923.4 (Joules/Mol)
                                   97.73504 (Kcal/Mol)
 Warning -- explicit consideration of  13 degrees of freedom as
           vibrations may cause significant error
 Vibrational temperatures:     34.55    55.36    94.36   116.82   188.52
          (Kelvin)            245.70   301.77   429.03   455.73   542.16
                              582.96   651.79   790.67  1123.37  1176.00
                             1256.04  1368.22  1423.94  1472.23  1487.29
                             1512.83  1522.94  1587.69  1627.77  1660.80
                             1671.07  1690.48  1700.71  1802.75  1825.30
                             1859.50  1955.53  2033.41  2040.34  2112.66
                             2124.57  2127.64  2145.88  2176.09  2205.29
                             3426.22  4229.36  4241.04  4261.62  4301.06
                             4357.81  4432.69  4445.29  4448.35  4485.15
                             4555.88

 Zero-point correction=                           0.155751 (Hartree/Particle)
 Thermal correction to Energy=                    0.166287
 Thermal correction to Enthalpy=                  0.167232
 Thermal correction to Gibbs Free Energy=         0.117336
 Sum of electronic and zero-point Energies=           -422.959269
 Sum of electronic and thermal Energies=              -422.948732
 Sum of electronic and thermal Enthalpies=            -422.947788
 Sum of electronic and thermal Free Energies=         -422.997684

                     E (Thermal)             CV                S
                      KCal/Mol        Cal/Mol-Kelvin    Cal/Mol-Kelvin
 Total                  104.347             34.996            105.014
 Electronic               0.000              0.000              0.000
 Translational            0.889              2.981             40.409
 Rotational               0.889              2.981             29.744
 Vibrational            102.569             29.034             34.862
 Vibration     1          0.593              1.985              6.271
 Vibration     2          0.594              1.982              5.336
 Vibration     3          0.597              1.971              4.282
 Vibration     4          0.600              1.962              3.862
 Vibration     5          0.612              1.922              2.931
 Vibration     6          0.626              1.878              2.427
 Vibration     7          0.642              1.826              2.046
 Vibration     8          0.691              1.677              1.427
 Vibration     9          0.704              1.642              1.327
 Vibration    10          0.747              1.520              1.052
 Vibration    11          0.770              1.459              0.944
 Vibration    12          0.812              1.354              0.787
 Vibration    13          0.905              1.141              0.545

 Optimization completed on the basis of negligible forces.
    -- Stationary point found.
 Normal termination of Gaussian 09 at Mon Jan 27 14:31:01 2020.
