 Gaussian 09, Revision D.01,
 Gaussian 09:  ES64L-G09RevD.01 24-Apr-2013

 -----------------------------
 # b3lyp 6-31G(2df,p) opt Freq
 -----------------------------

 -----
 titel
 -----
 Symbolic Z-matrix:
 Charge =  0 Multiplicity = 1

 SCF Done:  E(RB3LYP) =  -423.175111348     A.U. after   13 cycles
 Optimization completed.
    -- Stationary point found.
 Normal termination of Gaussian 09 at Tue Jan 28 00:05:55 2020.

 ----------------------------------------------------------------------
 #N Geom=AllCheck Guess=TCheck SCRF=Check GenChk RB3LYP/6-31G(2df,p) Fr
 eq
 ----------------------------------------------------------------------

 Structure from the checkpoint file:  "/scratch/puck/g09_0fb7b78d-f3c7-473e-bba0-3b6dad0227b2/Gau-21332.chk"
 -----
 titel
 -----
 Charge =  0 Multiplicity = 1

                         Standard orientation:
 ---------------------------------------------------------------------
 Center     Atomic      Atomic             Coordinates (Angstroms)
 Number     Number       Type             X           Y           Z
 ---------------------------------------------------------------------
      1          6           0       -1.693181   -1.241072   -1.042366
      2          6           0       -0.938350   -0.370147   -0.048640
      3          6           0       -1.674249    0.885004    0.500605
      4          8           0       -0.574553    1.742113    0.138964
      5          6           0        0.113229    0.667616   -0.538303
      6          6           0        1.468159    0.329817    0.114773
      7          8           0        2.432810   -0.186029   -0.798318
      8          6           0        1.102597   -0.752542    1.100086
      9          6           0       -0.172242   -1.129622    1.002537
     10          1           0       -2.174295   -0.633164   -1.815481
     11          1           0       -1.017506   -1.947793   -1.534345
     12          1           0       -2.475079   -1.822495   -0.539984
     13          1           0       -2.588169    1.143688   -0.051597
     14          1           0       -1.881482    0.908246    1.576674
     15          1           0        0.200499    0.843733   -1.617529
     16          1           0        1.849569    1.229712    0.621102
     17          1           0        2.794971    0.555481   -1.294360
     18          1           0        1.833423   -1.165993    1.785592
     19          1           0       -0.643762   -1.894411    1.612612
 ---------------------------------------------------------------------

 SCF Done:  E(RB3LYP) =  -423.175111348     A.U. after    1 cycles

 The electronic state is 1-A.
 Alpha  occ. eigenvalues --  -19.13549 -19.13199 -10.23066 -10.22729 -10.22553
 Alpha  occ. eigenvalues --  -10.19979 -10.18620 -10.18199 -10.18126  -1.03926
 Alpha  occ. eigenvalues --   -1.01506  -0.83143  -0.75728  -0.70302  -0.66254
 Alpha  occ. eigenvalues --   -0.64537  -0.55419  -0.53682  -0.51431  -0.50031
 Alpha  occ. eigenvalues --   -0.45678  -0.44628  -0.43684  -0.40523  -0.40414
 Alpha  occ. eigenvalues --   -0.39094  -0.38371  -0.35064  -0.32814  -0.32638
 Alpha  occ. eigenvalues --   -0.29872  -0.27125  -0.25547  -0.24421
 Alpha virt. eigenvalues --    0.00939   0.07885   0.09118   0.10176   0.12854
 Alpha virt. eigenvalues --    0.13483   0.14253   0.15405   0.16188   0.16513
 Alpha virt. eigenvalues --    0.17177   0.17946   0.18998   0.21054   0.22935

 Mulliken charges:
               1
     1  C   -0.480114
     2  C    0.240143
     3  C   -0.108161
     4  O   -0.295762
     5  C    0.045735
     6  C    0.040521
     7  O   -0.434965
     8  C   -0.070387
     9  C   -0.130060
    10  H    0.118579
    11  H    0.130352
    12  H    0.117734
    13  H    0.093249
    14  H    0.101841
    15  H    0.066490
    16  H    0.083620
    17  H    0.283355
    18  H    0.101986
    19  H    0.095845
 Sum of Mulliken charges =   0.00000

 Dipole moment (field-independent basis, Debye):
    X=             -0.6564    Y=             -0.3907    Z=             -0.1557  Tot=              0.7796
 Quadrupole moment (field-independent basis, Debye-Ang):
   XX=            -50.2746   YY=            -56.6080   ZZ=            -50.8059
   XY=              5.0886   XZ=             -0.8379   YZ=             -3.1682

  Exact polarizability:  91.070   3.492  68.617   0.272  -4.004  69.301
 Approx polarizability: 132.458   7.021 103.087  -1.906  -5.408 101.030

                      1                      2                      3
                      A                      A                      A
 Frequencies --     92.0275               184.1129               213.2146
 Red. masses --      4.0455                 2.7016                 1.1886
 Frc consts  --      0.0202                 0.0540                 0.0318
 IR Inten    --      2.1575                 0.6619                 0.6230

                      4                      5                      6
                      A                      A                      A
 Frequencies --    225.9060               285.0004               312.6707
 Red. masses --      2.8002                 1.0924                 2.9449
 Frc consts  --      0.0842                 0.0523                 0.1696
 IR Inten    --      2.5221               103.8072                 5.9214

                      7                      8                      9
                      A                      A                      A
 Frequencies --    332.5137               369.1746               427.1583
 Red. masses --      2.4214                 4.2543                 2.7593
 Frc consts  --      0.1577                 0.3416                 0.2966
 IR Inten    --      5.6916                 5.0131                 1.9186

                     10                     11                     12
                      A                      A                      A
 Frequencies --    578.4018               613.6782               685.5928
 Red. masses --      4.0340                 3.5472                 4.2018
 Frc consts  --      0.7951                 0.7871                 1.1636
 IR Inten    --      6.7936                 1.6684                 0.7969

                     13                     14                     15
                      A                      A                      A
 Frequencies --    752.1797               812.4792               880.0703
 Red. masses --      4.2409                 1.5703                 3.2952
 Frc consts  --      1.4137                 0.6108                 1.5037
 IR Inten    --      3.2981                26.0372                 9.1395

                     16                     17                     18
                      A                      A                      A
 Frequencies --    889.4690               925.6062               947.3809
 Red. masses --      1.9946                 1.9577                 2.2305
 Frc consts  --      0.9297                 0.9882                 1.1795
 IR Inten    --      2.7038                 2.7371                 6.0415

                     19                     20                     21
                      A                      A                      A
 Frequencies --    977.7675               992.6463              1018.1636
 Red. masses --      1.3202                 1.4666                 4.5874
 Frc consts  --      0.7436                 0.8514                 2.8019
 IR Inten    --      0.1018                 1.6900                16.6940

                     22                     23                     24
                      A                      A                      A
 Frequencies --   1036.8726              1041.6667              1072.9634
 Red. masses --      9.0331                 1.7427                 4.9657
 Frc consts  --      5.7218                 1.1141                 3.3682
 IR Inten    --    106.2323                 0.7361                77.6571

                     25                     26                     27
                      A                      A                      A
 Frequencies --   1111.2065              1157.2534              1176.4335
 Red. masses --      1.1588                 1.3120                 2.6428
 Frc consts  --      0.8430                 1.0352                 2.1550
 IR Inten    --      6.6044                 3.3205                 2.4404

                     28                     29                     30
                      A                      A                      A
 Frequencies --   1197.4322              1222.1298              1249.4622
 Red. masses --      1.7033                 1.2487                 2.1408
 Frc consts  --      1.4389                 1.0988                 1.9691
 IR Inten    --      3.7683                67.8897                 8.6673

                     31                     32                     33
                      A                      A                      A
 Frequencies --   1266.8290              1292.4182              1318.3636
 Red. masses --      1.5975                 1.4183                 1.4880
 Frc consts  --      1.5106                 1.3958                 1.5238
 IR Inten    --      2.8783                 0.6789                 5.2940

                     34                     35                     36
                      A                      A                      A
 Frequencies --   1351.5946              1378.5436              1412.9320
 Red. masses --      1.5677                 1.6026                 1.2490
 Frc consts  --      1.6873                 1.7944                 1.4691
 IR Inten    --      2.3142                 3.4963                 3.6051

                     37                     38                     39
                      A                      A                      A
 Frequencies --   1429.5889              1492.6440              1496.1976
 Red. masses --      1.6418                 1.0513                 1.0543
 Frc consts  --      1.9769                 1.3801                 1.3905
 IR Inten    --     10.4096                 3.3734                 4.0145

                     40                     41                     42
                      A                      A                      A
 Frequencies --   1521.0992              1678.2437              2990.0280
 Red. masses --      1.1008                 6.8111                 1.0827
 Frc consts  --      1.5007                11.3025                 5.7032
 IR Inten    --      1.8702                 1.8410                40.0831

                     43                     44                     45
                      A                      A                      A
 Frequencies --   3002.7486              3026.8506              3034.0269
 Red. masses --      1.0581                 1.0414                 1.0810
 Frc consts  --      5.6212                 5.6215                 5.8629
 IR Inten    --     78.2401                26.4564                46.8482

                     46                     47                     48
                      A                      A                      A
 Frequencies --   3059.2515              3092.5822              3105.7496
 Red. masses --      1.1068                 1.1003                 1.1018
 Frc consts  --      6.1033                 6.2003                 6.2614
 IR Inten    --     39.3786                22.5437                19.9687

                     49                     50                     51
                      A                      A                      A
 Frequencies --   3173.2738              3207.6392              3812.0820
 Red. masses --      1.0868                 1.1012                 1.0662
 Frc consts  --      6.4477                 6.6753                 9.1285
 IR Inten    --      8.9441                15.7274                17.8671

 - Thermochemistry -
 -------------------
 Temperature   298.150 Kelvin.  Pressure   1.00000 Atm.
 Atom     1 has atomic number  6 and mass  12.00000

 Molecular mass:   126.06808 amu.
 Principal axes and moments of inertia in atomic units:
                           1         2         3
     Eigenvalues --   714.395181189.093971362.39713
           X            0.99869   0.04743   0.01922
           Y           -0.04751   0.99886   0.00386
           Z           -0.01902  -0.00477   0.99981
 This molecule is an asymmetric top.
 Rotational symmetry number  1.
 Warning -- assumption of classical behavior for rotation
           may cause significant error
 Rotational temperatures (Kelvin)      0.12124     0.07284     0.06357
 Rotational constants (GHZ):           2.52625     1.51774     1.32468
 Zero-point vibrational energy     418234.3 (Joules/Mol)
                                   99.96041 (Kcal/Mol)
 Warning -- explicit consideration of  11 degrees of freedom as
           vibrations may cause significant error
 Vibrational temperatures:    132.41   264.90   306.77   325.03   410.05
          (Kelvin)            449.86   478.41   531.16   614.58   832.19
                              882.94   986.41  1082.22  1168.97  1266.22
                             1279.75  1331.74  1363.07  1406.79  1428.19
                             1464.91  1491.83  1498.72  1543.75  1598.78
                             1665.03  1692.62  1722.84  1758.37  1797.70
                             1822.68  1859.50  1896.83  1944.64  1983.41
                             2032.89  2056.86  2147.58  2152.69  2188.52
                             2414.62  4301.98  4320.28  4354.96  4365.28
                             4401.58  4449.53  4468.48  4565.63  4615.07
                             5484.73

 Zero-point correction=                           0.159297 (Hartree/Particle)
 Thermal correction to Energy=                    0.167591
 Thermal correction to Enthalpy=                  0.168535
 Thermal correction to Gibbs Free Energy=         0.126707
 Sum of electronic and zero-point Energies=           -423.015814
 Sum of electronic and thermal Energies=              -423.007521
 Sum of electronic and thermal Enthalpies=            -423.006576
 Sum of electronic and thermal Free Energies=         -423.048405

                     E (Thermal)             CV                S
                      KCal/Mol        Cal/Mol-Kelvin    Cal/Mol-Kelvin
 Total                  105.165             32.131             88.035
 Electronic               0.000              0.000              0.000
 Translational            0.889              2.981             40.409
 Rotational               0.889              2.981             28.539
 Vibrational            103.387             26.169             19.087
 Vibration     1          0.602              1.955              3.617
 Vibration     2          0.631              1.861              2.286
 Vibration     3          0.644              1.821              2.016
 Vibration     4          0.650              1.802              1.911
 Vibration     5          0.683              1.702              1.503
 Vibration     6          0.701              1.650              1.348
 Vibration     7          0.714              1.611              1.248
 Vibration     8          0.741              1.536              1.083
 Vibration     9          0.789              1.411              0.868
 Vibration    10          0.935              1.078              0.488
 Vibration    11          0.973              1.003              0.427

 Optimization completed.
    -- Stationary point found.
 Normal termination of Gaussian 09 at Tue Jan 28 00:57:25 2020.
