 Gaussian 09, Revision D.01,
 Gaussian 09:  ES64L-G09RevD.01 24-Apr-2013

 -----------------------------
 # b3lyp 6-31G(2df,p) opt Freq
 -----------------------------

 -----
 titel
 -----
 Symbolic Z-matrix:
 Charge =  0 Multiplicity = 1

 SCF Done:  E(RB3LYP) =  -423.126334840     A.U. after   13 cycles
 Optimization completed.
    -- Stationary point found.
 Normal termination of Gaussian 09 at Tue Jan 28 14:02:59 2020.

 ----------------------------------------------------------------------
 #N Geom=AllCheck Guess=TCheck SCRF=Check GenChk RB3LYP/6-31G(2df,p) Fr
 eq
 ----------------------------------------------------------------------

 Structure from the checkpoint file:  "/scratch/puck/g09_660342c3-db94-4239-9f2e-906bc97b1b09/Gau-143630.chk"
 -----
 titel
 -----
 Charge =  0 Multiplicity = 1

                         Standard orientation:
 ---------------------------------------------------------------------
 Center     Atomic      Atomic             Coordinates (Angstroms)
 Number     Number       Type             X           Y           Z
 ---------------------------------------------------------------------
      1          8           0        2.509113   -0.606166    0.200168
      2          6           0        1.347118   -1.311568   -0.190280
      3          6           0        0.092762   -0.757131    0.487826
      4          6           0       -1.235603   -1.210554   -0.152755
      5          6           0       -2.386729   -0.434861    0.412963
      6          6           0       -1.520731    0.218403   -0.637429
      7          6           0       -0.236356    0.676835    0.011370
      8          6           0        0.168895    1.985484    0.523200
      9          8           0        0.738738    1.449706   -0.692141
     10          1           0        2.399231    0.282171   -0.164245
     11          1           0        1.210943   -1.293081   -1.283247
     12          1           0        1.493597   -2.357247    0.102226
     13          1           0        0.170233   -0.892300    1.572308
     14          1           0       -1.372860   -2.141207   -0.689719
     15          1           0       -3.371937   -0.734633    0.070161
     16          1           0       -2.362156   -0.083011    1.441769
     17          1           0       -1.908030    0.572062   -1.584595
     18          1           0       -0.476639    2.850002    0.378865
     19          1           0        0.858660    2.049271    1.362885
 ---------------------------------------------------------------------

 SCF Done:  E(RB3LYP) =  -423.126334840     A.U. after    1 cycles

 The electronic state is 1-A.
 Alpha  occ. eigenvalues --  -19.16349 -19.11910 -10.24973 -10.23769 -10.22210
 Alpha  occ. eigenvalues --  -10.20262 -10.20169 -10.19849 -10.19318  -1.07829
 Alpha  occ. eigenvalues --   -1.00302  -0.90340  -0.74886  -0.68146  -0.65877
 Alpha  occ. eigenvalues --   -0.62246  -0.59077  -0.53591  -0.51626  -0.50582
 Alpha  occ. eigenvalues --   -0.49476  -0.45746  -0.44188  -0.41008  -0.40530
 Alpha  occ. eigenvalues --   -0.39718  -0.37550  -0.34489  -0.32853  -0.31930
 Alpha  occ. eigenvalues --   -0.30088  -0.27676  -0.26210  -0.25289
 Alpha virt. eigenvalues --    0.07479   0.08572   0.09461   0.11263   0.11841
 Alpha virt. eigenvalues --    0.12350   0.13386   0.15021   0.15605   0.16363
 Alpha virt. eigenvalues --    0.17118   0.17663   0.19576   0.20550   0.21621

 Mulliken charges:
               1
     1  O   -0.432431
     2  C   -0.073165
     3  C   -0.124824
     4  C   -0.054795
     5  C   -0.299199
     6  C   -0.135209
     7  C    0.445269
     8  C   -0.268790
     9  O   -0.293734
    10  H    0.291881
    11  H    0.090060
    12  H    0.105028
    13  H    0.078587
    14  H    0.093719
    15  H    0.118652
    16  H    0.111739
    17  H    0.100690
    18  H    0.121642
    19  H    0.124881
 Sum of Mulliken charges =   0.00000

 Dipole moment (field-independent basis, Debye):
    X=             -2.7037    Y=              0.3217    Z=              0.3578  Tot=              2.7462
 Quadrupole moment (field-independent basis, Debye-Ang):
   XX=            -57.6478   YY=            -50.4824   ZZ=            -52.9144
   XY=              1.9262   XZ=              0.3996   YZ=              2.9731

  Exact polarizability:  81.369   1.793  80.303   1.747   2.639  63.507
 Approx polarizability: 110.254   3.266 115.411   0.538   0.746 101.831

                      1                      2                      3
                      A                      A                      A
 Frequencies --    108.8555               154.9497               203.7535
 Red. masses --      3.8676                 3.3734                 3.3606
 Frc consts  --      0.0270                 0.0477                 0.0822
 IR Inten    --      1.9207                 2.9769                 0.9685

                      4                      5                      6
                      A                      A                      A
 Frequencies --    232.8858               294.7236               352.9860
 Red. masses --      2.7543                 2.5002                 3.5653
 Frc consts  --      0.0880                 0.1280                 0.2617
 IR Inten    --      4.1260                 5.4160                 4.3529

                      7                      8                      9
                      A                      A                      A
 Frequencies --    371.1842               468.3014               571.9896
 Red. masses --      6.2236                 3.3429                 1.7266
 Frc consts  --      0.5052                 0.4319                 0.3328
 IR Inten    --      2.7166                 1.4589                27.8976

                     10                     11                     12
                      A                      A                      A
 Frequencies --    579.8101               587.8052               760.4816
 Red. masses --      1.9653                 2.4461                 2.1697
 Frc consts  --      0.3893                 0.4980                 0.7393
 IR Inten    --     65.5640                41.1849                 8.0428

                     13                     14                     15
                      A                      A                      A
 Frequencies --    787.1495               830.4212               859.0991
 Red. masses --      1.7704                 1.6146                 3.4843
 Frc consts  --      0.6463                 0.6560                 1.5151
 IR Inten    --     10.5012                 5.2262                 9.0863

                     16                     17                     18
                      A                      A                      A
 Frequencies --    903.4278               933.5804               943.2639
 Red. masses --      1.9528                 2.1389                 2.1739
 Frc consts  --      0.9391                 1.0984                 1.1396
 IR Inten    --      6.7596                 7.7556                 5.3821

                     19                     20                     21
                      A                      A                      A
 Frequencies --    963.4527              1006.2140              1021.8511
 Red. masses --      4.3855                 1.6260                 1.6042
 Frc consts  --      2.3985                 0.9700                 0.9870
 IR Inten    --     37.7182                 6.2913                23.5743

                     22                     23                     24
                      A                      A                      A
 Frequencies --   1050.0419              1063.1463              1080.0223
 Red. masses --      1.5838                 1.3036                 3.4357
 Frc consts  --      1.0289                 0.8681                 2.3612
 IR Inten    --      2.4578                 4.2070                78.7739

                     25                     26                     27
                      A                      A                      A
 Frequencies --   1091.6209              1121.1421              1124.9366
 Red. masses --      1.4723                 1.4184                 1.9135
 Frc consts  --      1.0337                 1.0505                 1.4267
 IR Inten    --      9.2313                 2.7846                13.2295

                     28                     29                     30
                      A                      A                      A
 Frequencies --   1154.6911              1172.9774              1202.5877
 Red. masses --      1.3886                 1.7205                 2.1076
 Frc consts  --      1.0909                 1.3947                 1.7958
 IR Inten    --      4.4668                 0.3263                 0.9560

                     31                     32                     33
                      A                      A                      A
 Frequencies --   1215.1062              1241.7876              1283.0319
 Red. masses --      1.3124                 1.4535                 1.7289
 Frc consts  --      1.1417                 1.3205                 1.6768
 IR Inten    --      2.6119                 7.4159                 1.6450

                     34                     35                     36
                      A                      A                      A
 Frequencies --   1312.4682              1350.4145              1399.3813
 Red. masses --      1.8893                 1.9394                 1.3089
 Frc consts  --      1.9175                 2.0838                 1.5102
 IR Inten    --      0.9691                 8.3201                 0.6582

                     37                     38                     39
                      A                      A                      A
 Frequencies --   1440.2289              1447.1393              1490.7905
 Red. masses --      2.1126                 1.2402                 1.1936
 Frc consts  --      2.5818                 1.5302                 1.5630
 IR Inten    --     17.1026                84.6579                 1.5810

                     40                     41                     42
                      A                      A                      A
 Frequencies --   1505.1530              1528.8427              2980.3399
 Red. masses --      1.0870                 1.6111                 1.0684
 Frc consts  --      1.4509                 2.2186                 5.5914
 IR Inten    --      0.9518                 8.3310                42.5279

                     43                     44                     45
                      A                      A                      A
 Frequencies --   3044.4220              3067.2885              3089.3996
 Red. masses --      1.0841                 1.0952                 1.0506
 Frc consts  --      5.9200                 6.0709                 5.9078
 IR Inten    --     23.3199                51.7013                20.9168

                     46                     47                     48
                      A                      A                      A
 Frequencies --   3109.2209              3179.8905              3184.2817
 Red. masses --      1.0566                 1.1196                 1.0912
 Frc consts  --      6.0181                 6.6702                 6.5189
 IR Inten    --     21.0292                13.3215                12.8446

                     49                     50                     51
                      A                      A                      A
 Frequencies --   3193.1047              3204.6082              3756.6841
 Red. masses --      1.1025                 1.1062                 1.0653
 Frc consts  --      6.6232                 6.6933                 8.8577
 IR Inten    --      1.6979                17.5253                66.6232

 - Thermochemistry -
 -------------------
 Temperature   298.150 Kelvin.  Pressure   1.00000 Atm.
 Atom     1 has atomic number  8 and mass  15.99491

 Molecular mass:   126.06808 amu.
 Principal axes and moments of inertia in atomic units:
                           1         2         3
     Eigenvalues --   713.116201118.094321593.70304
           X            0.99999   0.00360  -0.00092
           Y           -0.00357   0.99950   0.03144
           Z            0.00103  -0.03144   0.99951
 This molecule is an asymmetric top.
 Rotational symmetry number  1.
 Warning -- assumption of classical behavior for rotation
           may cause significant error
 Rotational temperatures (Kelvin)      0.12146     0.07747     0.05435
 Rotational constants (GHZ):           2.53078     1.61412     1.13242
 Zero-point vibrational energy     418818.2 (Joules/Mol)
                                  100.09995 (Kcal/Mol)
 Warning -- explicit consideration of  11 degrees of freedom as
           vibrations may cause significant error
 Vibrational temperatures:    156.62   222.94   293.16   335.07   424.04
          (Kelvin)            507.87   534.05   673.78   822.96   834.22
                              845.72  1094.16  1132.53  1194.79  1236.05
                             1299.83  1343.21  1357.14  1386.19  1447.72
                             1470.21  1510.77  1529.63  1553.91  1570.60
                             1613.07  1618.53  1661.34  1687.65  1730.25
                             1748.26  1786.65  1845.99  1888.35  1942.94
                             2013.40  2072.17  2082.11  2144.91  2165.58
                             2199.66  4288.04  4380.24  4413.14  4444.95
                             4473.47  4575.15  4581.47  4594.16  4610.71
                             5405.02

 Zero-point correction=                           0.159519 (Hartree/Particle)
 Thermal correction to Energy=                    0.167530
 Thermal correction to Enthalpy=                  0.168474
 Thermal correction to Gibbs Free Energy=         0.127135
 Sum of electronic and zero-point Energies=           -422.966815
 Sum of electronic and thermal Energies=              -422.958805
 Sum of electronic and thermal Enthalpies=            -422.957861
 Sum of electronic and thermal Free Energies=         -422.999200

                     E (Thermal)             CV                S
                      KCal/Mol        Cal/Mol-Kelvin    Cal/Mol-Kelvin
 Total                  105.127             31.558             87.005
 Electronic               0.000              0.000              0.000
 Translational            0.889              2.981             40.409
 Rotational               0.889              2.981             28.632
 Vibrational            103.349             25.596             17.965
 Vibration     1          0.606              1.942              3.289
 Vibration     2          0.620              1.897              2.611
 Vibration     3          0.639              1.835              2.099
 Vibration     4          0.654              1.791              1.857
 Vibration     5          0.689              1.684              1.447
 Vibration     6          0.729              1.569              1.153
 Vibration     7          0.743              1.531              1.075
 Vibration     8          0.825              1.320              0.742
 Vibration     9          0.928              1.092              0.500
 Vibration    10          0.936              1.075              0.486
 Vibration    11          0.945              1.058              0.471

 Optimization completed.
    -- Stationary point found.
 Normal termination of Gaussian 09 at Tue Jan 28 14:52:13 2020.
