 Gaussian 09, Revision D.01,
 Gaussian 09:  ES64L-G09RevD.01 24-Apr-2013

 -----------------------------
 # b3lyp 6-31G(2df,p) opt Freq
 -----------------------------

 -----
 titel
 -----
 Symbolic Z-matrix:
 Charge =  0 Multiplicity = 1

 SCF Done:  E(RB3LYP) =  -423.158212238     A.U. after   14 cycles
 Optimization completed.
    -- Stationary point found.
 Normal termination of Gaussian 09 at Tue Jan 28 02:55:39 2020.

 ----------------------------------------------------------------------
 #N Geom=AllCheck Guess=TCheck SCRF=Check GenChk RB3LYP/6-31G(2df,p) Fr
 eq
 ----------------------------------------------------------------------

 Structure from the checkpoint file:  "/scratch/puck/g09_29deb526-db73-4dc5-b9be-dfb0570ee73f/Gau-195862.chk"
 -----
 titel
 -----
 Charge =  0 Multiplicity = 1

                         Standard orientation:
 ---------------------------------------------------------------------
 Center     Atomic      Atomic             Coordinates (Angstroms)
 Number     Number       Type             X           Y           Z
 ---------------------------------------------------------------------
      1          6           0        2.822668    0.082961   -0.007928
      2          6           0        1.333787   -0.007777    0.028576
      3          8           0        0.708029   -1.008346   -0.791142
      4          6           0       -0.422426   -1.042263    0.135980
      5          6           0        0.316154   -0.120993    1.127809
      6          6           0        0.358956    1.131691    0.254580
      7          6           0       -0.855397    1.182555   -0.672205
      8          6           0       -1.544900   -0.198638   -0.474917
      9          8           0       -2.675789   -0.146860    0.380410
     10          1           0        3.177663    0.832625    0.705213
     11          1           0        3.278504   -0.880500    0.240334
     12          1           0        3.164365    0.375251   -1.007127
     13          1           0       -0.691039   -2.058336    0.426949
     14          1           0        0.405270   -0.187012    2.203396
     15          1           0        0.766986    2.042142    0.679873
     16          1           0       -1.550245    1.980225   -0.393263
     17          1           0       -0.565862    1.339720   -1.714939
     18          1           0       -1.901169   -0.624541   -1.416199
     19          1           0       -2.395440    0.256861    1.210251
 ---------------------------------------------------------------------

 SCF Done:  E(RB3LYP) =  -423.158212238     A.U. after    1 cycles

 The electronic state is 1-A.
 Alpha  occ. eigenvalues --  -19.13649 -19.13408 -10.24438 -10.23304 -10.22844
 Alpha  occ. eigenvalues --  -10.19430 -10.19114 -10.18583 -10.18145  -1.05409
 Alpha  occ. eigenvalues --   -1.01712  -0.84528  -0.76914  -0.72059  -0.69194
 Alpha  occ. eigenvalues --   -0.59975  -0.57039  -0.53918  -0.50799  -0.48880
 Alpha  occ. eigenvalues --   -0.48012  -0.44486  -0.42398  -0.40820  -0.40042
 Alpha  occ. eigenvalues --   -0.38267  -0.37729  -0.37143  -0.34074  -0.33507
 Alpha  occ. eigenvalues --   -0.30782  -0.27279  -0.26056  -0.22849
 Alpha virt. eigenvalues --    0.06632   0.09133   0.11088   0.11414   0.12902
 Alpha virt. eigenvalues --    0.13194   0.14308   0.15225   0.15565   0.17111
 Alpha virt. eigenvalues --    0.17322   0.18934   0.19405   0.19667   0.21753

 Mulliken charges:
               1
     1  C   -0.500928
     2  C    0.483632
     3  O   -0.340418
     4  C    0.055937
     5  C   -0.242343
     6  C   -0.131064
     7  C   -0.270357
     8  C    0.136303
     9  O   -0.438443
    10  H    0.123879
    11  H    0.130883
    12  H    0.133254
    13  H    0.083484
    14  H    0.096035
    15  H    0.087229
    16  H    0.102855
    17  H    0.112438
    18  H    0.095038
    19  H    0.282588
 Sum of Mulliken charges =   0.00000

 Dipole moment (field-independent basis, Debye):
    X=              1.2878    Y=              1.3559    Z=              1.6441  Tot=              2.4900
 Quadrupole moment (field-independent basis, Debye-Ang):
   XX=            -56.8710   YY=            -52.5731   ZZ=            -50.9623
   XY=              0.5030   XZ=              0.4490   YZ=             -0.5536

  Exact polarizability:  84.908   1.101  69.961   0.202  -0.764  67.081
 Approx polarizability: 111.875   1.761 106.401  -3.830   1.500 106.729

                      1                      2                      3
                      A                      A                      A
 Frequencies --    116.2193               191.7526               201.5869
 Red. masses --      3.7594                 1.5135                 1.5444
 Frc consts  --      0.0299                 0.0328                 0.0370
 IR Inten    --      1.4704                 0.2150                 0.7173

                      4                      5                      6
                      A                      A                      A
 Frequencies --    280.9355               303.3702               339.2229
 Red. masses --      2.6236                 2.0556                 1.4056
 Frc consts  --      0.1220                 0.1115                 0.0953
 IR Inten    --      0.8808                 7.9400                75.1238

                      7                      8                      9
                      A                      A                      A
 Frequencies --    413.6334               440.3193               534.9040
 Red. masses --      3.1155                 4.3322                 2.9251
 Frc consts  --      0.3141                 0.4949                 0.4931
 IR Inten    --      7.6250                 0.6061                 5.8632

                     10                     11                     12
                      A                      A                      A
 Frequencies --    628.9497               723.5486               748.7031
 Red. masses --      3.8738                 3.5488                 3.9175
 Frc consts  --      0.9029                 1.0946                 1.2938
 IR Inten    --      3.1566                 4.6225                 2.1013

                     13                     14                     15
                      A                      A                      A
 Frequencies --    768.7385               825.6620               844.4035
 Red. masses --      3.5261                 2.6611                 2.6020
 Frc consts  --      1.2277                 1.0689                 1.0931
 IR Inten    --     19.8492                 5.0178                 3.8955

                     16                     17                     18
                      A                      A                      A
 Frequencies --    884.9840               893.5877               921.1633
 Red. masses --      1.6620                 2.0705                 2.1378
 Frc consts  --      0.7669                 0.9741                 1.0688
 IR Inten    --      2.8445                20.9867                12.0722

                     19                     20                     21
                      A                      A                      A
 Frequencies --    956.9452               973.5326               991.4066
 Red. masses --      1.9884                 1.8626                 2.9645
 Frc consts  --      1.0728                 1.0401                 1.7167
 IR Inten    --      5.4936                10.9807                28.7216

                     22                     23                     24
                      A                      A                      A
 Frequencies --   1018.4027              1044.5561              1061.0014
 Red. masses --      1.9227                 2.1413                 1.6553
 Frc consts  --      1.1749                 1.3766                 1.0979
 IR Inten    --      6.7632                10.7628                 3.9381

                     25                     26                     27
                      A                      A                      A
 Frequencies --   1084.6208              1110.8689              1172.4407
 Red. masses --      2.9846                 1.7393                 1.5822
 Frc consts  --      2.0687                 1.2646                 1.2814
 IR Inten    --    129.5467                 8.8897                18.5789

                     28                     29                     30
                      A                      A                      A
 Frequencies --   1186.8743              1206.4865              1225.7656
 Red. masses --      1.4300                 1.8441                 1.9016
 Frc consts  --      1.1868                 1.5816                 1.6834
 IR Inten    --     18.2488                 4.5819                 0.6253

                     31                     32                     33
                      A                      A                      A
 Frequencies --   1264.8326              1273.8977              1308.0389
 Red. masses --      1.6139                 1.5371                 1.6044
 Frc consts  --      1.5212                 1.4697                 1.6174
 IR Inten    --      1.1413                 9.9238                 3.7857

                     34                     35                     36
                      A                      A                      A
 Frequencies --   1309.6761              1327.5969              1404.4431
 Red. masses --      1.5888                 1.5719                 1.2719
 Frc consts  --      1.6056                 1.6323                 1.4781
 IR Inten    --     13.0140                 1.1789                 3.5024

                     37                     38                     39
                      A                      A                      A
 Frequencies --   1419.4695              1463.1411              1473.8564
 Red. masses --      1.2662                 3.2200                 1.0846
 Frc consts  --      1.5032                 4.0614                 1.3882
 IR Inten    --     58.6623                21.2238                 2.9510

                     40                     41                     42
                      A                      A                      A
 Frequencies --   1483.7264              1500.6752              3034.1811
 Red. masses --      1.0888                 1.1379                 1.0354
 Frc consts  --      1.4122                 1.5099                 5.6164
 IR Inten    --      2.7642                 4.7727                24.9536

                     43                     44                     45
                      A                      A                      A
 Frequencies --   3056.4335              3088.1035              3099.6562
 Red. masses --      1.0595                 1.0888                 1.1005
 Frc consts  --      5.8316                 6.1174                 6.2299
 IR Inten    --     26.4216                16.5341                15.0964

                     46                     47                     48
                      A                      A                      A
 Frequencies --   3102.9161              3114.0594              3116.1688
 Red. masses --      1.1032                 1.0909                 1.1010
 Frc consts  --      6.2580                 6.2331                 6.2993
 IR Inten    --     23.1224                35.2702                17.2641

                     49                     50                     51
                      A                      A                      A
 Frequencies --   3175.2693              3203.8289              3788.4323
 Red. masses --      1.0897                 1.0963                 1.0657
 Frc consts  --      6.4729                 6.6301                 9.0115
 IR Inten    --     11.5676                 9.5876                 9.8449

 - Thermochemistry -
 -------------------
 Temperature   298.150 Kelvin.  Pressure   1.00000 Atm.
 Atom     1 has atomic number  6 and mass  12.00000

 Molecular mass:   126.06808 amu.
 Principal axes and moments of inertia in atomic units:
                           1         2         3
     Eigenvalues --   461.540681344.752231446.77882
           X            0.99996   0.00334   0.00830
           Y           -0.00283   0.99813  -0.06101
           Z           -0.00849   0.06098   0.99810
 This molecule is an asymmetric top.
 Rotational symmetry number  1.
 Warning -- assumption of classical behavior for rotation
           may cause significant error
 Rotational temperatures (Kelvin)      0.18766     0.06441     0.05987
 Rotational constants (GHZ):           3.91025     1.34206     1.24742
 Zero-point vibrational energy     419309.0 (Joules/Mol)
                                  100.21725 (Kcal/Mol)
 Warning -- explicit consideration of   9 degrees of freedom as
           vibrations may cause significant error
 Vibrational temperatures:    167.21   275.89   290.04   404.20   436.48
          (Kelvin)            488.07   595.13   633.52   769.61   904.92
                             1041.02  1077.22  1106.04  1187.94  1214.91
                             1273.29  1285.67  1325.35  1376.83  1400.69
                             1426.41  1465.25  1502.88  1526.54  1560.53
                             1598.29  1686.88  1707.65  1735.86  1763.60
                             1819.81  1832.85  1881.97  1884.33  1910.11
                             2020.68  2042.30  2105.13  2120.55  2134.75
                             2159.13  4365.50  4397.52  4443.09  4459.71
                             4464.40  4480.43  4483.47  4568.50  4609.59
                             5450.70

 Zero-point correction=                           0.159706 (Hartree/Particle)
 Thermal correction to Energy=                    0.167535
 Thermal correction to Enthalpy=                  0.168479
 Thermal correction to Gibbs Free Energy=         0.127778
 Sum of electronic and zero-point Energies=           -422.998506
 Sum of electronic and thermal Energies=              -422.990677
 Sum of electronic and thermal Enthalpies=            -422.989733
 Sum of electronic and thermal Free Energies=         -423.030434

                     E (Thermal)             CV                S
                      KCal/Mol        Cal/Mol-Kelvin    Cal/Mol-Kelvin
 Total                  105.130             31.336             85.664
 Electronic               0.000              0.000              0.000
 Translational            0.889              2.981             40.409
 Rotational               0.889              2.981             28.287
 Vibrational            103.352             25.374             16.968
 Vibration     1          0.608              1.936              3.162
 Vibration     2          0.634              1.851              2.211
 Vibration     3          0.638              1.838              2.119
 Vibration     4          0.681              1.709              1.528
 Vibration     5          0.695              1.667              1.398
 Vibration     6          0.719              1.597              1.216
 Vibration     7          0.777              1.441              0.914
 Vibration     8          0.800              1.382              0.826
 Vibration     9          0.890              1.173              0.576

 Normal termination of Gaussian 09 at Tue Jan 28 03:40:21 2020.
