 Gaussian 09, Revision D.01,
 Gaussian 09:  ES64L-G09RevD.01 24-Apr-2013

 -----------------------------
 # b3lyp 6-31G(2df,p) opt Freq
 -----------------------------

 -----
 titel
 -----
 Symbolic Z-matrix:
 Charge =  0 Multiplicity = 1

 SCF Done:  E(RB3LYP) =  -423.200944315     A.U. after   14 cycles
 Optimization completed.
    -- Stationary point found.
 Normal termination of Gaussian 09 at Tue Jan 28 13:28:50 2020.

 ----------------------------------------------------------------------
 #N Geom=AllCheck Guess=TCheck SCRF=Check GenChk RB3LYP/6-31G(2df,p) Fr
 eq
 ----------------------------------------------------------------------

 Structure from the checkpoint file:  "/scratch/puck/g09_19f505dc-ed73-41bb-9cab-210e234716bd/Gau-31941.chk"
 -----
 titel
 -----
 Charge =  0 Multiplicity = 1

                         Standard orientation:
 ---------------------------------------------------------------------
 Center     Atomic      Atomic             Coordinates (Angstroms)
 Number     Number       Type             X           Y           Z
 ---------------------------------------------------------------------
      1          6           0        2.553654    1.430048    0.627562
      2          6           0        2.459478    0.144066   -0.200327
      3          6           0        1.226303   -0.674589    0.112282
      4          6           0        0.615098   -1.590289   -0.883455
      5          6           0       -0.110619   -0.291922   -0.538637
      6          6           0       -1.319970   -0.383509    0.294251
      7          8           0       -1.532301   -1.236804    1.133801
      8          6           0       -2.392791    0.696382    0.093075
      9          8           0       -2.302080    1.598374   -0.697593
     10          1           0        2.572411    1.208086    1.699999
     11          1           0        3.462890    1.988929    0.387002
     12          1           0        1.695877    2.083488    0.438391
     13          1           0        2.470435    0.386930   -1.270295
     14          1           0        3.346416   -0.477364   -0.020059
     15          1           0        1.118164   -0.982233    1.149881
     16          1           0        1.048843   -1.646431   -1.876210
     17          1           0        0.145254   -2.498581   -0.522840
     18          1           0       -0.104670    0.510252   -1.266206
     19          1           0       -3.267497    0.553248    0.762166
 ---------------------------------------------------------------------

 SCF Done:  E(RB3LYP) =  -423.200944315     A.U. after    1 cycles

 The electronic state is 1-A.
 Alpha  occ. eigenvalues --  -19.16856 -19.14840 -10.28551 -10.27910 -10.21104
 Alpha  occ. eigenvalues --  -10.20556 -10.20387 -10.19518 -10.18087  -1.07401
 Alpha  occ. eigenvalues --   -1.05236  -0.88013  -0.76938  -0.70934  -0.64851
 Alpha  occ. eigenvalues --   -0.62858  -0.58257  -0.54533  -0.50641  -0.48034
 Alpha  occ. eigenvalues --   -0.46678  -0.45173  -0.44202  -0.43623  -0.40889
 Alpha  occ. eigenvalues --   -0.40189  -0.38697  -0.37578  -0.35747  -0.34607
 Alpha  occ. eigenvalues --   -0.31385  -0.30870  -0.29311  -0.24737
 Alpha virt. eigenvalues --   -0.09020   0.03177   0.09107   0.09606   0.11543
 Alpha virt. eigenvalues --    0.13121   0.13879   0.15337   0.15554   0.16853
 Alpha virt. eigenvalues --    0.17332   0.18095   0.19337   0.21102   0.22058

 Mulliken charges:
               1
     1  C   -0.375716
     2  C   -0.204658
     3  C    0.028598
     4  C   -0.301116
     5  C   -0.137573
     6  C    0.280349
     7  O   -0.316014
     8  C    0.091854
     9  O   -0.222397
    10  H    0.119352
    11  H    0.116686
    12  H    0.123757
    13  H    0.099454
    14  H    0.106976
    15  H    0.109615
    16  H    0.122001
    17  H    0.137629
    18  H    0.115040
    19  H    0.106162
 Sum of Mulliken charges =   0.00000

 Dipole moment (field-independent basis, Debye):
    X=              1.7860    Y=             -0.2124    Z=             -0.5287  Tot=              1.8747
 Quadrupole moment (field-independent basis, Debye-Ang):
   XX=            -52.2376   YY=            -57.7004   ZZ=            -54.3528
   XY=              0.7225   XZ=             -0.7495   YZ=              4.4890

  Exact polarizability:  92.643  -2.124  75.677  -5.817  -2.959  68.176
 Approx polarizability: 118.470  -2.596 117.027  -9.724 -17.338 112.567

                      1                      2                      3
                      A                      A                      A
 Frequencies --     37.1980                98.0720               110.5437
 Red. masses --      4.9131                 3.4336                 2.2410
 Frc consts  --      0.0040                 0.0195                 0.0161
 IR Inten    --      0.0203                 0.0235                 0.1406

                      4                      5                      6
                      A                      A                      A
 Frequencies --    135.4751               164.2899               217.9778
 Red. masses --      3.3001                 3.6474                 1.5408
 Frc consts  --      0.0357                 0.0580                 0.0431
 IR Inten    --     18.7750                 1.3052                 3.2508

                      7                      8                      9
                      A                      A                      A
 Frequencies --    258.8945               285.5429               372.2918
 Red. masses --      2.4866                 3.3117                 2.2188
 Frc consts  --      0.0982                 0.1591                 0.1812
 IR Inten    --      8.8804                 6.7645                 0.9025

                     10                     11                     12
                      A                      A                      A
 Frequencies --    439.9808               513.9464               602.5781
 Red. masses --      2.7770                 6.5366                 3.2447
 Frc consts  --      0.3167                 1.0173                 0.6941
 IR Inten    --      0.2684                10.2074                 6.0199

                     13                     14                     15
                      A                      A                      A
 Frequencies --    641.2356               746.1042               792.4251
 Red. masses --      5.2761                 1.9173                 2.1382
 Frc consts  --      1.2782                 0.6288                 0.7911
 IR Inten    --     47.7960                 1.2094                 1.4033

                     16                     17                     18
                      A                      A                      A
 Frequencies --    810.7579               855.9430               928.0026
 Red. masses --      1.3581                 2.7147                 1.3845
 Frc consts  --      0.5260                 1.1718                 0.7025
 IR Inten    --      1.6400                36.7663                11.7813

                     19                     20                     21
                      A                      A                      A
 Frequencies --    946.4888               994.3466              1033.9285
 Red. masses --      4.0014                 1.2894                 2.0554
 Frc consts  --      2.1120                 0.7511                 1.2946
 IR Inten    --     51.9804                 2.9983                 1.1212

                     22                     23                     24
                      A                      A                      A
 Frequencies --   1037.8364              1079.4587              1104.3700
 Red. masses --      2.2903                 1.2904                 1.7368
 Frc consts  --      1.4534                 0.8859                 1.2480
 IR Inten    --      1.5908                 9.3486                 4.9156

                     25                     26                     27
                      A                      A                      A
 Frequencies --   1120.8246              1143.8597              1172.0636
 Red. masses --      1.1691                 1.4061                 2.3375
 Frc consts  --      0.8653                 1.0839                 1.8919
 IR Inten    --      7.3636                 1.9480                14.1208

                     28                     29                     30
                      A                      A                      A
 Frequencies --   1205.4144              1224.2677              1294.3291
 Red. masses --      1.8018                 1.8086                 1.2644
 Frc consts  --      1.5425                 1.5971                 1.2480
 IR Inten    --      4.1043                 1.2424                 5.8235

                     31                     32                     33
                      A                      A                      A
 Frequencies --   1336.6033              1362.3183              1378.7318
 Red. masses --      1.3283                 1.2595                 1.5727
 Frc consts  --      1.3981                 1.3773                 1.7614
 IR Inten    --      9.8629                 0.8899                51.8922

                     34                     35                     36
                      A                      A                      A
 Frequencies --   1412.2083              1440.1253              1480.3164
 Red. masses --      1.2432                 1.6136                 1.3906
 Frc consts  --      1.4608                 1.9717                 1.7954
 IR Inten    --      3.2832                33.5209                19.4617

                     37                     38                     39
                      A                      A                      A
 Frequencies --   1483.9351              1498.7277              1506.9895
 Red. masses --      1.1671                 1.0405                 1.0774
 Frc consts  --      1.5143                 1.3771                 1.4416
 IR Inten    --      9.8358                 5.9994                 4.0680

                     40                     41                     42
                      A                      A                      A
 Frequencies --   1774.0443              1823.3607              2924.7349
 Red. masses --     10.9180                10.9084                 1.0877
 Frc consts  --     20.2453                21.3676                 5.4821
 IR Inten    --    115.3793                89.9482               108.9505

                     43                     44                     45
                      A                      A                      A
 Frequencies --   3019.3790              3035.2354              3051.8475
 Red. masses --      1.0599                 1.0353                 1.1011
 Frc consts  --      5.6934                 5.6194                 6.0423
 IR Inten    --     25.2897                22.4112                12.6257

                     46                     47                     48
                      A                      A                      A
 Frequencies --   3103.5423              3109.7794              3134.1976
 Red. masses --      1.1018                 1.1017                 1.0537
 Frc consts  --      6.2528                 6.2770                 6.0986
 IR Inten    --     30.2749                32.7269                 9.8799

                     49                     50                     51
                      A                      A                      A
 Frequencies --   3143.2136              3197.6816              3229.0447
 Red. masses --      1.0875                 1.0891                 1.1169
 Frc consts  --      6.3303                 6.5611                 6.8616
 IR Inten    --      8.4962                 1.0050                 2.6974

 - Thermochemistry -
 -------------------
 Temperature   298.150 Kelvin.  Pressure   1.00000 Atm.
 Atom     1 has atomic number  6 and mass  12.00000

 Molecular mass:   126.06808 amu.
 Principal axes and moments of inertia in atomic units:
                           1         2         3
     Eigenvalues --   767.848831772.300022114.99717
           X            0.99961   0.02794   0.00158
           Y           -0.02798   0.99749   0.06504
           Z            0.00024  -0.06505   0.99788
 This molecule is an asymmetric top.
 Rotational symmetry number  1.
 Warning -- assumption of classical behavior for rotation
           may cause significant error
 Rotational temperatures (Kelvin)      0.11280     0.04887     0.04095
 Rotational constants (GHZ):           2.35039     1.01830     0.85331
 Zero-point vibrational energy     411601.9 (Joules/Mol)
                                   98.37521 (Kcal/Mol)
 Warning -- explicit consideration of  12 degrees of freedom as
           vibrations may cause significant error
 Vibrational temperatures:     53.52   141.10   159.05   194.92   236.38
          (Kelvin)            313.62   372.49   410.83   535.64   633.03
                              739.45   866.97   922.59  1073.48  1140.12
                             1166.50  1231.51  1335.19  1361.78  1430.64
                             1487.59  1493.21  1553.10  1588.94  1612.61
                             1645.76  1686.34  1734.32  1761.45  1862.25
                             1923.07  1960.07  1983.69  2031.85  2072.02
                             2129.84  2135.05  2156.33  2168.22  2552.45
                             2623.41  4208.04  4344.21  4367.02  4390.92
                             4465.30  4474.27  4509.41  4522.38  4600.74
                             4645.87

 Zero-point correction=                           0.156771 (Hartree/Particle)
 Thermal correction to Energy=                    0.166504
 Thermal correction to Enthalpy=                  0.167448
 Thermal correction to Gibbs Free Energy=         0.121006
 Sum of electronic and zero-point Energies=           -423.044173
 Sum of electronic and thermal Energies=              -423.034441
 Sum of electronic and thermal Enthalpies=            -423.033496
 Sum of electronic and thermal Free Energies=         -423.079938

                     E (Thermal)             CV                S
                      KCal/Mol        Cal/Mol-Kelvin    Cal/Mol-Kelvin
 Total                  104.483             34.338             97.745
 Electronic               0.000              0.000              0.000
 Translational            0.889              2.981             40.409
 Rotational               0.889              2.981             29.444
 Vibrational            102.705             28.377             27.892
 Vibration     1          0.594              1.982              5.403
 Vibration     2          0.604              1.951              3.492
 Vibration     3          0.606              1.941              3.259
 Vibration     4          0.613              1.918              2.867
 Vibration     5          0.623              1.886              2.500
 Vibration     6          0.646              1.814              1.976
 Vibration     7          0.668              1.748              1.669
 Vibration     8          0.683              1.701              1.500
 Vibration     9          0.744              1.529              1.070
 Vibration    10          0.800              1.383              0.827
 Vibration    11          0.869              1.219              0.624
 Vibration    12          0.961              1.026              0.445

 Normal termination of Gaussian 09 at Tue Jan 28 14:06:01 2020.
