 Gaussian 09, Revision D.01,
 Gaussian 09:  ES64L-G09RevD.01 24-Apr-2013

 -----------------------------
 # b3lyp 6-31G(2df,p) opt Freq
 -----------------------------

 -----
 titel
 -----
 Symbolic Z-matrix:
 Charge =  0 Multiplicity = 1

 SCF Done:  E(RB3LYP) =  -423.175909851     A.U. after   13 cycles
 Optimization completed.
    -- Stationary point found.
 Normal termination of Gaussian 09 at Tue Jan 28 03:18:45 2020.

 ----------------------------------------------------------------------
 #N Geom=AllCheck Guess=TCheck SCRF=Check GenChk RB3LYP/6-31G(2df,p) Fr
 eq
 ----------------------------------------------------------------------

 Structure from the checkpoint file:  "/scratch/puck/g09_c4c175a0-ca53-46c7-8288-f130c853441b/Gau-66901.chk"
 -----
 titel
 -----
 Charge =  0 Multiplicity = 1

                         Standard orientation:
 ---------------------------------------------------------------------
 Center     Atomic      Atomic             Coordinates (Angstroms)
 Number     Number       Type             X           Y           Z
 ---------------------------------------------------------------------
      1          8           0       -2.210965    0.419028    0.042920
      2          6           0       -1.224088   -0.575279    0.166292
      3          6           0       -0.433305   -0.907684   -1.149758
      4          6           0        1.045187   -0.750191   -0.731384
      5          6           0        0.995787   -1.283401    0.729180
      6          6           0       -0.080189   -0.259925    1.178292
      7          6           0        0.620859    1.054220    0.781325
      8          8           0        0.214264    1.629086   -0.479863
      9          6           0        1.346359    0.739510   -0.457890
     10          1           0       -1.763366    1.184089   -0.340713
     11          1           0       -1.756835   -1.463878    0.518303
     12          1           0       -0.622756   -1.932196   -1.482552
     13          1           0       -0.728909   -0.231671   -1.954048
     14          1           0        1.765788   -1.223973   -1.399236
     15          1           0        0.674020   -2.327620    0.805485
     16          1           0        1.944796   -1.166998    1.261578
     17          1           0       -0.395994   -0.293137    2.221159
     18          1           0        0.947134    1.773333    1.526124
     19          1           0        2.286070    1.193645   -0.756892
 ---------------------------------------------------------------------

 SCF Done:  E(RB3LYP) =  -423.175909851     A.U. after    1 cycles

 The electronic state is 1-A.
 Alpha  occ. eigenvalues --  -19.16177 -19.11730 -10.23985 -10.23918 -10.22643
 Alpha  occ. eigenvalues --  -10.19695 -10.19055 -10.18979 -10.17749  -1.07891
 Alpha  occ. eigenvalues --   -1.00384  -0.85436  -0.73155  -0.71099  -0.66231
 Alpha  occ. eigenvalues --   -0.61473  -0.57810  -0.54831  -0.53698  -0.48971
 Alpha  occ. eigenvalues --   -0.47233  -0.43814  -0.42863  -0.40964  -0.38614
 Alpha  occ. eigenvalues --   -0.38394  -0.36715  -0.35638  -0.34400  -0.32875
 Alpha  occ. eigenvalues --   -0.30753  -0.29032  -0.26953  -0.24768
 Alpha virt. eigenvalues --    0.08078   0.08196   0.08655   0.12087   0.12392
 Alpha virt. eigenvalues --    0.14023   0.15553   0.16093   0.16880   0.17362
 Alpha virt. eigenvalues --    0.17789   0.18619   0.19679   0.20362   0.23304

 Mulliken charges:
               1
     1  O   -0.452058
     2  C    0.173596
     3  C   -0.251789
     4  C   -0.061842
     5  C   -0.224434
     6  C   -0.100172
     7  C    0.038009
     8  O   -0.269287
     9  C    0.038053
    10  H    0.292106
    11  H    0.082682
    12  H    0.094950
    13  H    0.109927
    14  H    0.064660
    15  H    0.097719
    16  H    0.097718
    17  H    0.066377
    18  H    0.103009
    19  H    0.100776
 Sum of Mulliken charges =   0.00000

 Dipole moment (field-independent basis, Debye):
    X=              2.6977    Y=             -1.0076    Z=              0.4717  Tot=              2.9181
 Quadrupole moment (field-independent basis, Debye-Ang):
   XX=            -56.8661   YY=            -52.5770   ZZ=            -51.4727
   XY=              1.4516   XZ=              0.3382   YZ=              1.0869

  Exact polarizability:  73.066   0.870  72.875  -1.525   1.176  70.295
 Approx polarizability: 107.270  -2.704 109.922  -3.318  -1.303 107.716

                      1                      2                      3
                      A                      A                      A
 Frequencies --    204.1793               273.4333               356.4418
 Red. masses --      4.0870                 5.3771                 4.0805
 Frc consts  --      0.1004                 0.2369                 0.3054
 IR Inten    --      4.0146                 0.5429                 6.5829

                      4                      5                      6
                      A                      A                      A
 Frequencies --    421.0735               432.9681               464.2027
 Red. masses --      2.7857                 1.9843                 3.0075
 Frc consts  --      0.2910                 0.2192                 0.3818
 IR Inten    --      0.0701                 0.1275                 4.0531

                      7                      8                      9
                      A                      A                      A
 Frequencies --    562.6487               590.4217               631.3885
 Red. masses --      1.1539                 4.4207                 4.4411
 Frc consts  --      0.2152                 0.9079                 1.0431
 IR Inten    --     81.4645                12.6301                 2.9681

                     10                     11                     12
                      A                      A                      A
 Frequencies --    743.5090               748.2318               793.1757
 Red. masses --      3.9795                 3.8325                 3.0347
 Frc consts  --      1.2961                 1.2642                 1.1249
 IR Inten    --      2.9748                 1.0004                 3.1675

                     13                     14                     15
                      A                      A                      A
 Frequencies --    845.2530               860.7502               868.9128
 Red. masses --      3.0998                 2.4128                 2.3091
 Frc consts  --      1.3048                 1.0532                 1.0272
 IR Inten    --      8.4419                18.6139                 4.4600

                     16                     17                     18
                      A                      A                      A
 Frequencies --    907.1498               926.8189               945.5541
 Red. masses --      3.3430                 2.8531                 1.9324
 Frc consts  --      1.6209                 1.4440                 1.0180
 IR Inten    --     13.6315                 2.7467                 0.5765

                     19                     20                     21
                      A                      A                      A
 Frequencies --    957.6855               969.4744              1006.5206
 Red. masses --      1.9164                 2.1266                 2.0871
 Frc consts  --      1.0356                 1.1776                 1.2458
 IR Inten    --      5.6660                 0.7399                 3.0645

                     22                     23                     24
                      A                      A                      A
 Frequencies --   1026.4903              1076.2531              1089.7472
 Red. masses --      1.9599                 1.4546                 1.6189
 Frc consts  --      1.2167                 0.9927                 1.1327
 IR Inten    --      8.9873                15.9072                33.1841

                     25                     26                     27
                      A                      A                      A
 Frequencies --   1104.5969              1150.7791              1160.2717
 Red. masses --      1.3160                 1.4835                 1.3026
 Frc consts  --      0.9460                 1.1575                 1.0332
 IR Inten    --      7.5713                55.6745                41.0718

                     28                     29                     30
                      A                      A                      A
 Frequencies --   1182.2806              1208.0490              1246.5287
 Red. masses --      1.7367                 1.5938                 1.6832
 Frc consts  --      1.4303                 1.3704                 1.5410
 IR Inten    --      3.9670                 5.6508                12.4055

                     31                     32                     33
                      A                      A                      A
 Frequencies --   1269.9596              1276.0722              1290.4827
 Red. masses --      1.4283                 1.3164                 1.4614
 Frc consts  --      1.3572                 1.2630                 1.4339
 IR Inten    --      3.5173                 1.0289                 4.8425

                     34                     35                     36
                      A                      A                      A
 Frequencies --   1316.9818              1325.5095              1340.9667
 Red. masses --      1.4242                 1.4861                 1.4631
 Frc consts  --      1.4554                 1.5384                 1.5501
 IR Inten    --      0.6704                 4.3074                 3.2202

                     37                     38                     39
                      A                      A                      A
 Frequencies --   1356.9274              1408.0364              1457.3661
 Red. masses --      1.5231                 2.5712                 1.2089
 Frc consts  --      1.6523                 3.0034                 1.5128
 IR Inten    --      1.5618                11.7201                79.1058

                     40                     41                     42
                      A                      A                      A
 Frequencies --   1482.6346              1505.4404              3044.3914
 Red. masses --      1.0921                 1.1185                 1.0591
 Frc consts  --      1.4144                 1.4936                 5.7836
 IR Inten    --      4.4053                 5.1956                29.4178

                     43                     44                     45
                      A                      A                      A
 Frequencies --   3053.1372              3065.8086              3095.3625
 Red. masses --      1.0783                 1.0714                 1.1068
 Frc consts  --      5.9221                 5.9332                 6.2479
 IR Inten    --     17.7753                38.5703                34.1360

                     46                     47                     48
                      A                      A                      A
 Frequencies --   3105.0714              3114.9721              3119.9910
 Red. masses --      1.0874                 1.0885                 1.1020
 Frc consts  --      6.1772                 6.2229                 6.3202
 IR Inten    --     38.0374                20.0370                20.1560

                     49                     50                     51
                      A                      A                      A
 Frequencies --   3157.4971              3169.0756              3769.5717
 Red. masses --      1.0878                 1.0969                 1.0644
 Frc consts  --      6.3900                 6.4908                 8.9113
 IR Inten    --     20.5241                28.9063                46.4680

 - Thermochemistry -
 -------------------
 Temperature   298.150 Kelvin.  Pressure   1.00000 Atm.
 Atom     1 has atomic number  8 and mass  15.99491

 Molecular mass:   126.06808 amu.
 Principal axes and moments of inertia in atomic units:
                           1         2         3
     Eigenvalues --   729.84123 889.989941064.80977
           X            0.99987   0.00548   0.01496
           Y           -0.00598   0.99942   0.03364
           Z           -0.01477  -0.03372   0.99932
 This molecule is an asymmetric top.
 Rotational symmetry number  1.
 Warning -- assumption of classical behavior for rotation
           may cause significant error
 Rotational temperatures (Kelvin)      0.11867     0.09732     0.08134
 Rotational constants (GHZ):           2.47279     2.02782     1.69490
 Zero-point vibrational energy     427545.6 (Joules/Mol)
                                  102.18586 (Kcal/Mol)
 Warning -- explicit consideration of   8 degrees of freedom as
           vibrations may cause significant error
 Vibrational temperatures:    293.77   393.41   512.84   605.83   622.94
          (Kelvin)            667.88   809.53   849.48   908.43  1069.74
                             1076.54  1141.20  1216.13  1238.43  1250.17
                             1305.18  1333.48  1360.44  1377.89  1394.86
                             1448.16  1476.89  1548.49  1567.90  1589.27
                             1655.71  1669.37  1701.04  1738.11  1793.47
                             1827.19  1835.98  1856.71  1894.84  1907.11
                             1929.35  1952.31  2025.85  2096.82  2133.18
                             2165.99  4380.19  4392.78  4411.01  4453.53
                             4467.50  4481.74  4488.97  4542.93  4559.59
                             5423.57

 Zero-point correction=                           0.162844 (Hartree/Particle)
 Thermal correction to Energy=                    0.169376
 Thermal correction to Enthalpy=                  0.170320
 Thermal correction to Gibbs Free Energy=         0.132424
 Sum of electronic and zero-point Energies=           -423.013066
 Sum of electronic and thermal Energies=              -423.006534
 Sum of electronic and thermal Enthalpies=            -423.005590
 Sum of electronic and thermal Free Energies=         -423.043486

                     E (Thermal)             CV                S
                      KCal/Mol        Cal/Mol-Kelvin    Cal/Mol-Kelvin
 Total                  106.285             28.422             79.760
 Electronic               0.000              0.000              0.000
 Translational            0.889              2.981             40.409
 Rotational               0.889              2.981             28.027
 Vibrational            104.508             22.461             11.324
 Vibration     1          0.640              1.834              2.095
 Vibration     2          0.676              1.722              1.574
 Vibration     3          0.732              1.562              1.138
 Vibration     4          0.784              1.424              0.888
 Vibration     5          0.794              1.398              0.849
 Vibration     6          0.822              1.329              0.754
 Vibration     7          0.918              1.112              0.519
 Vibration     8          0.948              1.052              0.466

 Optimization completed.
    -- Stationary point found.
 Normal termination of Gaussian 09 at Tue Jan 28 04:31:21 2020.
