 Gaussian 09, Revision D.01,
 Gaussian 09:  ES64L-G09RevD.01 24-Apr-2013

 -----------------------------
 # b3lyp 6-31G(2df,p) opt Freq
 -----------------------------

 -----
 titel
 -----
 Symbolic Z-matrix:
 Charge =  0 Multiplicity = 1

 SCF Done:  E(RB3LYP) =  -423.124051086     A.U. after   14 cycles
 Optimization completed.
    -- Stationary point found.
 Normal termination of Gaussian 09 at Mon Jan 27 14:13:21 2020.

 ----------------------------------------------------------------------
 #N Geom=AllCheck Guess=TCheck SCRF=Check GenChk RB3LYP/6-31G(2df,p) Fr
 eq
 ----------------------------------------------------------------------

 Structure from the checkpoint file:  "/scratch/puck/g09_b0ded8ce-4dc2-49c9-aa72-fbdfc2645027/Gau-30873.chk"
 -----
 titel
 -----
 Charge =  0 Multiplicity = 1

                         Standard orientation:
 ---------------------------------------------------------------------
 Center     Atomic      Atomic             Coordinates (Angstroms)
 Number     Number       Type             X           Y           Z
 ---------------------------------------------------------------------
      1          6           0        2.529079    0.957008    0.616516
      2          6           0        1.561579    0.204270   -0.271819
      3          8           0        1.900620   -1.200157   -0.410370
      4          6           0        0.578122   -1.611421   -0.013565
      5          6           0        0.166939   -0.157048    0.290960
      6          6           0       -1.037638    0.421339   -0.453340
      7          8           0       -1.058934    1.844592   -0.365612
      8          6           0       -2.290361   -0.179488    0.014034
      9          6           0       -3.302684   -0.661155    0.448756
     10          1           0        2.583244    0.500407    1.609820
     11          1           0        3.533067    0.950135    0.180897
     12          1           0        2.206391    1.998368    0.722048
     13          1           0        1.503465    0.685453   -1.258954
     14          1           0        0.023890   -2.079356   -0.839075
     15          1           0        0.596143   -2.304527    0.834511
     16          1           0        0.068091    0.053335    1.360277
     17          1           0       -0.919095    0.211384   -1.524130
     18          1           0       -1.353111    2.076000    0.522616
     19          1           0       -4.205795   -1.087706    0.810595
 ---------------------------------------------------------------------

 SCF Done:  E(RB3LYP) =  -423.124051086     A.U. after    1 cycles

 The electronic state is 1-A.
 Alpha  occ. eigenvalues --  -19.15100 -19.12813 -10.26448 -10.23373 -10.23068
 Alpha  occ. eigenvalues --  -10.19741 -10.19146 -10.18758 -10.17645  -1.03739
 Alpha  occ. eigenvalues --   -1.03067  -0.79735  -0.75679  -0.73755  -0.67696
 Alpha  occ. eigenvalues --   -0.63939  -0.56700  -0.54997  -0.51423  -0.49300
 Alpha  occ. eigenvalues --   -0.48923  -0.45512  -0.44054  -0.41553  -0.40252
 Alpha  occ. eigenvalues --   -0.38059  -0.37191  -0.36356  -0.32239  -0.31290
 Alpha  occ. eigenvalues --   -0.29318  -0.28042  -0.26934  -0.24630
 Alpha virt. eigenvalues --    0.02292   0.04159   0.08094   0.09277   0.11048
 Alpha virt. eigenvalues --    0.11420   0.11825   0.12390   0.15315   0.16293
 Alpha virt. eigenvalues --    0.16617   0.17715   0.19080   0.19500   0.22419

 Mulliken charges:
               1
     1  C   -0.410819
     2  C    0.156963
     3  O   -0.296063
     4  C   -0.090325
     5  C   -0.056473
     6  C   -0.077958
     7  O   -0.419394
     8  C    0.287850
     9  C   -0.435287
    10  H    0.116667
    11  H    0.128271
    12  H    0.122234
    13  H    0.078997
    14  H    0.101300
    15  H    0.106464
    16  H    0.076761
    17  H    0.121530
    18  H    0.286067
    19  H    0.203216
 Sum of Mulliken charges =   0.00000

 Dipole moment (field-independent basis, Debye):
    X=             -1.3548    Y=              0.2262    Z=              1.6473  Tot=              2.1449
 Quadrupole moment (field-independent basis, Debye-Ang):
   XX=            -52.9141   YY=            -54.6559   ZZ=            -51.9050
   XY=              5.3662   XZ=             -1.9179   YZ=              1.4605

  Exact polarizability:  95.503  11.411  74.396  -5.373  -1.857  62.412
 Approx polarizability: 128.744  17.637 108.890 -14.756  -6.013  98.134

                      1                      2                      3
                      A                      A                      A
 Frequencies --     52.8711                60.9539               105.8145
 Red. masses --      3.6355                 3.7669                 3.7767
 Frc consts  --      0.0060                 0.0082                 0.0249
 IR Inten    --      3.0861                 0.6100                 0.4453

                      4                      5                      6
                      A                      A                      A
 Frequencies --    184.1139               214.7526               229.5971
 Red. masses --      3.3340                 2.6095                 1.1609
 Frc consts  --      0.0666                 0.0709                 0.0361
 IR Inten    --      0.6481                 2.6802                 2.1199

                      7                      8                      9
                      A                      A                      A
 Frequencies --    270.1492               297.0215               334.1280
 Red. masses --      1.7961                 1.6648                 2.8938
 Frc consts  --      0.0772                 0.0865                 0.1903
 IR Inten    --     36.2846                48.3596                21.8889

                     10                     11                     12
                      A                      A                      A
 Frequencies --    417.4187               468.2230               517.1633
 Red. masses --      4.8841                 3.5639                 3.5819
 Frc consts  --      0.5014                 0.4603                 0.5644
 IR Inten    --     16.2340                 2.1851                 4.3516

                     13                     14                     15
                      A                      A                      A
 Frequencies --    583.1464               635.5715               677.3382
 Red. masses --      5.6636                 1.2346                 1.2489
 Frc consts  --      1.1347                 0.2938                 0.3376
 IR Inten    --      9.0776                42.3380                34.0034

                     16                     17                     18
                      A                      A                      A
 Frequencies --    746.3851               856.5293               881.7789
 Red. masses --      3.0982                 1.8393                 2.7728
 Frc consts  --      1.0169                 0.7950                 1.2702
 IR Inten    --      5.8425                 6.1649                27.6118

                     19                     20                     21
                      A                      A                      A
 Frequencies --    912.8595               945.3879              1018.5885
 Red. masses --      2.6204                 1.8255                 5.5962
 Frc consts  --      1.2866                 0.9613                 3.4209
 IR Inten    --     12.2122                15.1995                73.9260

                     22                     23                     24
                      A                      A                      A
 Frequencies --   1035.4267              1079.8289              1086.7419
 Red. masses --      3.8851                 2.5686                 3.0444
 Frc consts  --      2.4541                 1.7646                 2.1184
 IR Inten    --     18.6821                97.8721                39.9568

                     25                     26                     27
                      A                      A                      A
 Frequencies --   1111.2586              1125.5431              1146.7758
 Red. masses --      2.1905                 2.1617                 1.8504
 Frc consts  --      1.5938                 1.6135                 1.4338
 IR Inten    --      1.1368                 6.2279                 8.0242

                     28                     29                     30
                      A                      A                      A
 Frequencies --   1164.9868              1237.3154              1256.1498
 Red. masses --      1.2232                 1.4405                 1.3301
 Frc consts  --      0.9781                 1.2994                 1.2366
 IR Inten    --      1.6909                 0.9351                14.7363

                     31                     32                     33
                      A                      A                      A
 Frequencies --   1284.3943              1294.6285              1353.6108
 Red. masses --      1.3796                 1.2800                 1.3603
 Frc consts  --      1.3410                 1.2640                 1.4685
 IR Inten    --     11.8653                 7.1784                 1.8310

                     34                     35                     36
                      A                      A                      A
 Frequencies --   1373.0057              1397.2472              1409.1254
 Red. masses --      1.3342                 1.2760                 1.4639
 Frc consts  --      1.4818                 1.4677                 1.7126
 IR Inten    --      6.0809                 5.3984                 8.2570

                     37                     38                     39
                      A                      A                      A
 Frequencies --   1418.9964              1483.7079              1493.5884
 Red. masses --      1.3243                 1.0558                 1.0515
 Frc consts  --      1.5711                 1.3694                 1.3821
 IR Inten    --     67.2930                 2.7225                 2.5802

                     40                     41                     42
                      A                      A                      A
 Frequencies --   1527.8111              2231.1833              2994.0993
 Red. masses --      1.1046                 5.9046                 1.0805
 Frc consts  --      1.5192                17.3185                 5.7067
 IR Inten    --      0.6634                 1.4545                48.4831

                     43                     44                     45
                      A                      A                      A
 Frequencies --   3006.1635              3030.5235              3033.8213
 Red. masses --      1.0656                 1.0808                 1.0359
 Frc consts  --      5.6736                 5.8486                 5.6178
 IR Inten    --     51.6222                11.6518                10.7791

                     46                     47                     48
                      A                      A                      A
 Frequencies --   3054.6051              3070.9482              3109.3584
 Red. masses --      1.0965                 1.0932                 1.1012
 Frc consts  --      6.0281                 6.0744                 6.2727
 IR Inten    --     17.3764                48.1750                19.3877

                     49                     50                     51
                      A                      A                      A
 Frequencies --   3111.4698              3501.2908              3804.9238
 Red. masses --      1.1022                 1.1625                 1.0662
 Frc consts  --      6.2870                 8.3965                 9.0944
 IR Inten    --     26.5160                66.1940                24.9260

 - Thermochemistry -
 -------------------
 Temperature   298.150 Kelvin.  Pressure   1.00000 Atm.
 Atom     1 has atomic number  6 and mass  12.00000

 Molecular mass:   126.06808 amu.
 Principal axes and moments of inertia in atomic units:
                           1         2         3
     Eigenvalues --   629.252131670.854752104.20259
           X            0.99938   0.03479   0.00612
           Y           -0.03486   0.99933   0.01152
           Z           -0.00571  -0.01173   0.99991
 This molecule is an asymmetric top.
 Rotational symmetry number  1.
 Warning -- assumption of classical behavior for rotation
           may cause significant error
 Rotational temperatures (Kelvin)      0.13765     0.05184     0.04116
 Rotational constants (GHZ):           2.86807     1.08013     0.85768
 Zero-point vibrational energy     410548.3 (Joules/Mol)
                                   98.12341 (Kcal/Mol)
 Warning -- explicit consideration of  13 degrees of freedom as
           vibrations may cause significant error
 Vibrational temperatures:     76.07    87.70   152.24   264.90   308.98
          (Kelvin)            330.34   388.68   427.35   480.74   600.57
                              673.67   744.08   839.02   914.44   974.54
                             1073.88  1232.35  1268.68  1313.40  1360.20
                             1465.52  1489.75  1553.63  1563.58  1598.85
                             1619.40  1649.95  1676.15  1780.22  1807.32
                             1847.95  1862.68  1947.54  1975.45  2010.32
                             2027.41  2041.62  2134.72  2148.94  2198.18
                             3210.17  4307.84  4325.19  4360.24  4364.99
                             4394.89  4418.40  4473.67  4476.71  5037.57
                             5474.43

 Zero-point correction=                           0.156370 (Hartree/Particle)
 Thermal correction to Energy=                    0.166279
 Thermal correction to Enthalpy=                  0.167223
 Thermal correction to Gibbs Free Energy=         0.120866
 Sum of electronic and zero-point Energies=           -422.967681
 Sum of electronic and thermal Energies=              -422.957772
 Sum of electronic and thermal Enthalpies=            -422.956828
 Sum of electronic and thermal Free Energies=         -423.003185

                     E (Thermal)             CV                S
                      KCal/Mol        Cal/Mol-Kelvin    Cal/Mol-Kelvin
 Total                  104.342             35.689             97.567
 Electronic               0.000              0.000              0.000
 Translational            0.889              2.981             40.409
 Rotational               0.889              2.981             29.183
 Vibrational            102.564             29.727             27.976
 Vibration     1          0.596              1.976              4.707
 Vibration     2          0.597              1.973              4.426
 Vibration     3          0.605              1.945              3.344
 Vibration     4          0.631              1.861              2.286
 Vibration     5          0.645              1.819              2.003
 Vibration     6          0.652              1.796              1.882
 Vibration     7          0.674              1.728              1.595
 Vibration     8          0.691              1.679              1.434
 Vibration     9          0.716              1.607              1.240
 Vibration    10          0.780              1.432              0.901
 Vibration    11          0.825              1.321              0.743
 Vibration    12          0.872              1.212              0.617
 Vibration    13          0.940              1.068              0.480

 Normal termination of Gaussian 09 at Mon Jan 27 14:50:32 2020.
