 Gaussian 09, Revision D.01,
 Gaussian 09:  ES64L-G09RevD.01 24-Apr-2013

 -----------------------------
 # b3lyp 6-31G(2df,p) opt Freq
 -----------------------------

 -----
 titel
 -----
 Symbolic Z-matrix:
 Charge =  0 Multiplicity = 1

 SCF Done:  E(RB3LYP) =  -423.134288558     A.U. after   14 cycles
 Optimization completed.
    -- Stationary point found.
 Normal termination of Gaussian 09 at Tue Jan 28 08:12:03 2020.

 ----------------------------------------------------------------------
 #N Geom=AllCheck Guess=TCheck SCRF=Check GenChk RB3LYP/6-31G(2df,p) Fr
 eq
 ----------------------------------------------------------------------

 Structure from the checkpoint file:  "/scratch/puck/g09_85244728-033d-4f71-8878-bf470caab9f6/Gau-102140.chk"
 -----
 titel
 -----
 Charge =  0 Multiplicity = 1

                         Standard orientation:
 ---------------------------------------------------------------------
 Center     Atomic      Atomic             Coordinates (Angstroms)
 Number     Number       Type             X           Y           Z
 ---------------------------------------------------------------------
      1          8           0       -4.045644   -0.007844   -0.499102
      2          6           0       -3.151557    0.255994    0.575043
      3          6           0       -1.743463    0.091745    0.217836
      4          6           0       -0.595312   -0.083189   -0.108372
      5          6           0        0.795774   -0.271393   -0.454992
      6          6           0        1.551357   -1.569564   -0.019552
      7          6           0        2.820255   -0.711320    0.218655
      8          6           0        1.901790    0.533749    0.317012
      9          8           0        2.325233    1.778277   -0.155904
     10          1           0       -3.801713   -0.862414   -0.869475
     11          1           0       -3.346805    1.291797    0.875058
     12          1           0       -3.382242   -0.374403    1.449260
     13          1           0        0.945650   -0.112261   -1.531019
     14          1           0        1.141474   -1.964760    0.912447
     15          1           0        1.607701   -2.375056   -0.752832
     16          1           0        3.457926   -0.944845    1.073062
     17          1           0        3.443326   -0.661453   -0.681852
     18          1           0        1.576694    0.697692    1.348070
     19          1           0        2.648226    1.666108   -1.056449
 ---------------------------------------------------------------------

 SCF Done:  E(RB3LYP) =  -423.134288558     A.U. after    1 cycles

 The electronic state is 1-A.
 Alpha  occ. eigenvalues --  -19.14414 -19.13691 -10.24793 -10.24021 -10.21022
 Alpha  occ. eigenvalues --  -10.19420 -10.18869 -10.17589 -10.17123  -1.02903
 Alpha  occ. eigenvalues --   -1.01837  -0.85143  -0.76376  -0.70933  -0.65817
 Alpha  occ. eigenvalues --   -0.65652  -0.58583  -0.53605  -0.51461  -0.50385
 Alpha  occ. eigenvalues --   -0.46549  -0.44016  -0.41839  -0.41281  -0.40913
 Alpha  occ. eigenvalues --   -0.40793  -0.35852  -0.34784  -0.34344  -0.31030
 Alpha  occ. eigenvalues --   -0.28837  -0.27678  -0.25110  -0.24192
 Alpha virt. eigenvalues --    0.02960   0.04909   0.07496   0.09320   0.10300
 Alpha virt. eigenvalues --    0.10761   0.13335   0.13802   0.16254   0.17387
 Alpha virt. eigenvalues --    0.17674   0.18680   0.19984   0.21538   0.22839

 Mulliken charges:
               1
     1  O   -0.402964
     2  C   -0.192952
     3  C    0.111882
     4  C   -0.001294
     5  C   -0.200260
     6  C   -0.231050
     7  C   -0.272373
     8  C    0.166422
     9  O   -0.423372
    10  H    0.285610
    11  H    0.140122
    12  H    0.114493
    13  H    0.092520
    14  H    0.116941
    15  H    0.108651
    16  H    0.107864
    17  H    0.095367
    18  H    0.105285
    19  H    0.279107
 Sum of Mulliken charges =   0.00000

 Dipole moment (field-independent basis, Debye):
    X=              1.7654    Y=             -2.1207    Z=             -0.4555  Tot=              2.7967
 Quadrupole moment (field-independent basis, Debye-Ang):
   XX=            -56.6872   YY=            -54.8259   ZZ=            -49.2448
   XY=              0.9917   XZ=             -5.7975   YZ=             -0.0460

  Exact polarizability: 115.632  -4.270  68.049  -6.110   1.190  64.936
 Approx polarizability: 154.835  -6.846  97.570 -13.059   2.671  99.655

                      1                      2                      3
                      A                      A                      A
 Frequencies --     14.5018                79.4349                83.2743
 Red. masses --      3.2872                 4.2027                 3.3034
 Frc consts  --      0.0004                 0.0156                 0.0135
 IR Inten    --      1.3905                 0.7976                 1.1016

                      4                      5                      6
                      A                      A                      A
 Frequencies --    153.8829               184.1974               254.1653
 Red. masses --      3.2069                 2.8484                 2.6151
 Frc consts  --      0.0447                 0.0569                 0.0995
 IR Inten    --      0.8554                 5.8394                 4.5461

                      7                      8                      9
                      A                      A                      A
 Frequencies --    294.5989               329.0737               376.6878
 Red. masses --      1.3332                 1.3617                 2.7055
 Frc consts  --      0.0682                 0.0869                 0.2262
 IR Inten    --    118.3478                49.8382                58.8073

                     10                     11                     12
                      A                      A                      A
 Frequencies --    417.0250               467.3925               516.1300
 Red. masses --      2.9158                 5.8601                 4.0730
 Frc consts  --      0.2988                 0.7543                 0.6393
 IR Inten    --     16.4803                 1.3998                 7.5710

                     13                     14                     15
                      A                      A                      A
 Frequencies --    560.3359               596.4166               751.6454
 Red. masses --      4.0345                 3.2896                 2.2600
 Frc consts  --      0.7463                 0.6894                 0.7523
 IR Inten    --      3.7047                 6.8150                 4.4283

                     16                     17                     18
                      A                      A                      A
 Frequencies --    801.3039               893.2713               921.2899
 Red. masses --      1.4481                 2.7117                 1.8599
 Frc consts  --      0.5478                 1.2748                 0.9301
 IR Inten    --      3.9793                 5.3364                 1.2330

                     19                     20                     21
                      A                      A                      A
 Frequencies --    935.8167               975.0971               993.1546
 Red. masses --      3.3880                 2.5457                 1.7028
 Frc consts  --      1.7481                 1.4261                 0.9896
 IR Inten    --      4.5200                42.4243                12.3826

                     22                     23                     24
                      A                      A                      A
 Frequencies --   1047.2797              1057.4205              1072.9686
 Red. masses --      5.6848                 1.8488                 1.8639
 Frc consts  --      3.6736                 1.2180                 1.2643
 IR Inten    --     88.8050                37.7800                13.2780

                     25                     26                     27
                      A                      A                      A
 Frequencies --   1152.2345              1185.5574              1192.2987
 Red. masses --      3.4329                 2.4160                 1.3310
 Frc consts  --      2.6853                 2.0008                 1.1148
 IR Inten    --    148.3808                 2.2582                 2.2494

                     28                     29                     30
                      A                      A                      A
 Frequencies --   1209.8193              1215.4109              1239.0972
 Red. masses --      1.3456                 1.1286                 1.1364
 Frc consts  --      1.1604                 0.9823                 1.0280
 IR Inten    --     11.2769                20.5231                 3.4830

                     31                     32                     33
                      A                      A                      A
 Frequencies --   1253.3713              1267.6029              1324.6933
 Red. masses --      1.4164                 1.3794                 1.5181
 Frc consts  --      1.3110                 1.3059                 1.5696
 IR Inten    --      6.1080                 5.0788                 0.7488

                     34                     35                     36
                      A                      A                      A
 Frequencies --   1356.0426              1366.8839              1418.5009
 Red. masses --      1.2135                 1.6344                 1.2426
 Frc consts  --      1.3147                 1.7992                 1.4731
 IR Inten    --      3.5112                 9.3863               120.9648

                     37                     38                     39
                      A                      A                      A
 Frequencies --   1435.7812              1482.3012              1493.1587
 Red. masses --      1.2123                 1.0903                 1.0792
 Frc consts  --      1.4725                 1.4115                 1.4176
 IR Inten    --     58.1222                 3.6878                 0.7996

                     40                     41                     42
                      A                      A                      A
 Frequencies --   1500.2050              2351.6379              2970.9187
 Red. masses --      1.1372                11.8843                 1.0717
 Frc consts  --      1.5079                38.7226                 5.5734
 IR Inten    --      6.4434                15.7405                53.2273

                     43                     44                     45
                      A                      A                      A
 Frequencies --   3018.7821              3044.2886              3059.0348
 Red. masses --      1.0820                 1.0650                 1.0878
 Frc consts  --      5.8097                 5.8150                 5.9977
 IR Inten    --     16.3506                31.0000                18.7471

                     46                     47                     48
                      A                      A                      A
 Frequencies --   3076.8517              3083.4793              3116.3909
 Red. masses --      1.0604                 1.0842                 1.1017
 Frc consts  --      5.9145                 6.0733                 6.3042
 IR Inten    --     23.8926                17.3821                25.6517

                     49                     50                     51
                      A                      A                      A
 Frequencies --   3135.6301              3805.3093              3817.6765
 Red. masses --      1.1086                 1.0657                 1.0662
 Frc consts  --      6.4219                 9.0924                 9.1559
 IR Inten    --     31.4310                17.6273                18.9637

 - Thermochemistry -
 -------------------
 Temperature   298.150 Kelvin.  Pressure   1.00000 Atm.
 Atom     1 has atomic number  8 and mass  15.99491

 Molecular mass:   126.06808 amu.
 Principal axes and moments of inertia in atomic units:
                           1         2         3
     Eigenvalues --   476.393662801.604903097.41456
           X            0.99993  -0.00925  -0.00734
           Y            0.00926   0.99996   0.00172
           Z            0.00732  -0.00179   0.99997
 This molecule is an asymmetric top.
 Rotational symmetry number  1.
 Warning -- assumption of classical behavior for rotation
           may cause significant error
 Rotational temperatures (Kelvin)      0.18181     0.03092     0.02796
 Rotational constants (GHZ):           3.78834     0.64418     0.58266
 Zero-point vibrational energy     414801.1 (Joules/Mol)
                                   99.13983 (Kcal/Mol)
 Warning -- explicit consideration of  14 degrees of freedom as
           vibrations may cause significant error
 Vibrational temperatures:     20.86   114.29   119.81   221.40   265.02
          (Kelvin)            365.69   423.86   473.46   541.97   600.01
                              672.47   742.59   806.20   858.11  1081.45
                             1152.90  1285.22  1325.53  1346.43  1402.95
                             1428.93  1506.80  1521.39  1543.76  1657.81
                             1705.75  1715.45  1740.66  1748.70  1782.78
                             1803.32  1823.80  1905.94  1951.04  1966.64
                             2040.90  2065.77  2132.70  2148.32  2158.46
                             3383.48  4274.48  4343.35  4380.05  4401.26
                             4426.90  4436.43  4483.79  4511.47  5474.98
                             5492.78

 Zero-point correction=                           0.157989 (Hartree/Particle)
 Thermal correction to Energy=                    0.167898
 Thermal correction to Enthalpy=                  0.168842
 Thermal correction to Gibbs Free Energy=         0.121071
 Sum of electronic and zero-point Energies=           -422.976299
 Sum of electronic and thermal Energies=              -422.966391
 Sum of electronic and thermal Enthalpies=            -422.965447
 Sum of electronic and thermal Free Energies=         -423.013218

                     E (Thermal)             CV                S
                      KCal/Mol        Cal/Mol-Kelvin    Cal/Mol-Kelvin
 Total                  105.357             35.272            100.543
 Electronic               0.000              0.000              0.000
 Translational            0.889              2.981             40.409
 Rotational               0.889              2.981             29.804
 Vibrational            103.580             29.310             30.331
 Vibration     1          0.593              1.986              7.273
 Vibration     2          0.600              1.963              3.905
 Vibration     3          0.600              1.961              3.812
 Vibration     4          0.619              1.898              2.624
 Vibration     5          0.631              1.861              2.285
 Vibration     6          0.665              1.756              1.702
 Vibration     7          0.689              1.684              1.447
 Vibration     8          0.712              1.617              1.265
 Vibration     9          0.747              1.520              1.052
 Vibration    10          0.780              1.433              0.902
 Vibration    11          0.825              1.322              0.745
 Vibration    12          0.871              1.214              0.619
 Vibration    13          0.916              1.117              0.523
 Vibration    14          0.954              1.039              0.456

 Normal termination of Gaussian 09 at Tue Jan 28 08:46:26 2020.
