 Gaussian 09, Revision D.01,
 Gaussian 09:  ES64L-G09RevD.01 24-Apr-2013

 -----------------------------
 # b3lyp 6-31G(2df,p) opt Freq
 -----------------------------

 -----
 titel
 -----
 Symbolic Z-matrix:
 Charge =  0 Multiplicity = 1

 SCF Done:  E(RB3LYP) =  -423.144095578     A.U. after   14 cycles
 Optimization completed.
    -- Stationary point found.
 Normal termination of Gaussian 09 at Tue Jan 28 00:03:37 2020.

 ----------------------------------------------------------------------
 #N Geom=AllCheck Guess=TCheck SCRF=Check GenChk RB3LYP/6-31G(2df,p) Fr
 eq
 ----------------------------------------------------------------------

 Structure from the checkpoint file:  "/scratch/puck/g09_74e57c57-6f44-4a70-b1fb-df0c3816575c/Gau-116344.chk"
 -----
 titel
 -----
 Charge =  0 Multiplicity = 1

                         Standard orientation:
 ---------------------------------------------------------------------
 Center     Atomic      Atomic             Coordinates (Angstroms)
 Number     Number       Type             X           Y           Z
 ---------------------------------------------------------------------
      1          6           0       -0.724191    1.712296   -0.642326
      2          6           0       -0.580597    0.825280    0.596941
      3          6           0        0.864926    0.310406    0.797308
      4          8           0        1.994830    0.750437   -0.036677
      5          6           0        2.243532   -0.625709   -0.466596
      6          6           0        0.887373   -0.993754    0.075340
      7          6           0       -0.319980   -1.461742   -0.206005
      8          6           0       -1.357042   -0.538300    0.452521
      9          8           0       -2.521068   -0.353501   -0.336763
     10          1           0       -1.769362    1.986690   -0.794093
     11          1           0       -0.129597    2.621622   -0.521715
     12          1           0       -0.372496    1.200337   -1.541515
     13          1           0       -0.938779    1.372176    1.475325
     14          1           0        1.175654    0.322686    1.850286
     15          1           0        2.389510   -0.714130   -1.548409
     16          1           0        3.110030   -1.048255    0.058681
     17          1           0       -0.600350   -2.268696   -0.872872
     18          1           0       -1.646022   -0.902174    1.451784
     19          1           0       -3.092808   -1.116617   -0.213042
 ---------------------------------------------------------------------

 SCF Done:  E(RB3LYP) =  -423.144095578     A.U. after    1 cycles

 The electronic state is 1-A.
 Alpha  occ. eigenvalues --  -19.14021 -19.13541 -10.24042 -10.23953 -10.22558
 Alpha  occ. eigenvalues --  -10.18834 -10.18793 -10.18368 -10.16212  -1.03291
 Alpha  occ. eigenvalues --   -1.02227  -0.83174  -0.75134  -0.68862  -0.67375
 Alpha  occ. eigenvalues --   -0.64202  -0.56093  -0.52924  -0.51098  -0.48919
 Alpha  occ. eigenvalues --   -0.47248  -0.45687  -0.42967  -0.40814  -0.39542
 Alpha  occ. eigenvalues --   -0.36904  -0.35853  -0.34247  -0.33189  -0.32507
 Alpha  occ. eigenvalues --   -0.30674  -0.27038  -0.25421  -0.24082
 Alpha virt. eigenvalues --    0.00383   0.06418   0.08729   0.10951   0.11957
 Alpha virt. eigenvalues --    0.13291   0.14997   0.15388   0.17181   0.17590
 Alpha virt. eigenvalues --    0.18169   0.18909   0.19145   0.19976   0.21237

 Mulliken charges:
               1
     1  C   -0.371407
     2  C   -0.077471
     3  C    0.101206
     4  O   -0.305769
     5  C   -0.156151
     6  C    0.201543
     7  C   -0.258651
     8  C    0.087001
     9  O   -0.422241
    10  H    0.125904
    11  H    0.116917
    12  H    0.121101
    13  H    0.068110
    14  H    0.078452
    15  H    0.121869
    16  H    0.109223
    17  H    0.099866
    18  H    0.073861
    19  H    0.286637
 Sum of Mulliken charges =   0.00000

 Dipole moment (field-independent basis, Debye):
    X=             -0.8205    Y=             -2.2614    Z=              0.7306  Tot=              2.5142
 Quadrupole moment (field-independent basis, Debye-Ang):
   XX=            -51.8345   YY=            -52.0415   ZZ=            -51.9852
   XY=              0.7148   XZ=             -1.9565   YZ=              1.6938

  Exact polarizability:  93.905   1.817  72.235  -1.054   4.229  65.247
 Approx polarizability: 137.105   9.481 107.283   1.821   7.340  99.921

                      1                      2                      3
                      A                      A                      A
 Frequencies --     95.6795               180.2562               214.6649
 Red. masses --      4.3860                 2.6197                 1.1729
 Frc consts  --      0.0237                 0.0502                 0.0318
 IR Inten    --      0.7070                 2.6238                64.3226

                      4                      5                      6
                      A                      A                      A
 Frequencies --    226.2600               246.4593               277.3708
 Red. masses --      1.0960                 3.4098                 2.7222
 Frc consts  --      0.0331                 0.1220                 0.1234
 IR Inten    --     35.4385                 4.6716                 6.0347

                      7                      8                      9
                      A                      A                      A
 Frequencies --    336.5658               389.3673               456.0085
 Red. masses --      2.6821                 3.8271                 4.3284
 Frc consts  --      0.1790                 0.3419                 0.5303
 IR Inten    --      1.9910                 5.2253                 1.5296

                     10                     11                     12
                      A                      A                      A
 Frequencies --    532.2890               673.0885               701.8491
 Red. masses --      4.4305                 3.5155                 2.3846
 Frc consts  --      0.7396                 0.9384                 0.6921
 IR Inten    --     14.0076                 9.0852                 3.1004

                     13                     14                     15
                      A                      A                      A
 Frequencies --    754.1917               797.7041               836.2278
 Red. masses --      3.3673                 3.4201                 1.6794
 Frc consts  --      1.1285                 1.2823                 0.6919
 IR Inten    --      2.8422                23.4668                15.0094

                     16                     17                     18
                      A                      A                      A
 Frequencies --    867.1055               901.9340               945.2693
 Red. masses --      3.2478                 3.5852                 3.1133
 Frc consts  --      1.4387                 1.7184                 1.6390
 IR Inten    --     10.1796                20.0241                77.5690

                     19                     20                     21
                      A                      A                      A
 Frequencies --    975.0728               985.1972              1019.6177
 Red. masses --      3.0646                 2.4168                 1.7177
 Frc consts  --      1.7167                 1.3821                 1.0521
 IR Inten    --      8.7395                 9.4414                31.6590

                     22                     23                     24
                      A                      A                      A
 Frequencies --   1048.9813              1072.3171              1101.2719
 Red. masses --      1.9580                 2.0667                 1.7026
 Frc consts  --      1.2694                 1.4001                 1.2166
 IR Inten    --     18.3652                21.8524                 1.4755

                     25                     26                     27
                      A                      A                      A
 Frequencies --   1102.0044              1135.5291              1143.1883
 Red. masses --      2.2487                 1.5973                 1.8046
 Frc consts  --      1.6090                 1.2135                 1.3895
 IR Inten    --      0.6371                15.2650                24.9320

                     28                     29                     30
                      A                      A                      A
 Frequencies --   1230.3749              1236.9663              1247.6688
 Red. masses --      1.4773                 1.3857                 1.4913
 Frc consts  --      1.3177                 1.2492                 1.3678
 IR Inten    --      0.3973                35.0990                18.6624

                     31                     32                     33
                      A                      A                      A
 Frequencies --   1286.3505              1315.2187              1333.5854
 Red. masses --      1.3517                 1.4355                 1.2995
 Frc consts  --      1.3178                 1.4631                 1.3617
 IR Inten    --     17.1915                29.1825                 6.5635

                     34                     35                     36
                      A                      A                      A
 Frequencies --   1346.4117              1368.8338              1401.8568
 Red. masses --      1.7501                 1.3531                 1.2447
 Frc consts  --      1.8693                 1.4937                 1.4412
 IR Inten    --      1.7516                 3.3552                 2.0668

                     37                     38                     39
                      A                      A                      A
 Frequencies --   1426.2372              1488.5639              1497.4281
 Red. masses --      1.3444                 1.0468                 1.0509
 Frc consts  --      1.6112                 1.3667                 1.3884
 IR Inten    --     10.0696                 5.2664                 5.0466

                     40                     41                     42
                      A                      A                      A
 Frequencies --   1508.7122              1749.6829              2958.1224
 Red. masses --      1.1049                 8.9891                 1.0829
 Frc consts  --      1.4818                16.2139                 5.5829
 IR Inten    --      0.8816                 5.8946                60.5862

                     43                     44                     45
                      A                      A                      A
 Frequencies --   3008.4979              3015.9719              3053.8999
 Red. masses --      1.0752                 1.0685                 1.0792
 Frc consts  --      5.7337                 5.7262                 5.9300
 IR Inten    --     39.6249                83.5367                54.0252

                     46                     47                     48
                      A                      A                      A
 Frequencies --   3056.1905              3073.2005              3124.7798
 Red. masses --      1.0410                 1.1043                 1.1014
 Frc consts  --      5.7287                 6.1452                 6.3364
 IR Inten    --     14.4843                28.1357                22.5187

                     49                     50                     51
                      A                      A                      A
 Frequencies --   3140.9879              3201.6216              3832.3276
 Red. masses --      1.1018                 1.0961                 1.0665
 Frc consts  --      6.4047                 6.6195                 9.2285
 IR Inten    --     16.0176                 8.6450                31.8432

 - Thermochemistry -
 -------------------
 Temperature   298.150 Kelvin.  Pressure   1.00000 Atm.
 Atom     1 has atomic number  6 and mass  12.00000

 Molecular mass:   126.06808 amu.
 Principal axes and moments of inertia in atomic units:
                           1         2         3
     Eigenvalues --   581.949291251.033741557.09749
           X            0.99976  -0.02061  -0.00678
           Y            0.02059   0.99979  -0.00234
           Z            0.00682   0.00220   0.99997
 This molecule is an asymmetric top.
 Rotational symmetry number  1.
 Warning -- assumption of classical behavior for rotation
           may cause significant error
 Rotational temperatures (Kelvin)      0.14883     0.06923     0.05563
 Rotational constants (GHZ):           3.10120     1.44260     1.15904
 Zero-point vibrational energy     418208.3 (Joules/Mol)
                                   99.95417 (Kcal/Mol)
 Warning -- explicit consideration of  10 degrees of freedom as
           vibrations may cause significant error
 Vibrational temperatures:    137.66   259.35   308.85   325.54   354.60
          (Kelvin)            399.07   484.24   560.21   656.09   765.84
                              968.42  1009.80  1085.11  1147.72  1203.14
                             1247.57  1297.68  1360.03  1402.91  1417.48
                             1467.00  1509.25  1542.82  1584.48  1585.54
                             1633.77  1644.79  1770.23  1779.72  1795.11
                             1850.77  1892.30  1918.73  1937.18  1969.44
                             2016.96  2052.03  2141.71  2154.46  2170.70
                             2517.40  4256.07  4328.55  4339.31  4393.88
                             4397.17  4421.64  4495.86  4519.18  4606.41
                             5513.86

 Zero-point correction=                           0.159287 (Hartree/Particle)
 Thermal correction to Energy=                    0.167635
 Thermal correction to Enthalpy=                  0.168579
 Thermal correction to Gibbs Free Energy=         0.126643
 Sum of electronic and zero-point Energies=           -422.984808
 Sum of electronic and thermal Energies=              -422.976461
 Sum of electronic and thermal Enthalpies=            -422.975516
 Sum of electronic and thermal Free Energies=         -423.017453

                     E (Thermal)             CV                S
                      KCal/Mol        Cal/Mol-Kelvin    Cal/Mol-Kelvin
 Total                  105.193             32.190             88.263
 Electronic               0.000              0.000              0.000
 Translational            0.889              2.981             40.409
 Rotational               0.889              2.981             28.518
 Vibrational            103.415             26.228             19.336
 Vibration     1          0.603              1.952              3.540
 Vibration     2          0.629              1.867              2.326
 Vibration     3          0.645              1.819              2.004
 Vibration     4          0.650              1.801              1.908
 Vibration     5          0.661              1.769              1.756
 Vibration     6          0.678              1.715              1.550
 Vibration     7          0.717              1.602              1.228
 Vibration     8          0.757              1.493              1.003
 Vibration     9          0.814              1.348              0.778
 Vibration    10          0.887              1.179              0.582

 Optimization completed.
    -- Stationary point found.
 Normal termination of Gaussian 09 at Tue Jan 28 00:58:45 2020.
