 Gaussian 09, Revision D.01,
 Gaussian 09:  ES64L-G09RevD.01 24-Apr-2013

 -----------------------------
 # b3lyp 6-31G(2df,p) opt Freq
 -----------------------------

 -----
 titel
 -----
 Symbolic Z-matrix:
 Charge =  0 Multiplicity = 1

 SCF Done:  E(RB3LYP) =  -423.138711702     A.U. after   13 cycles
 Optimization completed.
    -- Stationary point found.
 Normal termination of Gaussian 09 at Mon Jan 27 23:47:38 2020.

 ----------------------------------------------------------------------
 #N Geom=AllCheck Guess=TCheck SCRF=Check GenChk RB3LYP/6-31G(2df,p) Fr
 eq
 ----------------------------------------------------------------------

 Structure from the checkpoint file:  "/scratch/puck/g09_e84e6805-11ed-470b-a1b0-8aa0d8347f3b/Gau-78013.chk"
 -----
 titel
 -----
 Charge =  0 Multiplicity = 1

                         Standard orientation:
 ---------------------------------------------------------------------
 Center     Atomic      Atomic             Coordinates (Angstroms)
 Number     Number       Type             X           Y           Z
 ---------------------------------------------------------------------
      1          6           0       -2.179240   -1.027155   -0.087037
      2          6           0       -0.793052   -0.618759   -0.579980
      3          6           0        0.337144   -1.286183    0.251598
      4          8           0        1.632239   -1.121549   -0.361166
      5          6           0        1.758207    0.209264    0.192020
      6          6           0        0.986633    1.249849   -0.651518
      7          6           0       -0.334469    0.764864   -0.021489
      8          8           0       -1.262566    1.782077    0.170374
      9          6           0        0.512231    0.003757    1.098696
     10          1           0       -2.395004   -2.066323   -0.354131
     11          1           0       -2.261833   -0.950568    1.005307
     12          1           0       -2.961884   -0.403327   -0.532130
     13          1           0       -0.713107   -0.751268   -1.663786
     14          1           0        0.178384   -2.299883    0.626850
     15          1           0        2.776946    0.426135    0.515561
     16          1           0        1.197500    2.262819   -0.293636
     17          1           0        1.098519    1.205065   -1.738000
     18          1           0       -2.056351    1.408829    0.568222
     19          1           0        0.454717    0.110478    2.178336
 ---------------------------------------------------------------------

 SCF Done:  E(RB3LYP) =  -423.138711702     A.U. after    1 cycles

 The electronic state is 1-A.
 Alpha  occ. eigenvalues --  -19.14640 -19.13010 -10.23981 -10.23308 -10.23244
 Alpha  occ. eigenvalues --  -10.18924 -10.18732 -10.18501 -10.17762  -1.04638
 Alpha  occ. eigenvalues --   -1.02847  -0.84198  -0.77583  -0.70401  -0.66018
 Alpha  occ. eigenvalues --   -0.59952  -0.59199  -0.53786  -0.50674  -0.49106
 Alpha  occ. eigenvalues --   -0.46471  -0.45043  -0.42161  -0.40635  -0.39566
 Alpha  occ. eigenvalues --   -0.39361  -0.38862  -0.36097  -0.34944  -0.31480
 Alpha  occ. eigenvalues --   -0.30180  -0.27370  -0.24859  -0.23939
 Alpha virt. eigenvalues --    0.06015   0.08341   0.10579   0.10944   0.12731
 Alpha virt. eigenvalues --    0.13868   0.14596   0.15090   0.16279   0.16420
 Alpha virt. eigenvalues --    0.17209   0.18770   0.20024   0.20725   0.21197

 Mulliken charges:
               1
     1  C   -0.442885
     2  C   -0.069251
     3  C    0.109515
     4  O   -0.309072
     5  C    0.103263
     6  C   -0.287137
     7  C    0.398141
     8  O   -0.478277
     9  C   -0.192404
    10  H    0.127039
    11  H    0.114699
    12  H    0.124469
    13  H    0.076898
    14  H    0.074848
    15  H    0.080554
    16  H    0.110541
    17  H    0.102576
    18  H    0.281316
    19  H    0.075166
 Sum of Mulliken charges =   0.00000

 Dipole moment (field-independent basis, Debye):
    X=             -1.5499    Y=             -0.2455    Z=              1.1856  Tot=              1.9668
 Quadrupole moment (field-independent basis, Debye-Ang):
   XX=            -51.3227   YY=            -56.8807   ZZ=            -52.0717
   XY=              4.7069   XZ=              0.2849   YZ=             -0.4518

  Exact polarizability:  81.826   4.897  74.751   0.432  -1.437  65.196
 Approx polarizability: 112.380   1.491 110.968  -1.278  -0.329 101.475

                      1                      2                      3
                      A                      A                      A
 Frequencies --    169.8583               235.3330               249.0752
 Red. masses --      2.8539                 1.2531                 2.0996
 Frc consts  --      0.0485                 0.0409                 0.0767
 IR Inten    --      0.7030                 0.9470                 2.9408

                      4                      5                      6
                      A                      A                      A
 Frequencies --    284.2001               333.5934               352.3328
 Red. masses --      2.0844                 2.3110                 1.7264
 Frc consts  --      0.0992                 0.1515                 0.1263
 IR Inten    --      5.2101                34.3366                48.9672

                      7                      8                      9
                      A                      A                      A
 Frequencies --    389.5375               445.6571               486.9062
 Red. masses --      3.2248                 2.4970                 4.1140
 Frc consts  --      0.2883                 0.2922                 0.5747
 IR Inten    --     10.3463                 8.9830                 0.0311

                     10                     11                     12
                      A                      A                      A
 Frequencies --    618.3874               694.6221               756.2857
 Red. masses --      4.2205                 3.6058                 2.5076
 Frc consts  --      0.9509                 1.0251                 0.8450
 IR Inten    --      3.7252                 0.9722                 2.2508

                     13                     14                     15
                      A                      A                      A
 Frequencies --    829.2330               842.3336               852.8449
 Red. masses --      2.0965                 1.4841                 2.0442
 Frc consts  --      0.8494                 0.6204                 0.8760
 IR Inten    --     22.9496                 0.3311                 3.7801

                     16                     17                     18
                      A                      A                      A
 Frequencies --    868.4866               896.6672               951.4799
 Red. masses --      2.2810                 2.3547                 3.2175
 Frc consts  --      1.0137                 1.1154                 1.7162
 IR Inten    --      1.9453                11.3142                 5.0520

                     19                     20                     21
                      A                      A                      A
 Frequencies --    967.6464               985.1106              1010.9185
 Red. masses --      3.2876                 1.9421                 2.5065
 Frc consts  --      1.8137                 1.1104                 1.5092
 IR Inten    --     49.9814                 6.8577                29.5657

                     22                     23                     24
                      A                      A                      A
 Frequencies --   1044.6280              1068.5056              1080.5975
 Red. masses --      2.8410                 1.5379                 2.0191
 Frc consts  --      1.8266                 1.0345                 1.3891
 IR Inten    --     31.4588                 3.4372                12.9620

                     25                     26                     27
                      A                      A                      A
 Frequencies --   1106.3197              1130.7815              1141.1311
 Red. masses --      2.4091                 1.8218                 2.0522
 Frc consts  --      1.7372                 1.3725                 1.5745
 IR Inten    --      1.9414                12.9877                17.2337

                     28                     29                     30
                      A                      A                      A
 Frequencies --   1159.2294              1192.9212              1236.8807
 Red. masses --      1.8468                 1.5071                 1.9053
 Frc consts  --      1.4622                 1.2636                 1.7174
 IR Inten    --     15.1254                12.8284                 8.6796

                     31                     32                     33
                      A                      A                      A
 Frequencies --   1257.4610              1269.5949              1279.9359
 Red. masses --      1.7088                 1.5525                 1.4494
 Frc consts  --      1.5920                 1.4744                 1.3990
 IR Inten    --      3.0396                14.1351                 2.4528

                     34                     35                     36
                      A                      A                      A
 Frequencies --   1310.0856              1320.1947              1356.1532
 Red. masses --      1.8438                 1.6249                 1.6412
 Frc consts  --      1.8645                 1.6686                 1.7784
 IR Inten    --    115.6222                40.4889                 2.4429

                     37                     38                     39
                      A                      A                      A
 Frequencies --   1384.2585              1405.4992              1468.9370
 Red. masses --      1.7190                 1.3088                 1.1402
 Frc consts  --      1.9407                 1.5233                 1.4495
 IR Inten    --     31.5477                 2.3125                 2.5573

                     40                     41                     42
                      A                      A                      A
 Frequencies --   1499.7012              1505.4843              3016.9228
 Red. masses --      1.0486                 1.0502                 1.0392
 Frc consts  --      1.3895                 1.4024                 5.5730
 IR Inten    --      3.5985                 4.0926                19.9775

                     43                     44                     45
                      A                      A                      A
 Frequencies --   3050.1987              3055.0643              3080.8633
 Red. masses --      1.0592                 1.0832                 1.0899
 Frc consts  --      5.8059                 5.9568                 6.0948
 IR Inten    --     18.1284                21.7444                49.9877

                     46                     47                     48
                      A                      A                      A
 Frequencies --   3084.1071              3100.9645              3101.8192
 Red. masses --      1.0968                 1.1002                 1.0914
 Frc consts  --      6.1466                 6.2332                 6.1866
 IR Inten    --     38.0034                22.4641                50.3329

                     49                     50                     51
                      A                      A                      A
 Frequencies --   3113.3248              3155.0084              3808.3549
 Red. masses --      1.1077                 1.0945                 1.0653
 Frc consts  --      6.3260                 6.4191                 9.1033
 IR Inten    --     21.9093                20.1365                17.1782

 - Thermochemistry -
 -------------------
 Temperature   298.150 Kelvin.  Pressure   1.00000 Atm.
 Atom     1 has atomic number  6 and mass  12.00000

 Molecular mass:   126.06808 amu.
 Principal axes and moments of inertia in atomic units:
                           1         2         3
     Eigenvalues --   690.40983 944.727051345.43870
           X            0.98832   0.15241   0.00146
           Y           -0.15238   0.98821  -0.01466
           Z           -0.00368   0.01427   0.99989
 This molecule is an asymmetric top.
 Rotational symmetry number  1.
 Warning -- assumption of classical behavior for rotation
           may cause significant error
 Rotational temperatures (Kelvin)      0.12545     0.09168     0.06438
 Rotational constants (GHZ):           2.61401     1.91033     1.34138
 Zero-point vibrational energy     418725.5 (Joules/Mol)
                                  100.07780 (Kcal/Mol)
 Warning -- explicit consideration of  10 degrees of freedom as
           vibrations may cause significant error
 Vibrational temperatures:    244.39   338.59   358.36   408.90   479.97
          (Kelvin)            506.93   560.46   641.20   700.55   889.72
                              999.41  1088.13  1193.08  1211.93  1227.05
                             1249.56  1290.10  1368.97  1392.23  1417.35
                             1454.48  1502.98  1537.34  1554.74  1591.75
                             1626.94  1641.83  1667.87  1716.35  1779.59
                             1809.20  1826.66  1841.54  1884.92  1899.46
                             1951.20  1991.64  2022.20  2113.47  2157.73
                             2166.05  4340.67  4388.55  4395.55  4432.67
                             4437.34  4461.59  4462.82  4479.37  4539.35
                             5479.37

 Zero-point correction=                           0.159484 (Hartree/Particle)
 Thermal correction to Energy=                    0.167060
 Thermal correction to Enthalpy=                  0.168004
 Thermal correction to Gibbs Free Energy=         0.128064
 Sum of electronic and zero-point Energies=           -422.979228
 Sum of electronic and thermal Energies=              -422.971652
 Sum of electronic and thermal Enthalpies=            -422.970708
 Sum of electronic and thermal Free Energies=         -423.010647

                     E (Thermal)             CV                S
                      KCal/Mol        Cal/Mol-Kelvin    Cal/Mol-Kelvin
 Total                  104.832             31.066             84.060
 Electronic               0.000              0.000              0.000
 Translational            0.889              2.981             40.409
 Rotational               0.889              2.981             28.264
 Vibrational            103.054             25.105             15.388
 Vibration     1          0.625              1.880              2.437
 Vibration     2          0.655              1.787              1.838
 Vibration     3          0.662              1.764              1.737
 Vibration     4          0.683              1.703              1.508
 Vibration     5          0.715              1.608              1.243
 Vibration     6          0.729              1.570              1.156
 Vibration     7          0.757              1.493              1.002
 Vibration     8          0.805              1.370              0.809
 Vibration     9          0.843              1.279              0.692
 Vibration    10          0.978              0.993              0.419

 Optimization completed.
    -- Stationary point found.
 Normal termination of Gaussian 09 at Tue Jan 28 00:35:42 2020.
