 Gaussian 09, Revision D.01,
 Gaussian 09:  ES64L-G09RevD.01 24-Apr-2013

 -----------------------------
 # b3lyp 6-31G(2df,p) opt Freq
 -----------------------------

 -----
 titel
 -----
 Symbolic Z-matrix:
 Charge =  0 Multiplicity = 1

 SCF Done:  E(RB3LYP) =  -423.105443473     A.U. after   14 cycles
 SCF Done:  E(RB3LYP) =  -423.105444021     A.U. after    7 cycles
 Optimization completed.
    -- Stationary point found.
 Normal termination of Gaussian 09 at Mon Jan 27 16:26:09 2020.

 ----------------------------------------------------------------------
 #N Geom=AllCheck Guess=TCheck SCRF=Check GenChk RB3LYP/6-31G(2df,p) Fr
 eq
 ----------------------------------------------------------------------

 Structure from the checkpoint file:  "/scratch/puck/g09_8538df09-c365-4144-b8df-709102871a2a/Gau-83637.chk"
 -----
 titel
 -----
 Charge =  0 Multiplicity = 1

                         Standard orientation:
 ---------------------------------------------------------------------
 Center     Atomic      Atomic             Coordinates (Angstroms)
 Number     Number       Type             X           Y           Z
 ---------------------------------------------------------------------
      1          8           0        0.315855    1.564036    0.088086
      2          6           0       -0.079712    0.220749   -0.013837
      3          6           0        1.164143   -0.646119   -0.115098
      4          6           0        2.367632   -0.334966    0.666357
      5          8           0        2.291441    0.012699   -0.724842
      6          6           0       -1.314424   -0.109043   -0.937863
      7          6           0       -1.585741   -1.340253   -0.025281
      8          6           0       -1.234639   -0.179594    0.951480
      9          6           0       -2.170030    0.712701    0.074366
     10          1           0        1.109366    1.644632   -0.460892
     11          1           0        1.035301   -1.668443   -0.457088
     12          1           0        2.348412    0.509931    1.350192
     13          1           0        3.075981   -1.126238    0.903166
     14          1           0       -1.354120   -0.069555   -2.027616
     15          1           0       -2.625575   -1.671871    0.008058
     16          1           0       -0.914728   -2.198696   -0.080465
     17          1           0       -1.183742   -0.219347    2.040879
     18          1           0       -3.232093    0.458408    0.110941
     19          1           0       -2.000548    1.786452    0.106134
 ---------------------------------------------------------------------

 SCF Done:  E(RB3LYP) =  -423.105444021     A.U. after    1 cycles

 The electronic state is 1-A.
 Alpha  occ. eigenvalues --  -19.16423 -19.13384 -10.24521 -10.24284 -10.23937
 Alpha  occ. eigenvalues --  -10.20047 -10.19753 -10.18957 -10.18208  -1.08235
 Alpha  occ. eigenvalues --   -1.02136  -0.90288  -0.71091  -0.66556  -0.66054
 Alpha  occ. eigenvalues --   -0.62832  -0.60591  -0.53761  -0.52874  -0.50035
 Alpha  occ. eigenvalues --   -0.49655  -0.45801  -0.42314  -0.41805  -0.38584
 Alpha  occ. eigenvalues --   -0.37658  -0.35289  -0.33269  -0.32646  -0.31283
 Alpha  occ. eigenvalues --   -0.31175  -0.30711  -0.27950  -0.25386
 Alpha virt. eigenvalues --    0.08211   0.09178   0.09956   0.11993   0.12951
 Alpha virt. eigenvalues --    0.14183   0.14515   0.14736   0.15448   0.16343
 Alpha virt. eigenvalues --    0.16751   0.18276   0.19188   0.20249   0.20726

 Mulliken charges:
               1
     1  O   -0.502876
     2  C    0.479550
     3  C   -0.028184
     4  C   -0.185871
     5  O   -0.257156
     6  C   -0.119171
     7  C   -0.242475
     8  C   -0.093730
     9  C   -0.234365
    10  H    0.290157
    11  H    0.103992
    12  H    0.129504
    13  H    0.121005
    14  H    0.072547
    15  H    0.097449
    16  H    0.091303
    17  H    0.070695
    18  H    0.087200
    19  H    0.120427
 Sum of Mulliken charges =   0.00000

 Dipole moment (field-independent basis, Debye):
    X=             -0.0126    Y=             -1.4983    Z=              0.6378  Tot=              1.6284
 Quadrupole moment (field-independent basis, Debye-Ang):
   XX=            -52.7002   YY=            -53.5396   ZZ=            -53.2327
   XY=             -0.1947   XZ=              3.2426   YZ=             -1.0417

  Exact polarizability:  90.120   0.071  71.347   3.776   0.461  65.545
 Approx polarizability: 118.619   2.783 108.690   2.197   0.164 106.269

                      1                      2                      3
                      A                      A                      A
 Frequencies --     90.6359               171.3056               253.3470
 Red. masses --      3.9867                 2.9047                 3.9804
 Frc consts  --      0.0193                 0.0502                 0.1505
 IR Inten    --      2.1312                 2.5268                 2.1940

                      4                      5                      6
                      A                      A                      A
 Frequencies --    331.9571               354.3613               422.5476
 Red. masses --      4.1228                 5.0146                 4.1573
 Frc consts  --      0.2677                 0.3710                 0.4373
 IR Inten    --      6.5960                17.5713                 3.1249

                      7                      8                      9
                      A                      A                      A
 Frequencies --    485.7478               530.5245               566.7599
 Red. masses --      3.2428                 1.6275                 1.5881
 Frc consts  --      0.4508                 0.2699                 0.3006
 IR Inten    --      5.2513                37.8200                60.9874

                     10                     11                     12
                      A                      A                      A
 Frequencies --    596.4479               721.2318               791.2810
 Red. masses --      1.9844                 2.8345                 3.1195
 Frc consts  --      0.4159                 0.8687                 1.1508
 IR Inten    --     12.2941                 6.4915                 1.1664

                     13                     14                     15
                      A                      A                      A
 Frequencies --    803.0865               846.0000               892.1333
 Red. masses --      2.9084                 7.2133                 2.9591
 Frc consts  --      1.1052                 3.0418                 1.3876
 IR Inten    --      1.0011                22.5676                25.5914

                     16                     17                     18
                      A                      A                      A
 Frequencies --    898.7976               901.9631               920.2631
 Red. masses --      2.0870                 2.9016                 2.0246
 Frc consts  --      0.9933                 1.3908                 1.0102
 IR Inten    --      3.9390                15.3503                 1.3049

                     19                     20                     21
                      A                      A                      A
 Frequencies --    989.5341              1013.9512              1018.6910
 Red. masses --      1.7626                 1.1011                 1.2134
 Frc consts  --      1.0169                 0.6670                 0.7419
 IR Inten    --      4.5448                 0.9137                 1.7456

                     22                     23                     24
                      A                      A                      A
 Frequencies --   1027.0833              1065.9929              1086.8274
 Red. masses --      2.2432                 1.3281                 1.3581
 Frc consts  --      1.3942                 0.8892                 0.9452
 IR Inten    --     39.4103                 6.9856                 0.2221

                     25                     26                     27
                      A                      A                      A
 Frequencies --   1103.9048              1114.2607              1135.4708
 Red. masses --      1.3379                 1.8047                 2.4336
 Frc consts  --      0.9606                 1.3202                 1.8486
 IR Inten    --      0.6240                 1.1837                22.4664

                     28                     29                     30
                      A                      A                      A
 Frequencies --   1167.2463              1173.7044              1183.8491
 Red. masses --      1.4976                 1.3438                 1.4685
 Frc consts  --      1.2022                 1.0907                 1.2126
 IR Inten    --     13.1049                 0.7735                 1.5178

                     31                     32                     33
                      A                      A                      A
 Frequencies --   1195.2648              1214.5020              1236.4510
 Red. masses --      1.3814                 3.3573                 1.5696
 Frc consts  --      1.1628                 2.9177                 1.4138
 IR Inten    --      0.0652                16.9008                14.6356

                     34                     35                     36
                      A                      A                      A
 Frequencies --   1246.4705              1266.7166              1295.9476
 Red. masses --      1.7449                 1.9901                 1.6731
 Frc consts  --      1.5973                 1.8814                 1.6556
 IR Inten    --      0.9928                29.5704                35.4997

                     37                     38                     39
                      A                      A                      A
 Frequencies --   1378.7979              1448.5864              1500.2599
 Red. masses --      1.5555                 1.8269                 1.1000
 Frc consts  --      1.7423                 2.2587                 1.4588
 IR Inten    --     51.1381                30.2911                 1.0962

                     40                     41                     42
                      A                      A                      A
 Frequencies --   1514.0908              1543.3420              3071.2250
 Red. masses --      1.3006                 1.1321                 1.0585
 Frc consts  --      1.7567                 1.5887                 5.8823
 IR Inten    --      0.7196                 4.8816                39.3769

                     43                     44                     45
                      A                      A                      A
 Frequencies --   3071.5388              3098.0068              3100.1731
 Red. masses --      1.0581                 1.0880                 1.0523
 Frc consts  --      5.8815                 6.1525                 5.9589
 IR Inten    --     36.2691                85.6067                42.3362

                     46                     47                     48
                      A                      A                      A
 Frequencies --   3105.3752              3127.6882              3160.4964
 Red. masses --      1.0927                 1.1085                 1.0901
 Frc consts  --      6.2082                 6.3887                 6.4152
 IR Inten    --      7.1362                39.5306                15.4532

                     49                     50                     51
                      A                      A                      A
 Frequencies --   3167.5345              3195.4705              3726.4011
 Red. masses --      1.1045                 1.1188                 1.0648
 Frc consts  --      6.5290                 6.7311                 8.7112
 IR Inten    --     17.3137                16.3085                75.0717

 - Thermochemistry -
 -------------------
 Temperature   298.150 Kelvin.  Pressure   1.00000 Atm.
 Atom     1 has atomic number  8 and mass  15.99491

 Molecular mass:   126.06808 amu.
 Principal axes and moments of inertia in atomic units:
                           1         2         3
     Eigenvalues --   497.502631374.007841536.74822
           X            0.99987  -0.00148   0.01611
           Y            0.00157   0.99998  -0.00571
           Z           -0.01611   0.00573   0.99985
 This molecule is an asymmetric top.
 Rotational symmetry number  1.
 Warning -- assumption of classical behavior for rotation
           may cause significant error
 Rotational temperatures (Kelvin)      0.17410     0.06304     0.05636
 Rotational constants (GHZ):           3.62760     1.31349     1.17439
 Zero-point vibrational energy     420626.4 (Joules/Mol)
                                  100.53213 (Kcal/Mol)
 Warning -- explicit consideration of  10 degrees of freedom as
           vibrations may cause significant error
 Vibrational temperatures:    130.40   246.47   364.51   477.61   509.85
          (Kelvin)            607.95   698.88   763.31   815.44   858.15
                             1037.69  1138.48  1155.46  1217.20  1283.58
                             1293.17  1297.72  1324.05  1423.72  1458.85
                             1465.67  1477.74  1533.72  1563.70  1588.27
                             1603.17  1633.69  1679.40  1688.70  1703.29
                             1719.72  1747.40  1778.98  1793.39  1822.52
                             1864.58  1983.78  2084.19  2158.54  2178.44
                             2220.52  4418.80  4419.25  4457.34  4460.45
                             4467.94  4500.04  4547.24  4557.37  4597.56
                             5361.45

 Zero-point correction=                           0.160208 (Hartree/Particle)
 Thermal correction to Energy=                    0.167664
 Thermal correction to Enthalpy=                  0.168608
 Thermal correction to Gibbs Free Energy=         0.128382
 Sum of electronic and zero-point Energies=           -422.945236
 Sum of electronic and thermal Energies=              -422.937780
 Sum of electronic and thermal Enthalpies=            -422.936836
 Sum of electronic and thermal Free Energies=         -422.977062

                     E (Thermal)             CV                S
                      KCal/Mol        Cal/Mol-Kelvin    Cal/Mol-Kelvin
 Total                  105.211             30.431             84.662
 Electronic               0.000              0.000              0.000
 Translational            0.889              2.981             40.409
 Rotational               0.889              2.981             28.443
 Vibrational            103.433             24.470             15.811
 Vibration     1          0.602              1.956              3.646
 Vibration     2          0.626              1.878              2.421
 Vibration     3          0.665              1.757              1.707
 Vibration     4          0.714              1.612              1.251
 Vibration     5          0.730              1.566              1.147
 Vibration     6          0.785              1.421              0.883
 Vibration     7          0.842              1.282              0.695
 Vibration     8          0.885              1.182              0.586
 Vibration     9          0.923              1.103              0.511
 Vibration    10          0.954              1.039              0.456

 Optimization completed.
    -- Stationary point found.
 Normal termination of Gaussian 09 at Mon Jan 27 17:10:06 2020.
