 Gaussian 09, Revision D.01,
 Gaussian 09:  ES64L-G09RevD.01 24-Apr-2013

 -----------------------------
 # b3lyp 6-31G(2df,p) opt Freq
 -----------------------------

 -----
 titel
 -----
 Symbolic Z-matrix:
 Charge =  0 Multiplicity = 1

 SCF Done:  E(RB3LYP) =  -423.198728808     A.U. after   14 cycles
 Optimization completed.
    -- Stationary point found.
 Normal termination of Gaussian 09 at Tue Jan 28 02:53:20 2020.

 ----------------------------------------------------------------------
 #N Geom=AllCheck Guess=TCheck SCRF=Check GenChk RB3LYP/6-31G(2df,p) Fr
 eq
 ----------------------------------------------------------------------

 Structure from the checkpoint file:  "/scratch/puck/g09_7e255c7e-cfcb-4c64-9fb7-1c4cb8926636/Gau-105045.chk"
 -----
 titel
 -----
 Charge =  0 Multiplicity = 1

                         Standard orientation:
 ---------------------------------------------------------------------
 Center     Atomic      Atomic             Coordinates (Angstroms)
 Number     Number       Type             X           Y           Z
 ---------------------------------------------------------------------
      1          6           0       -2.670518    0.293972   -0.594196
      2          6           0       -1.676695   -0.445784    0.285436
      3          6           0       -0.637152   -1.401101   -0.372958
      4          6           0        0.463148   -0.825179    0.587413
      5          6           0       -0.496296    0.340739    0.914334
      6          8           0       -0.079143    1.420250    0.068673
      7          6           0        1.297130    1.304730   -0.235214
      8          6           0        1.664841   -0.175817   -0.069219
      9          8           0        2.706839   -0.685989   -0.386732
     10          1           0       -3.325784   -0.411883   -1.115800
     11          1           0       -3.303954    0.964350   -0.003349
     12          1           0       -2.147881    0.898098   -1.339848
     13          1           0       -2.199752   -0.979876    1.086895
     14          1           0       -0.820741   -2.473078   -0.286341
     15          1           0       -0.444817   -1.167006   -1.423603
     16          1           0        0.748953   -1.500789    1.393040
     17          1           0       -0.598768    0.689165    1.948993
     18          1           0        1.479571    1.655370   -1.255855
     19          1           0        1.924862    1.902205    0.446756
 ---------------------------------------------------------------------

 SCF Done:  E(RB3LYP) =  -423.198728808     A.U. after    1 cycles

 The electronic state is 1-A.
 Alpha  occ. eigenvalues --  -19.15069 -19.13646 -10.27262 -10.23855 -10.23785
 Alpha  occ. eigenvalues --  -10.19916 -10.19769 -10.19604 -10.17506  -1.05592
 Alpha  occ. eigenvalues --   -1.03896  -0.85116  -0.75555  -0.72076  -0.66947
 Alpha  occ. eigenvalues --   -0.63505  -0.55979  -0.54177  -0.51597  -0.47948
 Alpha  occ. eigenvalues --   -0.46207  -0.45079  -0.43911  -0.42093  -0.41106
 Alpha  occ. eigenvalues --   -0.38716  -0.38149  -0.37252  -0.33979  -0.33475
 Alpha  occ. eigenvalues --   -0.32241  -0.31667  -0.26391  -0.23834
 Alpha virt. eigenvalues --   -0.02410   0.07536   0.09903   0.10295   0.11899
 Alpha virt. eigenvalues --    0.13393   0.14015   0.16309   0.16528   0.16841
 Alpha virt. eigenvalues --    0.17187   0.17691   0.18726   0.20348   0.21244

 Mulliken charges:
               1
     1  C   -0.406853
     2  C    0.024085
     3  C   -0.259623
     4  C   -0.150561
     5  C    0.089542
     6  O   -0.269655
     7  C   -0.183344
     8  C    0.368616
     9  O   -0.307464
    10  H    0.113265
    11  H    0.117175
    12  H    0.129775
    13  H    0.076590
    14  H    0.114766
    15  H    0.113696
    16  H    0.100706
    17  H    0.070907
    18  H    0.136879
    19  H    0.121497
 Sum of Mulliken charges =   0.00000

 Dipole moment (field-independent basis, Debye):
    X=             -1.9216    Y=             -0.1247    Z=              0.9614  Tot=              2.1523
 Quadrupole moment (field-independent basis, Debye-Ang):
   XX=            -60.1899   YY=            -54.0145   ZZ=            -50.7713
   XY=              5.5490   XZ=              1.2782   YZ=             -1.1239

  Exact polarizability:  88.929   2.144  72.813  -1.964  -0.651  65.002
 Approx polarizability: 121.154  -1.358 106.298  -5.836  -0.685  99.217

                      1                      2                      3
                      A                      A                      A
 Frequencies --     64.2346               112.6420               181.3079
 Red. masses --      3.9881                 2.6441                 1.9018
 Frc consts  --      0.0097                 0.0198                 0.0368
 IR Inten    --      1.9313                 6.3454                 0.0985

                      4                      5                      6
                      A                      A                      A
 Frequencies --    218.0966               249.3658               333.4391
 Red. masses --      1.3511                 3.6286                 2.2527
 Frc consts  --      0.0379                 0.1329                 0.1476
 IR Inten    --      0.4226                 3.9907                 0.3040

                      7                      8                      9
                      A                      A                      A
 Frequencies --    404.6757               514.9165               550.4317
 Red. masses --      5.2393                 3.2625                 2.6853
 Frc consts  --      0.5055                 0.5096                 0.4793
 IR Inten    --      4.7578                 8.5968                 3.7881

                     10                     11                     12
                      A                      A                      A
 Frequencies --    571.1773               645.1334               727.2804
 Red. masses --      4.1651                 4.9122                 2.3829
 Frc consts  --      0.8006                 1.2046                 0.7426
 IR Inten    --      1.3499                 3.2283                 2.4696

                     13                     14                     15
                      A                      A                      A
 Frequencies --    775.3215               852.7102               865.7683
 Red. masses --      2.7278                 2.9516                 2.2204
 Frc consts  --      0.9661                 1.2645                 0.9806
 IR Inten    --      4.0690                10.7174                 1.6121

                     16                     17                     18
                      A                      A                      A
 Frequencies --    908.8281               918.5364               932.0601
 Red. masses --      1.6753                 2.2698                 2.0391
 Frc consts  --      0.8153                 1.1283                 1.0437
 IR Inten    --      0.9392                 1.7164                 3.4539

                     19                     20                     21
                      A                      A                      A
 Frequencies --    957.3790               987.0891              1068.8943
 Red. masses --      2.4816                 1.3672                 2.5894
 Frc consts  --      1.3402                 0.7848                 1.7431
 IR Inten    --      9.1883                 5.0637                24.4656

                     22                     23                     24
                      A                      A                      A
 Frequencies --   1078.0516              1110.2458              1127.4231
 Red. masses --      2.9699                 3.1755                 2.0181
 Frc consts  --      2.0337                 2.3062                 1.5113
 IR Inten    --     34.9324                32.2459                 1.6180

                     25                     26                     27
                      A                      A                      A
 Frequencies --   1171.3528              1186.1360              1207.8118
 Red. masses --      2.0931                 2.6494                 1.3052
 Frc consts  --      1.6921                 2.1962                 1.1218
 IR Inten    --     16.3774                70.0857                 8.5871

                     28                     29                     30
                      A                      A                      A
 Frequencies --   1221.3956              1242.0829              1264.8479
 Red. masses --      1.3501                 1.3866                 1.4311
 Frc consts  --      1.1867                 1.2604                 1.3490
 IR Inten    --      4.7637                 1.3456                11.4784

                     31                     32                     33
                      A                      A                      A
 Frequencies --   1284.8165              1287.2036              1325.9233
 Red. masses --      1.4659                 1.6197                 1.3463
 Frc consts  --      1.4258                 1.5811                 1.3946
 IR Inten    --      1.1989                 6.7368                16.6907

                     34                     35                     36
                      A                      A                      A
 Frequencies --   1360.4355              1372.1006              1408.9372
 Red. masses --      1.3296                 1.5503                 1.2881
 Frc consts  --      1.4498                 1.7197                 1.5065
 IR Inten    --      6.3119                 3.0938                 4.4758

                     37                     38                     39
                      A                      A                      A
 Frequencies --   1484.6560              1487.6239              1489.9567
 Red. masses --      1.0873                 1.0929                 1.0474
 Frc consts  --      1.4121                 1.4250                 1.3699
 IR Inten    --      6.1316                 0.7868                 5.2108

                     40                     41                     42
                      A                      A                      A
 Frequencies --   1502.0128              1851.2908              2973.3619
 Red. masses --      1.0511                12.6598                 1.0699
 Frc consts  --      1.3972                25.5639                 5.5729
 IR Inten    --      4.6883               229.6032                46.1765

                     43                     44                     45
                      A                      A                      A
 Frequencies --   3026.2706              3034.6839              3045.7244
 Red. masses --      1.0863                 1.0400                 1.0816
 Frc consts  --      5.8613                 5.6432                 5.9117
 IR Inten    --     46.4667                27.3658                41.0435

                     46                     47                     48
                      A                      A                      A
 Frequencies --   3066.2052              3080.5308              3096.4938
 Red. masses --      1.0602                 1.0908                 1.1011
 Frc consts  --      5.8727                 6.0990                 6.2201
 IR Inten    --     21.3117                14.4116                24.3029

                     49                     50                     51
                      A                      A                      A
 Frequencies --   3117.0927              3124.6152              3130.6497
 Red. masses --      1.0949                 1.0992                 1.0993
 Frc consts  --      6.2680                 6.3227                 6.3479
 IR Inten    --      5.3541                14.4232                28.7792

 - Thermochemistry -
 -------------------
 Temperature   298.150 Kelvin.  Pressure   1.00000 Atm.
 Atom     1 has atomic number  6 and mass  12.00000

 Molecular mass:   126.06808 amu.
 Principal axes and moments of inertia in atomic units:
                           1         2         3
     Eigenvalues --   552.521151348.460451628.70253
           X            0.99960   0.02502   0.01282
           Y           -0.02480   0.99955  -0.01697
           Z           -0.01324   0.01664   0.99977
 This molecule is an asymmetric top.
 Rotational symmetry number  1.
 Warning -- assumption of classical behavior for rotation
           may cause significant error
 Rotational temperatures (Kelvin)      0.15676     0.06423     0.05318
 Rotational constants (GHZ):           3.26637     1.33837     1.10809
 Zero-point vibrational energy     418688.3 (Joules/Mol)
                                  100.06891 (Kcal/Mol)
 Warning -- explicit consideration of  10 degrees of freedom as
           vibrations may cause significant error
 Vibrational temperatures:     92.42   162.07   260.86   313.79   358.78
          (Kelvin)            479.74   582.24   740.85   791.95   821.80
                              928.20  1046.39  1115.51  1226.86  1245.65
                             1307.60  1321.57  1341.02  1377.45  1420.20
                             1537.90  1551.07  1597.39  1622.11  1685.31
                             1706.58  1737.77  1757.31  1787.08  1819.83
                             1848.56  1852.00  1907.71  1957.36  1974.14
                             2027.14  2136.09  2140.36  2143.71  2161.06
                             2663.59  4278.00  4354.12  4366.23  4382.11
                             4411.58  4432.19  4455.16  4484.80  4495.62
                             4504.30

 Zero-point correction=                           0.159470 (Hartree/Particle)
 Thermal correction to Energy=                    0.167653
 Thermal correction to Enthalpy=                  0.168597
 Thermal correction to Gibbs Free Energy=         0.126353
 Sum of electronic and zero-point Energies=           -423.039259
 Sum of electronic and thermal Energies=              -423.031076
 Sum of electronic and thermal Enthalpies=            -423.030131
 Sum of electronic and thermal Free Energies=         -423.072375

                     E (Thermal)             CV                S
                      KCal/Mol        Cal/Mol-Kelvin    Cal/Mol-Kelvin
 Total                  105.204             31.024             88.910
 Electronic               0.000              0.000              0.000
 Translational            0.889              2.981             40.409
 Rotational               0.889              2.981             28.586
 Vibrational            103.426             25.062             19.916
 Vibration     1          0.597              1.971              4.323
 Vibration     2          0.607              1.939              3.223
 Vibration     3          0.630              1.865              2.315
 Vibration     4          0.646              1.814              1.975
 Vibration     5          0.662              1.764              1.735
 Vibration     6          0.715              1.609              1.243
 Vibration     7          0.770              1.460              0.946
 Vibration     8          0.870              1.217              0.622
 Vibration     9          0.906              1.139              0.543
 Vibration    10          0.927              1.094              0.502

 Optimization completed.
    -- Stationary point found.
 Normal termination of Gaussian 09 at Tue Jan 28 03:46:10 2020.
