 Gaussian 09, Revision D.01,
 Gaussian 09:  ES64L-G09RevD.01 24-Apr-2013

 -----------------------------
 # b3lyp 6-31G(2df,p) opt Freq
 -----------------------------

 -----
 titel
 -----
 Symbolic Z-matrix:
 Charge =  0 Multiplicity = 1

 SCF Done:  E(RB3LYP) =  -423.086454888     A.U. after   14 cycles
 Optimization completed.
    -- Stationary point found.
 Normal termination of Gaussian 09 at Tue Jan 28 09:49:05 2020.

 ----------------------------------------------------------------------
 #N Geom=AllCheck Guess=TCheck SCRF=Check GenChk RB3LYP/6-31G(2df,p) Fr
 eq
 ----------------------------------------------------------------------

 Structure from the checkpoint file:  "/scratch/puck/g09_44f742bc-227c-4280-afbf-a86146358199/Gau-147308.chk"
 -----
 titel
 -----
 Charge =  0 Multiplicity = 1

                         Standard orientation:
 ---------------------------------------------------------------------
 Center     Atomic      Atomic             Coordinates (Angstroms)
 Number     Number       Type             X           Y           Z
 ---------------------------------------------------------------------
      1          6           0       -2.748700   -0.302987    0.000162
      2          8           0       -1.880583    0.823447   -0.000132
      3          6           0       -0.553107    0.515827   -0.000060
      4          6           0        0.571593    1.555375    0.000025
      5          6           0        1.339528    0.211152    0.000022
      6          6           0        2.814204   -0.061465    0.000108
      7          6           0        0.267117   -0.491813    0.898019
      8          8           0        0.101033   -1.629186   -0.000116
      9          6           0        0.267174   -0.491746   -0.898132
     10          1           0       -2.595827   -0.925909    0.889812
     11          1           0       -3.767527    0.089040   -0.000175
     12          1           0       -2.595504   -0.926655   -0.888902
     13          1           0        0.663872    2.170654   -0.899544
     14          1           0        0.663756    2.170627    0.899624
     15          1           0        3.297554    0.365539    0.885333
     16          1           0        2.994100   -1.141459   -0.001291
     17          1           0        3.298111    0.367990   -0.883620
     18          1           0        0.265445   -0.665070    1.974470
     19          1           0        0.265562   -0.664905   -1.974598
 ---------------------------------------------------------------------

 SCF Done:  E(RB3LYP) =  -423.086454888     A.U. after    1 cycles

 The electronic state is 1-A.
 Alpha  occ. eigenvalues --  -19.15471 -19.12940 -10.24698 -10.23878 -10.23874
 Alpha  occ. eigenvalues --  -10.22570 -10.20703 -10.18669 -10.18207  -1.06765
 Alpha  occ. eigenvalues --   -1.03826  -0.86536  -0.73561  -0.69914  -0.65498
 Alpha  occ. eigenvalues --   -0.65213  -0.58173  -0.52438  -0.50277  -0.47200
 Alpha  occ. eigenvalues --   -0.46669  -0.45748  -0.44807  -0.41634  -0.40861
 Alpha  occ. eigenvalues --   -0.38977  -0.37965  -0.34706  -0.33876  -0.32730
 Alpha  occ. eigenvalues --   -0.29883  -0.29877  -0.24735  -0.23058
 Alpha virt. eigenvalues --    0.07962   0.10695   0.11348   0.11647   0.12256
 Alpha virt. eigenvalues --    0.12968   0.14507   0.15462   0.15747   0.16192
 Alpha virt. eigenvalues --    0.17055   0.17107   0.17315   0.18759   0.20622

 Mulliken charges:
               1
     1  C   -0.255261
     2  O   -0.286381
     3  C    0.413688
     4  C   -0.382675
     5  C    0.315237
     6  C   -0.520886
     7  C   -0.047671
     8  O   -0.328493
     9  C   -0.047696
    10  H    0.125048
    11  H    0.125814
    12  H    0.125080
    13  H    0.101411
    14  H    0.101412
    15  H    0.122173
    16  H    0.136112
    17  H    0.122171
    18  H    0.090458
    19  H    0.090461
 Sum of Mulliken charges =   0.00000

 Dipole moment (field-independent basis, Debye):
    X=              0.4742    Y=              0.6340    Z=              0.0004  Tot=              0.7917
 Quadrupole moment (field-independent basis, Debye-Ang):
   XX=            -49.8593   YY=            -58.5710   ZZ=            -49.6813
   XY=              3.0422   XZ=             -0.0007   YZ=             -0.0002

  Exact polarizability:  88.611   2.450  70.192   0.000  -0.001  68.445
 Approx polarizability: 111.609   1.528 110.314   0.001  -0.001 108.568

                      1                      2                      3
                      A                      A                      A
 Frequencies --     82.5542               160.5235               173.2186
 Red. masses --      2.6951                 1.1323                 3.0816
 Frc consts  --      0.0108                 0.0172                 0.0545
 IR Inten    --      3.4399                 0.1666                 2.3870

                      4                      5                      6
                      A                      A                      A
 Frequencies --    232.5397               241.4611               245.1399
 Red. masses --      1.0653                 2.4648                 3.3205
 Frc consts  --      0.0339                 0.0847                 0.1176
 IR Inten    --      0.0060                 1.0827                 4.5347

                      7                      8                      9
                      A                      A                      A
 Frequencies --    388.9208               394.3242               444.6903
 Red. masses --      4.3779                 2.1540                 2.6079
 Frc consts  --      0.3902                 0.1973                 0.3039
 IR Inten    --      0.4909                 0.2660                 2.5203

                     10                     11                     12
                      A                      A                      A
 Frequencies --    545.5213               597.0830               697.5884
 Red. masses --      3.8690                 4.0905                 3.8225
 Frc consts  --      0.6784                 0.8592                 1.0960
 IR Inten    --      1.2404                 7.7372                 1.1481

                     13                     14                     15
                      A                      A                      A
 Frequencies --    713.2761               785.6655               854.3848
 Red. masses --      2.6992                 3.8775                 7.4592
 Frc consts  --      0.8091                 1.4102                 3.2081
 IR Inten    --      3.8031                 1.4004                18.4196

                     16                     17                     18
                      A                      A                      A
 Frequencies --    865.7673               901.7802               902.4571
 Red. masses --      2.5980                 2.2658                 2.7651
 Frc consts  --      1.1473                 1.0856                 1.3268
 IR Inten    --     15.2451                 0.2832                19.1653

                     19                     20                     21
                      A                      A                      A
 Frequencies --    993.0810              1017.0421              1030.9713
 Red. masses --      1.3315                 2.4930                 1.3213
 Frc consts  --      0.7737                 1.5193                 0.8274
 IR Inten    --      3.3275                17.6243                 1.4746

                     22                     23                     24
                      A                      A                      A
 Frequencies --   1069.8253              1088.3602              1105.1432
 Red. masses --      3.1107                 3.8973                 2.4473
 Frc consts  --      2.0977                 2.7200                 1.7611
 IR Inten    --     59.2989                 2.3828                 8.6581

                     25                     26                     27
                      A                      A                      A
 Frequencies --   1117.0317              1161.9434              1164.4744
 Red. masses --      1.4795                 1.4350                 1.7425
 Frc consts  --      1.0877                 1.1415                 1.3921
 IR Inten    --      0.1496                 0.9789                24.4547

                     28                     29                     30
                      A                      A                      A
 Frequencies --   1173.9800              1179.3691              1203.9774
 Red. masses --      1.8483                 1.2941                 1.9242
 Frc consts  --      1.5009                 1.0605                 1.6434
 IR Inten    --      0.1631                 1.9375                 8.3409

                     31                     32                     33
                      A                      A                      A
 Frequencies --   1247.8039              1291.0493              1323.5139
 Red. masses --      2.0753                 2.3256                 3.0921
 Frc consts  --      1.9038                 2.2839                 3.1913
 IR Inten    --     26.2749                 5.0063               192.3141

                     34                     35                     36
                      A                      A                      A
 Frequencies --   1392.1799              1413.5108              1486.0300
 Red. masses --      1.6867                 1.8702                 1.0465
 Frc consts  --      1.9261                 2.2016                 1.3616
 IR Inten    --     70.5669                11.3989                 6.5272

                     37                     38                     39
                      A                      A                      A
 Frequencies --   1488.6718              1490.0531              1492.1702
 Red. masses --      1.1714                 1.0467                 1.0511
 Frc consts  --      1.5296                 1.3692                 1.3788
 IR Inten    --      7.7793                 4.4041                 5.2259

                     40                     41                     42
                      A                      A                      A
 Frequencies --   1495.8693              1527.0321              3014.6898
 Red. masses --      1.0592                 1.3503                 1.0324
 Frc consts  --      1.3964                 1.8551                 5.5283
 IR Inten    --      9.5991                22.4088                39.9512

                     43                     44                     45
                      A                      A                      A
 Frequencies --   3030.1120              3050.7850              3074.5400
 Red. masses --      1.0347                 1.0556                 1.1044
 Frc consts  --      5.5976                 5.7887                 6.1507
 IR Inten    --     29.6469                40.5199                27.1851

                     46                     47                     48
                      A                      A                      A
 Frequencies --   3094.6321              3104.2342              3108.3931
 Red. masses --      1.1010                 1.1010                 1.1098
 Frc consts  --      6.2124                 6.2510                 6.3179
 IR Inten    --     16.7356                13.5130                26.4477

                     49                     50                     51
                      A                      A                      A
 Frequencies --   3114.0418              3121.5604              3130.0052
 Red. masses --      1.0894                 1.0950                 1.1019
 Frc consts  --      6.2240                 6.2866                 6.3602
 IR Inten    --     70.4559                 0.6731                29.5471

 - Thermochemistry -
 -------------------
 Temperature   298.150 Kelvin.  Pressure   1.00000 Atm.
 Atom     1 has atomic number  6 and mass  12.00000

 Molecular mass:   126.06808 amu.
 Principal axes and moments of inertia in atomic units:
                           1         2         3
     Eigenvalues --   494.860561304.394621570.57973
           X            0.99965   0.02632   0.00000
           Y           -0.02632   0.99965   0.00000
           Z            0.00000   0.00000   1.00000
 This molecule is an asymmetric top.
 Rotational symmetry number  1.
 Warning -- assumption of classical behavior for rotation
           may cause significant error
 Rotational temperatures (Kelvin)      0.17503     0.06640     0.05515
 Rotational constants (GHZ):           3.64697     1.38359     1.14909
 Zero-point vibrational energy     412849.1 (Joules/Mol)
                                   98.67329 (Kcal/Mol)
 Warning -- explicit consideration of  11 degrees of freedom as
           vibrations may cause significant error
 Vibrational temperatures:    118.78   230.96   249.22   334.57   347.41
          (Kelvin)            352.70   559.57   567.34   639.81   784.88
                              859.07  1003.67  1026.24  1130.40  1229.27
                             1245.64  1297.46  1298.43  1428.82  1463.29
                             1483.34  1539.24  1565.91  1590.05  1607.16
                             1671.78  1675.42  1689.09  1696.85  1732.25
                             1795.31  1857.53  1904.24  2003.03  2033.72
                             2138.06  2141.86  2143.85  2146.90  2152.22
                             2197.06  4337.46  4359.65  4389.39  4423.57
                             4452.48  4466.30  4472.28  4480.41  4491.22
                             4503.37

 Zero-point correction=                           0.157246 (Hartree/Particle)
 Thermal correction to Energy=                    0.165753
 Thermal correction to Enthalpy=                  0.166697
 Thermal correction to Gibbs Free Energy=         0.124325
 Sum of electronic and zero-point Energies=           -422.929209
 Sum of electronic and thermal Energies=              -422.920702
 Sum of electronic and thermal Enthalpies=            -422.919758
 Sum of electronic and thermal Free Energies=         -422.962130

                     E (Thermal)             CV                S
                      KCal/Mol        Cal/Mol-Kelvin    Cal/Mol-Kelvin
 Total                  104.012             32.447             89.181
 Electronic               0.000              0.000              0.000
 Translational            0.889              2.981             40.409
 Rotational               0.889              2.981             28.407
 Vibrational            102.234             26.485             20.365
 Vibration     1          0.600              1.961              3.829
 Vibration     2          0.622              1.891              2.544
 Vibration     3          0.627              1.875              2.400
 Vibration     4          0.653              1.791              1.859
 Vibration     5          0.658              1.777              1.792
 Vibration     6          0.660              1.771              1.765
 Vibration     7          0.757              1.494              1.004
 Vibration     8          0.761              1.482              0.984
 Vibration     9          0.804              1.373              0.812
 Vibration    10          0.901              1.149              0.554
 Vibration    11          0.955              1.038              0.455

 Normal termination of Gaussian 09 at Tue Jan 28 10:34:48 2020.
