 Gaussian 09, Revision D.01,
 Gaussian 09:  ES64L-G09RevD.01 24-Apr-2013

 -----------------------------
 # b3lyp 6-31G(2df,p) opt Freq
 -----------------------------

 -----
 titel
 -----
 Symbolic Z-matrix:
 Charge =  0 Multiplicity = 1

 SCF Done:  E(RB3LYP) =  -423.166473019     A.U. after   14 cycles
 Optimization completed.
    -- Stationary point found.
 Normal termination of Gaussian 09 at Mon Jan 27 16:26:23 2020.

 ----------------------------------------------------------------------
 #N Geom=AllCheck Guess=TCheck SCRF=Check GenChk RB3LYP/6-31G(2df,p) Fr
 eq
 ----------------------------------------------------------------------

 Structure from the checkpoint file:  "/scratch/puck/g09_8cced2a0-d128-4982-b29a-990559f67c0c/Gau-47374.chk"
 -----
 titel
 -----
 Charge =  0 Multiplicity = 1

                         Standard orientation:
 ---------------------------------------------------------------------
 Center     Atomic      Atomic             Coordinates (Angstroms)
 Number     Number       Type             X           Y           Z
 ---------------------------------------------------------------------
      1          6           0       -1.307133    1.613959    0.004443
      2          6           0       -0.472114    0.335565   -0.052348
      3          6           0       -1.390013   -0.867666   -0.181782
      4          8           0       -2.555651   -0.863543    0.134678
      5          6           0        0.699555    0.242361    1.027060
      6          6           0        1.537427    1.149900    0.070669
      7          6           0        0.793465    0.303704   -0.981602
      8          8           0        1.326922   -1.017313   -0.770419
      9          6           0        1.324299   -1.111343    0.677250
     10          1           0       -2.119242    1.475281    0.721797
     11          1           0       -0.734278    2.494440    0.296253
     12          1           0       -1.770638    1.816491   -0.966864
     13          1           0       -0.922144   -1.774409   -0.611941
     14          1           0        0.523916    0.475450    2.076537
     15          1           0        1.260862    2.200860    0.090527
     16          1           0        2.623872    1.037881    0.098511
     17          1           0        0.763442    0.520750   -2.048616
     18          1           0        0.741589   -1.980736    0.998243
     19          1           0        2.349541   -1.218042    1.049352
 ---------------------------------------------------------------------

 SCF Done:  E(RB3LYP) =  -423.166473019     A.U. after    1 cycles

 The electronic state is 1-A.
 Alpha  occ. eigenvalues --  -19.14705 -19.13783 -10.26337 -10.24814 -10.23703
 Alpha  occ. eigenvalues --  -10.21575 -10.20945 -10.19582 -10.18141  -1.05264
 Alpha  occ. eigenvalues --   -1.04196  -0.85244  -0.74707  -0.72941  -0.67297
 Alpha  occ. eigenvalues --   -0.59844  -0.58516  -0.54820  -0.51830  -0.50842
 Alpha  occ. eigenvalues --   -0.46571  -0.44055  -0.42562  -0.41448  -0.39721
 Alpha  occ. eigenvalues --   -0.39271  -0.38192  -0.36722  -0.36032  -0.34966
 Alpha  occ. eigenvalues --   -0.33398  -0.30761  -0.25982  -0.23874
 Alpha virt. eigenvalues --   -0.02968   0.08707   0.09601   0.11461   0.12529
 Alpha virt. eigenvalues --    0.12975   0.13455   0.13653   0.15539   0.16783
 Alpha virt. eigenvalues --    0.17177   0.18165   0.19228   0.20980   0.21285

 Mulliken charges:
               1
     1  C   -0.476186
     2  C    0.211526
     3  C    0.097958
     4  O   -0.266016
     5  C   -0.098589
     6  C   -0.248509
     7  C    0.057902
     8  O   -0.278033
     9  C   -0.102363
    10  H    0.146312
    11  H    0.114916
    12  H    0.124357
    13  H    0.106160
    14  H    0.084653
    15  H    0.114251
    16  H    0.105241
    17  H    0.087073
    18  H    0.110721
    19  H    0.108627
 Sum of Mulliken charges =   0.00000

 Dipole moment (field-independent basis, Debye):
    X=              2.1499    Y=              1.5848    Z=              0.6528  Tot=              2.7495
 Quadrupole moment (field-independent basis, Debye-Ang):
   XX=            -61.7861   YY=            -52.8636   ZZ=            -51.4187
   XY=             -1.1459   XZ=              3.1653   YZ=             -1.9552

  Exact polarizability:  85.266  -0.385  75.016   1.083  -1.702  64.572
 Approx polarizability: 125.945   0.599 107.769  -2.205  -0.593 102.513

                      1                      2                      3
                      A                      A                      A
 Frequencies --     69.8480               130.7843               192.0516
 Red. masses --      3.9404                 1.0671                 3.1884
 Frc consts  --      0.0113                 0.0108                 0.0693
 IR Inten    --      6.0393                 0.1295                 3.1371

                      4                      5                      6
                      A                      A                      A
 Frequencies --    263.1370               334.3651               351.9757
 Red. masses --      3.8238                 2.5824                 2.8256
 Frc consts  --      0.1560                 0.1701                 0.2062
 IR Inten    --      3.8126                 3.7756                 1.5806

                      7                      8                      9
                      A                      A                      A
 Frequencies --    399.9479               460.8758               498.1840
 Red. masses --      2.5068                 3.3412                 3.6953
 Frc consts  --      0.2363                 0.4181                 0.5404
 IR Inten    --      5.5796                 2.6890                 4.6483

                     10                     11                     12
                      A                      A                      A
 Frequencies --    541.0396               659.1302               742.3904
 Red. masses --      2.5296                 4.0558                 3.4439
 Frc consts  --      0.4363                 1.0382                 1.1183
 IR Inten    --      3.1783                 0.8761                 7.5565

                     13                     14                     15
                      A                      A                      A
 Frequencies --    809.9231               849.2482               873.0870
 Red. masses --      3.1595                 2.7830                 2.2119
 Frc consts  --      1.2211                 1.1826                 0.9934
 IR Inten    --      5.5665                 4.0946                 4.0882

                     16                     17                     18
                      A                      A                      A
 Frequencies --    914.1252               930.2846               945.8349
 Red. masses --      3.4548                 2.0191                 1.9331
 Frc consts  --      1.7009                 1.0295                 1.0189
 IR Inten    --     22.7079                25.6054                22.3115

                     19                     20                     21
                      A                      A                      A
 Frequencies --    967.4374               989.2318              1018.5675
 Red. masses --      2.6778                 1.7088                 1.8418
 Frc consts  --      1.4766                 0.9853                 1.1258
 IR Inten    --     36.3517                 7.6818                 1.4405

                     22                     23                     24
                      A                      A                      A
 Frequencies --   1035.6924              1073.4006              1091.1929
 Red. masses --      1.7384                 1.8448                 1.2682
 Frc consts  --      1.0987                 1.2523                 0.8897
 IR Inten    --      1.3397                21.6559                 0.8368

                     25                     26                     27
                      A                      A                      A
 Frequencies --   1129.1636              1161.1040              1176.3899
 Red. masses --      1.6607                 1.7524                 2.0649
 Frc consts  --      1.2476                 1.3920                 1.6837
 IR Inten    --      4.4235                 0.2458                 9.6462

                     28                     29                     30
                      A                      A                      A
 Frequencies --   1198.7862              1217.4184              1235.1027
 Red. masses --      1.5253                 1.8668                 1.8026
 Frc consts  --      1.2915                 1.6302                 1.6201
 IR Inten    --      2.3203                13.2793                 7.9814

                     31                     32                     33
                      A                      A                      A
 Frequencies --   1260.5979              1265.1040              1304.8775
 Red. masses --      1.5856                 1.7001                 1.9389
 Frc consts  --      1.4845                 1.6031                 1.9451
 IR Inten    --      6.3774                 1.8163                 4.4124

                     34                     35                     36
                      A                      A                      A
 Frequencies --   1365.7592              1410.7767              1425.7193
 Red. masses --      1.4123                 1.2013                 1.2263
 Frc consts  --      1.5521                 1.4087                 1.4686
 IR Inten    --      2.1370                 0.1009                13.8266

                     37                     38                     39
                      A                      A                      A
 Frequencies --   1486.1387              1493.4555              1511.2138
 Red. masses --      1.0612                 1.0753                 1.0745
 Frc consts  --      1.3810                 1.4131                 1.4458
 IR Inten    --      3.7806                 1.3424                11.1921

                     40                     41                     42
                      A                      A                      A
 Frequencies --   1536.5102              1809.1477              2944.9586
 Red. masses --      1.0943                10.4144                 1.0842
 Frc consts  --      1.5221                20.0831                 5.5402
 IR Inten    --      0.5202               163.1606                55.7707

                     43                     44                     45
                      A                      A                      A
 Frequencies --   3033.3470              3049.9517              3074.0686
 Red. masses --      1.0574                 1.0404                 1.1078
 Frc consts  --      5.7322                 5.7021                 6.1680
 IR Inten    --     59.6288                20.2241                18.2570

                     46                     47                     48
                      A                      A                      A
 Frequencies --   3082.0147              3115.3031              3129.5082
 Red. masses --      1.0662                 1.0956                 1.0891
 Frc consts  --      5.9668                 6.2649                 6.2846
 IR Inten    --     37.7366                12.9965                43.6621

                     49                     50                     51
                      A                      A                      A
 Frequencies --   3134.6579              3141.2988              3172.0879
 Red. masses --      1.0930                 1.1024                 1.0995
 Frc consts  --      6.3276                 6.4093                 6.5185
 IR Inten    --     14.6936                14.4123                18.5353

 - Thermochemistry -
 -------------------
 Temperature   298.150 Kelvin.  Pressure   1.00000 Atm.
 Atom     1 has atomic number  6 and mass  12.00000

 Molecular mass:   126.06808 amu.
 Principal axes and moments of inertia in atomic units:
                           1         2         3
     Eigenvalues --   648.902581139.537751413.42296
           X            0.99931  -0.03266   0.01750
           Y            0.03309   0.99915  -0.02466
           Z           -0.01668   0.02523   0.99954
 This molecule is an asymmetric top.
 Rotational symmetry number  1.
 Warning -- assumption of classical behavior for rotation
           may cause significant error
 Rotational temperatures (Kelvin)      0.13348     0.07601     0.06128
 Rotational constants (GHZ):           2.78122     1.58375     1.27686
 Zero-point vibrational energy     418730.2 (Joules/Mol)
                                  100.07891 (Kcal/Mol)
 Warning -- explicit consideration of  10 degrees of freedom as
           vibrations may cause significant error
 Vibrational temperatures:    100.50   188.17   276.32   378.59   481.08
          (Kelvin)            506.41   575.44   663.10   716.77   778.43
                              948.34  1068.13  1165.30  1221.88  1256.18
                             1315.22  1338.47  1360.84  1391.92  1423.28
                             1465.49  1490.13  1544.38  1569.98  1624.61
                             1670.57  1692.56  1724.78  1751.59  1777.04
                             1813.72  1820.20  1877.43  1965.02  2029.79
                             2051.29  2138.22  2148.75  2174.30  2210.69
                             2602.96  4237.13  4364.30  4388.19  4422.89
                             4434.33  4482.22  4502.66  4510.07  4519.62
                             4563.92

 Zero-point correction=                           0.159486 (Hartree/Particle)
 Thermal correction to Energy=                    0.167514
 Thermal correction to Enthalpy=                  0.168458
 Thermal correction to Gibbs Free Energy=         0.126829
 Sum of electronic and zero-point Energies=           -423.006987
 Sum of electronic and thermal Energies=              -422.998959
 Sum of electronic and thermal Enthalpies=            -422.998015
 Sum of electronic and thermal Free Energies=         -423.039644

                     E (Thermal)             CV                S
                      KCal/Mol        Cal/Mol-Kelvin    Cal/Mol-Kelvin
 Total                  105.117             31.129             87.616
 Electronic               0.000              0.000              0.000
 Translational            0.889              2.981             40.409
 Rotational               0.889              2.981             28.437
 Vibrational            103.339             25.167             18.770
 Vibration     1          0.598              1.968              4.158
 Vibration     2          0.612              1.923              2.934
 Vibration     3          0.634              1.851              2.208
 Vibration     4          0.670              1.740              1.641
 Vibration     5          0.716              1.607              1.239
 Vibration     6          0.729              1.571              1.157
 Vibration     7          0.766              1.470              0.963
 Vibration     8          0.819              1.337              0.764
 Vibration     9          0.854              1.254              0.663
 Vibration    10          0.896              1.159              0.563

 Optimization completed.
    -- Stationary point found.
 Normal termination of Gaussian 09 at Mon Jan 27 17:11:53 2020.
