 Gaussian 09, Revision D.01,
 Gaussian 09:  ES64L-G09RevD.01 24-Apr-2013

 -----------------------------
 # b3lyp 6-31G(2df,p) opt Freq
 -----------------------------

 -----
 titel
 -----
 Symbolic Z-matrix:
 Charge =  0 Multiplicity = 1

 SCF Done:  E(RB3LYP) =  -423.181526602     A.U. after   13 cycles
 Optimization completed.
    -- Stationary point found.
 Normal termination of Gaussian 09 at Mon Jan 27 12:42:26 2020.

 ----------------------------------------------------------------------
 #N Geom=AllCheck Guess=TCheck SCRF=Check GenChk RB3LYP/6-31G(2df,p) Fr
 eq
 ----------------------------------------------------------------------

 Structure from the checkpoint file:  "/scratch/puck/g09_539360b6-45e6-4a2c-a2a6-ef88a9a35459/Gau-168202.chk"
 -----
 titel
 -----
 Charge =  0 Multiplicity = 1

                         Standard orientation:
 ---------------------------------------------------------------------
 Center     Atomic      Atomic             Coordinates (Angstroms)
 Number     Number       Type             X           Y           Z
 ---------------------------------------------------------------------
      1          6           0       -0.698910   -0.641397    1.310438
      2          8           0       -0.339137    0.735977    1.382428
      3          6           0       -0.072327    1.375294    0.124687
      4          6           0        1.353570    1.019235   -0.363233
      5          6           0        1.703092   -0.452202   -0.096903
      6          8           0        0.752622   -1.409197   -0.549398
      7          6           0       -0.597006   -1.227438   -0.105137
      8          6           0       -1.369482   -0.310289   -1.032440
      9          6           0       -1.107968    0.986384   -0.910126
     10          1           0       -0.052292   -1.199490    1.999706
     11          1           0       -1.736758   -0.759858    1.650358
     12          1           0       -0.130429    2.445368    0.341217
     13          1           0        1.440611    1.257576   -1.428690
     14          1           0        2.091781    1.627113    0.172924
     15          1           0        2.634917   -0.713527   -0.607447
     16          1           0        1.878705   -0.574617    0.981020
     17          1           0       -1.028409   -2.233047   -0.093317
     18          1           0       -2.092366   -0.717292   -1.730850
     19          1           0       -1.579468    1.756015   -1.512878
 ---------------------------------------------------------------------

 SCF Done:  E(RB3LYP) =  -423.181526602     A.U. after    1 cycles

 The electronic state is 1-A.
 Alpha  occ. eigenvalues --  -19.13680 -19.13358 -10.23654 -10.23602 -10.22773
 Alpha  occ. eigenvalues --  -10.22484 -10.18495 -10.18255 -10.18092  -1.03859
 Alpha  occ. eigenvalues --   -1.01195  -0.80216  -0.79109  -0.71641  -0.67387
 Alpha  occ. eigenvalues --   -0.62432  -0.57851  -0.52667  -0.51801  -0.49787
 Alpha  occ. eigenvalues --   -0.45817  -0.44278  -0.42917  -0.42254  -0.41442
 Alpha  occ. eigenvalues --   -0.39773  -0.38898  -0.36509  -0.35225  -0.31006
 Alpha  occ. eigenvalues --   -0.29327  -0.26350  -0.24869  -0.24008
 Alpha virt. eigenvalues --    0.00106   0.08105   0.11472   0.12099   0.12804
 Alpha virt. eigenvalues --    0.13561   0.14607   0.16484   0.16485   0.17603
 Alpha virt. eigenvalues --    0.18383   0.19174   0.20477   0.21049   0.22370

 Mulliken charges:
               1
     1  C   -0.097230
     2  O   -0.278798
     3  C    0.061127
     4  C   -0.229045
     5  C   -0.062396
     6  O   -0.276561
     7  C    0.047148
     8  C   -0.073380
     9  C   -0.071404
    10  H    0.108112
    11  H    0.101130
    12  H    0.080901
    13  H    0.104602
    14  H    0.100226
    15  H    0.105476
    16  H    0.102723
    17  H    0.082408
    18  H    0.096774
    19  H    0.098187
 Sum of Mulliken charges =   0.00000

 Dipole moment (field-independent basis, Debye):
    X=             -0.3415    Y=              0.4571    Z=             -0.4561  Tot=              0.7305
 Quadrupole moment (field-independent basis, Debye-Ang):
   XX=            -50.4813   YY=            -52.3531   ZZ=            -55.1631
   XY=              2.8238   XZ=              1.6848   YZ=             -3.8813

  Exact polarizability:  75.701   4.592  79.926   3.620  -3.472  66.995
 Approx polarizability: 104.272   7.666 126.998   4.670  -0.131 101.206

                      1                      2                      3
                      A                      A                      A
 Frequencies --    185.3756               258.8417               279.2242
 Red. masses --      2.9899                 3.4371                 2.6397
 Frc consts  --      0.0605                 0.1357                 0.1213
 IR Inten    --      5.2092                 4.7542                 0.7375

                      4                      5                      6
                      A                      A                      A
 Frequencies --    343.5094               372.6256               402.9609
 Red. masses --      2.2007                 4.0033                 2.7965
 Frc consts  --      0.1530                 0.3275                 0.2675
 IR Inten    --      0.5693                 1.5151                 4.8225

                      7                      8                      9
                      A                      A                      A
 Frequencies --    495.6579               584.8370               620.9433
 Red. masses --      3.9723                 4.0165                 3.9114
 Frc consts  --      0.5750                 0.8094                 0.8886
 IR Inten    --      2.7780                 0.7364                 4.4876

                     10                     11                     12
                      A                      A                      A
 Frequencies --    689.9942               730.2326               786.4581
 Red. masses --      2.4584                 1.7518                 2.9749
 Frc consts  --      0.6896                 0.5504                 1.0841
 IR Inten    --      2.7006                10.2144                 3.0268

                     13                     14                     15
                      A                      A                      A
 Frequencies --    808.3735               848.3770               899.3705
 Red. masses --      3.1163                 3.1722                 2.5187
 Frc consts  --      1.1998                 1.3452                 1.2003
 IR Inten    --     13.9863                29.3415                 6.9954

                     16                     17                     18
                      A                      A                      A
 Frequencies --    941.4723               945.3393               979.0836
 Red. masses --      2.3068                 2.4951                 1.5233
 Frc consts  --      1.2047                 1.3138                 0.8604
 IR Inten    --     12.2086                25.5660                 1.7861

                     19                     20                     21
                      A                      A                      A
 Frequencies --    981.4324              1005.4746              1046.6644
 Red. masses --      2.6219                 2.0475                 2.8292
 Frc consts  --      1.4879                 1.2196                 1.8261
 IR Inten    --      2.9975                13.7438                 3.2624

                     22                     23                     24
                      A                      A                      A
 Frequencies --   1071.5332              1097.4917              1114.9233
 Red. masses --      2.2812                 2.3122                 2.1652
 Frc consts  --      1.5432                 1.6409                 1.5858
 IR Inten    --     14.4690                24.1903                41.6166

                     25                     26                     27
                      A                      A                      A
 Frequencies --   1136.7460              1179.6912              1228.9421
 Red. masses --      4.1062                 1.3863                 1.1885
 Frc consts  --      3.1262                 1.1367                 1.0575
 IR Inten    --    115.2550                27.9983                 6.0813

                     28                     29                     30
                      A                      A                      A
 Frequencies --   1248.5998              1286.7398              1328.8951
 Red. masses --      1.1513                 1.3637                 1.5091
 Frc consts  --      1.0576                 1.3303                 1.5702
 IR Inten    --     16.0733                10.6508                 1.0084

                     31                     32                     33
                      A                      A                      A
 Frequencies --   1332.3211              1347.8816              1363.1310
 Red. masses --      1.2248                 1.2780                 1.2432
 Frc consts  --      1.2809                 1.3680                 1.3611
 IR Inten    --      1.0824                 1.8370                 1.3182

                     34                     35                     36
                      A                      A                      A
 Frequencies --   1377.7179              1395.1274              1406.2958
 Red. masses --      1.2866                 1.6664                 1.3626
 Frc consts  --      1.4389                 1.9110                 1.5878
 IR Inten    --      3.0724                 9.6214                 1.1865

                     37                     38                     39
                      A                      A                      A
 Frequencies --   1417.4235              1476.1993              1502.0303
 Red. masses --      1.2686                 1.0901                 1.0864
 Frc consts  --      1.5017                 1.3997                 1.4440
 IR Inten    --      5.2297                 2.2803                 1.0886

                     40                     41                     42
                      A                      A                      A
 Frequencies --   1518.5522              1711.5747              3004.7194
 Red. masses --      1.0811                 6.3503                 1.0620
 Frc consts  --      1.4688                10.9606                 5.6490
 IR Inten    --      1.9518                 0.0629                29.7421

                     43                     44                     45
                      A                      A                      A
 Frequencies --   3008.4387              3033.7507              3043.4531
 Red. masses --      1.0651                 1.0609                 1.1055
 Frc consts  --      5.6799                 5.7526                 6.0330
 IR Inten    --     55.8627                19.6097                41.6473

                     46                     47                     48
                      A                      A                      A
 Frequencies --   3064.3430              3069.7854              3077.9595
 Red. masses --      1.0862                 1.0879                 1.0947
 Frc consts  --      6.0095                 6.0403                 6.1104
 IR Inten    --     56.8974                31.3249                29.0664

                     49                     50                     51
                      A                      A                      A
 Frequencies --   3086.9177              3170.4598              3196.1592
 Red. masses --      1.1026                 1.0851                 1.1019
 Frc consts  --      6.1903                 6.4266                 6.6321
 IR Inten    --     38.2035                 7.9644                20.6821

 - Thermochemistry -
 -------------------
 Temperature   298.150 Kelvin.  Pressure   1.00000 Atm.
 Atom     1 has atomic number  6 and mass  12.00000

 Molecular mass:   126.06808 amu.
 Principal axes and moments of inertia in atomic units:
                           1         2         3
     Eigenvalues --   820.78191 860.92678 998.94903
           X            0.89443   0.44670   0.02129
           Y           -0.44002   0.88756  -0.13646
           Z           -0.07985   0.11269   0.99042
 This molecule is an asymmetric top.
 Rotational symmetry number  1.
 Warning -- assumption of classical behavior for rotation
           may cause significant error
 Rotational temperatures (Kelvin)      0.10553     0.10061     0.08670
 Rotational constants (GHZ):           2.19881     2.09628     1.80664
 Zero-point vibrational energy     427689.2 (Joules/Mol)
                                  102.22017 (Kcal/Mol)
 Warning -- explicit consideration of   8 degrees of freedom as
           vibrations may cause significant error
 Vibrational temperatures:    266.71   372.41   401.74   494.23   536.12
          (Kelvin)            579.77   713.14   841.45   893.40   992.75
                             1050.64  1131.54  1163.07  1220.62  1293.99
                             1354.57  1360.13  1408.68  1412.06  1446.65
                             1505.91  1541.70  1579.04  1604.12  1635.52
                             1697.31  1768.17  1796.45  1851.33  1911.98
                             1916.91  1939.30  1961.24  1982.23  2007.27
                             2023.34  2039.35  2123.92  2161.08  2184.86
                             2462.57  4323.12  4328.47  4364.89  4378.84
                             4408.90  4416.73  4428.49  4441.38  4561.58
                             4598.55

 Zero-point correction=                           0.162898 (Hartree/Particle)
 Thermal correction to Energy=                    0.169767
 Thermal correction to Enthalpy=                  0.170712
 Thermal correction to Gibbs Free Energy=         0.132114
 Sum of electronic and zero-point Energies=           -423.018628
 Sum of electronic and thermal Energies=              -423.011759
 Sum of electronic and thermal Enthalpies=            -423.010815
 Sum of electronic and thermal Free Energies=         -423.049413

                     E (Thermal)             CV                S
                      KCal/Mol        Cal/Mol-Kelvin    Cal/Mol-Kelvin
 Total                  106.531             28.607             81.236
 Electronic               0.000              0.000              0.000
 Translational            0.889              2.981             40.409
 Rotational               0.889              2.981             28.048
 Vibrational            104.753             22.645             12.780
 Vibration     1          0.631              1.860              2.274
 Vibration     2          0.668              1.748              1.670
 Vibration     3          0.680              1.712              1.538
 Vibration     4          0.722              1.588              1.196
 Vibration     5          0.744              1.528              1.069
 Vibration     6          0.768              1.464              0.952
 Vibration     7          0.851              1.260              0.669
 Vibration     8          0.942              1.064              0.476

 Optimization completed.
    -- Stationary point found.
 Normal termination of Gaussian 09 at Mon Jan 27 13:30:15 2020.
