 Gaussian 09, Revision D.01,
 Gaussian 09:  ES64L-G09RevD.01 24-Apr-2013

 -----------------------------
 # b3lyp 6-31G(2df,p) opt Freq
 -----------------------------

 -----
 titel
 -----
 Symbolic Z-matrix:
 Charge =  0 Multiplicity = 1

 SCF Done:  E(RB3LYP) =  -423.126667607     A.U. after   14 cycles
 Optimization completed.
    -- Stationary point found.
 Normal termination of Gaussian 09 at Tue Jan 28 09:06:20 2020.

 ----------------------------------------------------------------------
 #N Geom=AllCheck Guess=TCheck SCRF=Check GenChk RB3LYP/6-31G(2df,p) Fr
 eq
 ----------------------------------------------------------------------

 Structure from the checkpoint file:  "/scratch/puck/g09_ebc4e54a-f384-4ec3-88b9-94ef5746063b/Gau-20007.chk"
 -----
 titel
 -----
 Charge =  0 Multiplicity = 1

                         Standard orientation:
 ---------------------------------------------------------------------
 Center     Atomic      Atomic             Coordinates (Angstroms)
 Number     Number       Type             X           Y           Z
 ---------------------------------------------------------------------
      1          6           0       -2.250402    0.813246   -0.620437
      2          6           0       -1.272318   -0.340955   -0.545176
      3          8           0       -1.538419   -1.227914    0.565338
      4          6           0       -0.295490   -0.897961    1.210837
      5          6           0        0.176240   -0.068373   -0.014440
      6          6           0        1.255266   -0.786143   -0.846451
      7          8           0        2.504690   -0.822140   -0.193086
      8          6           0        0.572939    1.304338    0.236167
      9          6           0        0.958256    2.427637    0.433668
     10          1           0       -1.999625    1.475155   -1.455848
     11          1           0       -3.261469    0.425475   -0.777576
     12          1           0       -2.242105    1.401748    0.300743
     13          1           0       -1.271349   -0.898612   -1.492349
     14          1           0       -0.447051   -0.317352    2.127674
     15          1           0        0.316904   -1.778777    1.431070
     16          1           0        0.952377   -1.827755   -0.993369
     17          1           0        1.320865   -0.308289   -1.836692
     18          1           0        2.763904    0.091649   -0.023286
     19          1           0        1.270436    3.426455    0.616600
 ---------------------------------------------------------------------

 SCF Done:  E(RB3LYP) =  -423.126667607     A.U. after    1 cycles

 The electronic state is 1-A.
 Alpha  occ. eigenvalues --  -19.14124 -19.13577 -10.24486 -10.23850 -10.23462
 Alpha  occ. eigenvalues --  -10.22229 -10.19487 -10.18835 -10.17950  -1.04435
 Alpha  occ. eigenvalues --   -1.02424  -0.81115  -0.75261  -0.73684  -0.67469
 Alpha  occ. eigenvalues --   -0.63983  -0.58866  -0.52758  -0.51956  -0.49751
 Alpha  occ. eigenvalues --   -0.49088  -0.46386  -0.42627  -0.41599  -0.41107
 Alpha  occ. eigenvalues --   -0.39229  -0.38106  -0.35548  -0.32911  -0.32436
 Alpha  occ. eigenvalues --   -0.28996  -0.27457  -0.26475  -0.25279
 Alpha virt. eigenvalues --    0.02958   0.03830   0.08533   0.09234   0.10273
 Alpha virt. eigenvalues --    0.11470   0.12911   0.13477   0.13998   0.16025
 Alpha virt. eigenvalues --    0.16814   0.17413   0.18028   0.19367   0.21736

 Mulliken charges:
               1
     1  C   -0.412631
     2  C    0.119187
     3  O   -0.288606
     4  C   -0.108675
     5  C    0.029677
     6  C   -0.117566
     7  O   -0.421109
     8  C    0.272164
     9  C   -0.461613
    10  H    0.121469
    11  H    0.127820
    12  H    0.128679
    13  H    0.078391
    14  H    0.107197
    15  H    0.119983
    16  H    0.119633
    17  H    0.095973
    18  H    0.288333
    19  H    0.201695
 Sum of Mulliken charges =   0.00000

 Dipole moment (field-independent basis, Debye):
    X=              0.2097    Y=              2.0320    Z=             -0.6893  Tot=              2.1560
 Quadrupole moment (field-independent basis, Debye-Ang):
   XX=            -57.3804   YY=            -51.5597   ZZ=            -51.7999
   XY=              2.5131   XZ=              2.2360   YZ=              1.6514

  Exact polarizability:  77.396   5.546  87.616   4.122   2.795  66.220
 Approx polarizability: 105.159  15.284 137.845   6.185   5.828  97.477

                      1                      2                      3
                      A                      A                      A
 Frequencies --     59.4973               110.3932               141.3874
 Red. masses --      4.0747                 3.8202                 3.2762
 Frc consts  --      0.0085                 0.0274                 0.0386
 IR Inten    --      1.6217                 2.7208                 0.0994

                      4                      5                      6
                      A                      A                      A
 Frequencies --    152.8806               201.8609               231.2379
 Red. masses --      3.0750                 2.4081                 1.2678
 Frc consts  --      0.0423                 0.0578                 0.0399
 IR Inten    --      0.8648                 1.1273                 0.1439

                      7                      8                      9
                      A                      A                      A
 Frequencies --    295.6936               322.9955               391.8882
 Red. masses --      2.5170                 2.7791                 1.4382
 Frc consts  --      0.1297                 0.1708                 0.1301
 IR Inten    --      2.8591                 2.1956                78.6546

                     10                     11                     12
                      A                      A                      A
 Frequencies --    436.4963               462.2757               521.4172
 Red. masses --      2.1275                 3.3196                 6.1097
 Frc consts  --      0.2388                 0.4180                 0.9787
 IR Inten    --     41.8860                 9.9747                 2.2651

                     13                     14                     15
                      A                      A                      A
 Frequencies --    555.5515               629.7948               654.8854
 Red. masses --      4.4564                 1.2196                 1.2398
 Frc consts  --      0.8104                 0.2850                 0.3133
 IR Inten    --      3.6447                45.5273                39.6500

                     16                     17                     18
                      A                      A                      A
 Frequencies --    675.2430               789.7313               886.6368
 Red. masses --      3.5354                 2.7849                 2.8190
 Frc consts  --      0.9497                 1.0233                 1.3057
 IR Inten    --      8.2001                 1.9066                21.5589

                     19                     20                     21
                      A                      A                      A
 Frequencies --    921.4047               938.4943               993.9215
 Red. masses --      1.9122                 1.8089                 2.1483
 Frc consts  --      0.9565                 0.9387                 1.2504
 IR Inten    --      3.2599                 2.3185                12.7469

                     22                     23                     24
                      A                      A                      A
 Frequencies --   1020.6755              1053.7035              1085.5960
 Red. masses --      4.1602                 2.5472                 2.6279
 Frc consts  --      2.5535                 1.6663                 1.8247
 IR Inten    --     48.1789                74.4675                34.5249

                     25                     26                     27
                      A                      A                      A
 Frequencies --   1110.0259              1129.2621              1153.1670
 Red. masses --      3.2479                 2.7418                 1.3837
 Frc consts  --      2.3579                 2.0601                 1.0841
 IR Inten    --     65.1739                 2.5228                 6.6818

                     28                     29                     30
                      A                      A                      A
 Frequencies --   1160.6851              1197.1881              1274.8659
 Red. masses --      1.6605                 2.0641                 1.4053
 Frc consts  --      1.3180                 1.7431                 1.3457
 IR Inten    --     13.5692                 4.1782                 1.6091

                     31                     32                     33
                      A                      A                      A
 Frequencies --   1303.8337              1348.4307              1376.9425
 Red. masses --      1.7542                 1.5195                 1.2678
 Frc consts  --      1.7570                 1.6279                 1.4162
 IR Inten    --     19.3943                 6.8546                 0.6776

                     34                     35                     36
                      A                      A                      A
 Frequencies --   1383.3958              1407.7747              1427.4079
 Red. masses --      1.2834                 1.3143                 1.2215
 Frc consts  --      1.4471                 1.5346                 1.4663
 IR Inten    --     15.9846                17.7703                53.5955

                     37                     38                     39
                      A                      A                      A
 Frequencies --   1481.0692              1489.0871              1503.0278
 Red. masses --      1.0536                 1.0478                 1.0836
 Frc consts  --      1.3616                 1.3689                 1.4424
 IR Inten    --      2.8664                 4.2822                 1.2408

                     40                     41                     42
                      A                      A                      A
 Frequencies --   1527.7346              2223.2166              2981.1027
 Red. masses --      1.0944                 5.9793                 1.0686
 Frc consts  --      1.5050                17.4127                 5.5952
 IR Inten    --      0.4088                 2.5965                37.5319

                     43                     44                     45
                      A                      A                      A
 Frequencies --   3001.3735              3028.4737              3040.5783
 Red. masses --      1.0840                 1.0557                 1.0353
 Frc consts  --      5.7534                 5.7046                 5.6394
 IR Inten    --     68.6503                44.1182                 8.4563

                     46                     47                     48
                      A                      A                      A
 Frequencies --   3077.8773              3082.9200              3112.5111
 Red. masses --      1.1046                 1.1016                 1.1011
 Frc consts  --      6.1653                 6.1686                 6.2847
 IR Inten    --     10.5057                39.5812                16.4953

                     49                     50                     51
                      A                      A                      A
 Frequencies --   3124.3441              3497.9029              3783.9684
 Red. masses --      1.1022                 1.1604                 1.0656
 Frc consts  --      6.3392                 8.3655                 8.9892
 IR Inten    --     20.4878                74.9475                23.5247

 - Thermochemistry -
 -------------------
 Temperature   298.150 Kelvin.  Pressure   1.00000 Atm.
 Atom     1 has atomic number  6 and mass  12.00000

 Molecular mass:   126.06808 amu.
 Principal axes and moments of inertia in atomic units:
                           1         2         3
     Eigenvalues --   841.091741239.187311655.97249
           X            0.99913  -0.03875   0.01540
           Y            0.03869   0.99924   0.00389
           Z           -0.01554  -0.00329   0.99987
 This molecule is an asymmetric top.
 Rotational symmetry number  1.
 Warning -- assumption of classical behavior for rotation
           may cause significant error
 Rotational temperatures (Kelvin)      0.10298     0.06990     0.05230
 Rotational constants (GHZ):           2.14571     1.45639     1.08984
 Zero-point vibrational energy     411287.1 (Joules/Mol)
                                   98.29997 (Kcal/Mol)
 Warning -- explicit consideration of  13 degrees of freedom as
           vibrations may cause significant error
 Vibrational temperatures:     85.60   158.83   203.42   219.96   290.43
          (Kelvin)            332.70   425.44   464.72   563.84   628.02
                              665.11   750.20   799.31   906.13   942.23
                              971.52  1136.25  1275.67  1325.69  1350.28
                             1430.03  1468.52  1516.04  1561.93  1597.08
                             1624.75  1659.15  1669.96  1722.48  1834.25
                             1875.92  1940.09  1981.11  1990.40  2025.47
                             2053.72  2130.93  2142.46  2162.52  2198.07
                             3198.71  4289.14  4318.30  4357.29  4374.71
                             4428.37  4435.63  4478.20  4495.23  5032.70
                             5444.28

 Zero-point correction=                           0.156651 (Hartree/Particle)
 Thermal correction to Energy=                    0.166388
 Thermal correction to Enthalpy=                  0.167332
 Thermal correction to Gibbs Free Energy=         0.121984
 Sum of electronic and zero-point Energies=           -422.970017
 Sum of electronic and thermal Energies=              -422.960279
 Sum of electronic and thermal Enthalpies=            -422.959335
 Sum of electronic and thermal Free Energies=         -423.004684

                     E (Thermal)             CV                S
                      KCal/Mol        Cal/Mol-Kelvin    Cal/Mol-Kelvin
 Total                  104.410             35.766             95.445
 Electronic               0.000              0.000              0.000
 Translational            0.889              2.981             40.409
 Rotational               0.889              2.981             28.936
 Vibrational            102.633             29.804             26.100
 Vibration     1          0.597              1.974              4.474
 Vibration     2          0.606              1.941              3.262
 Vibration     3          0.615              1.912              2.785
 Vibration     4          0.619              1.899              2.636
 Vibration     5          0.639              1.837              2.116
 Vibration     6          0.653              1.793              1.869
 Vibration     7          0.690              1.682              1.441
 Vibration     8          0.708              1.629              1.295
 Vibration     9          0.759              1.488              0.993
 Vibration    10          0.797              1.391              0.838
 Vibration    11          0.820              1.334              0.760
 Vibration    12          0.876              1.203              0.607
 Vibration    13          0.911              1.128              0.533

 Optimization completed.
    -- Stationary point found.
 Normal termination of Gaussian 09 at Tue Jan 28 09:48:46 2020.
