 Gaussian 09, Revision D.01,
 Gaussian 09:  ES64L-G09RevD.01 24-Apr-2013

 -----------------------------
 # b3lyp 6-31G(2df,p) opt Freq
 -----------------------------

 -----
 titel
 -----
 Symbolic Z-matrix:
 Charge =  0 Multiplicity = 1

 SCF Done:  E(RB3LYP) =  -423.136631526     A.U. after   14 cycles
 Optimization completed.
    -- Stationary point found.
 Normal termination of Gaussian 09 at Tue Jan 28 04:02:04 2020.

 ----------------------------------------------------------------------
 #N Geom=AllCheck Guess=TCheck SCRF=Check GenChk RB3LYP/6-31G(2df,p) Fr
 eq
 ----------------------------------------------------------------------

 Structure from the checkpoint file:  "/scratch/puck/g09_e5072ab8-5219-4341-a964-e4479a523e5d/Gau-93616.chk"
 -----
 titel
 -----
 Charge =  0 Multiplicity = 1

                         Standard orientation:
 ---------------------------------------------------------------------
 Center     Atomic      Atomic             Coordinates (Angstroms)
 Number     Number       Type             X           Y           Z
 ---------------------------------------------------------------------
      1          8           0       -1.900934   -1.468082   -0.238213
      2          6           0       -1.597491   -0.179554    0.240429
      3          6           0       -1.730352    1.045821   -0.706531
      4          6           0       -0.371086    1.556807   -0.155145
      5          6           0       -0.088427    0.118969    0.383823
      6          8           0        0.360943   -0.002386    1.710559
      7          6           0        0.775117   -0.734274   -0.571224
      8          6           0        2.179283   -0.351956   -0.481705
      9          6           0        3.323066   -0.003505   -0.345734
     10          1           0       -2.853002   -1.596811   -0.197016
     11          1           0       -2.076332    0.017234    1.208698
     12          1           0       -1.665848    0.734665   -1.752762
     13          1           0       -2.604343    1.687675   -0.580023
     14          1           0        0.344477    1.972209   -0.867519
     15          1           0       -0.494010    2.251230    0.678731
     16          1           0        1.319433    0.118627    1.706882
     17          1           0        0.650064   -1.787410   -0.299204
     18          1           0        0.417252   -0.632027   -1.601115
     19          1           0        4.341574    0.284501   -0.258928
 ---------------------------------------------------------------------

 SCF Done:  E(RB3LYP) =  -423.136631526     A.U. after    1 cycles

 The electronic state is 1-A.
 Alpha  occ. eigenvalues --  -19.14119 -19.13127 -10.23786 -10.22950 -10.20373
 Alpha  occ. eigenvalues --  -10.18753 -10.18040 -10.17741 -10.17689  -1.02874
 Alpha  occ. eigenvalues --   -1.01440  -0.83669  -0.77972  -0.71010  -0.65534
 Alpha  occ. eigenvalues --   -0.63408  -0.54783  -0.54001  -0.51585  -0.50312
 Alpha  occ. eigenvalues --   -0.47249  -0.44829  -0.44115  -0.41803  -0.40165
 Alpha  occ. eigenvalues --   -0.37069  -0.34948  -0.34361  -0.33792  -0.30426
 Alpha  occ. eigenvalues --   -0.27452  -0.27082  -0.26511  -0.25237
 Alpha virt. eigenvalues --    0.04437   0.05417   0.07250   0.10086   0.10908
 Alpha virt. eigenvalues --    0.11747   0.12548   0.15027   0.15618   0.16107
 Alpha virt. eigenvalues --    0.17960   0.18711   0.20816   0.21291   0.22101

 Mulliken charges:
               1
     1  O   -0.431866
     2  C    0.086912
     3  C   -0.274587
     4  C   -0.282639
     5  C    0.390836
     6  O   -0.486980
     7  C   -0.395560
     8  C    0.258736
     9  C   -0.424504
    10  H    0.288343
    11  H    0.084904
    12  H    0.108288
    13  H    0.098186
    14  H    0.106789
    15  H    0.109652
    16  H    0.280406
    17  H    0.151835
    18  H    0.133376
    19  H    0.197873
 Sum of Mulliken charges =   0.00000

 Dipole moment (field-independent basis, Debye):
    X=             -0.8009    Y=              0.7711    Z=             -0.7020  Tot=              1.3148
 Quadrupole moment (field-independent basis, Debye-Ang):
   XX=            -41.5602   YY=            -54.6281   ZZ=            -56.1115
   XY=              2.3758   XZ=              1.3612   YZ=              0.5125

  Exact polarizability: 101.882   4.212  66.838   1.790   0.698  62.844
 Approx polarizability: 142.878  12.759  97.632   4.655   2.297  96.149

                      1                      2                      3
                      A                      A                      A
 Frequencies --     74.6121               121.2651               134.2961
 Red. masses --      3.4732                 4.3088                 2.5632
 Frc consts  --      0.0114                 0.0373                 0.0272
 IR Inten    --      0.6116                 0.7399                 0.0099

                      4                      5                      6
                      A                      A                      A
 Frequencies --    178.6969               216.2630               282.2648
 Red. masses --      1.1278                 4.5224                 3.6850
 Frc consts  --      0.0212                 0.1246                 0.1730
 IR Inten    --    103.9840                 8.5575                 0.0475

                      7                      8                      9
                      A                      A                      A
 Frequencies --    331.9522               363.5837               370.8742
 Red. masses --      4.0469                 2.3525                 1.4971
 Frc consts  --      0.2627                 0.1832                 0.1213
 IR Inten    --      2.4654                 2.8409                43.5101

                     10                     11                     12
                      A                      A                      A
 Frequencies --    398.7810               442.7693               523.5655
 Red. masses --      1.9347                 3.5494                 3.3020
 Frc consts  --      0.1813                 0.4100                 0.5333
 IR Inten    --     42.9877                10.7583                19.4551

                     13                     14                     15
                      A                      A                      A
 Frequencies --    558.4963               622.3601               635.6341
 Red. masses --      3.9473                 1.2465                 2.4326
 Frc consts  --      0.7254                 0.2845                 0.5791
 IR Inten    --     12.9834                45.9466                 1.1672

                     16                     17                     18
                      A                      A                      A
 Frequencies --    655.8756               753.7356               800.4570
 Red. masses --      1.2378                 2.7033                 1.5457
 Frc consts  --      0.3137                 0.9049                 0.5835
 IR Inten    --     40.2684                 6.4184                 3.0812

                     19                     20                     21
                      A                      A                      A
 Frequencies --    871.4184               900.2764               936.1400
 Red. masses --      1.9095                 2.1229                 2.6280
 Frc consts  --      0.8543                 1.0137                 1.3569
 IR Inten    --      2.4537                 2.1651                 1.3529

                     22                     23                     24
                      A                      A                      A
 Frequencies --    959.1602               977.5975              1039.3626
 Red. masses --      2.6510                 2.3564                 2.7984
 Frc consts  --      1.4369                 1.3269                 1.7811
 IR Inten    --      4.8932                 5.7643                30.8172

                     25                     26                     27
                      A                      A                      A
 Frequencies --   1097.7868              1117.2065              1128.0934
 Red. masses --      1.9012                 2.5137                 1.7020
 Frc consts  --      1.3499                 1.8485                 1.2761
 IR Inten    --     21.9296                64.6622                71.5373

                     28                     29                     30
                      A                      A                      A
 Frequencies --   1166.0106              1193.2880              1228.6219
 Red. masses --      2.1713                 1.3613                 1.3162
 Frc consts  --      1.7393                 1.1420                 1.1706
 IR Inten    --     22.2816                30.0668                 6.3173

                     31                     32                     33
                      A                      A                      A
 Frequencies --   1240.4660              1263.7462              1290.0270
 Red. masses --      1.3176                 1.5653                 1.4931
 Frc consts  --      1.1946                 1.4729                 1.4639
 IR Inten    --      2.7896                12.3881                33.2932

                     34                     35                     36
                      A                      A                      A
 Frequencies --   1306.2606              1322.2180              1390.1942
 Red. masses --      1.4422                 1.5204                 1.4966
 Frc consts  --      1.4499                 1.5661                 1.7041
 IR Inten    --     33.9134                35.7081                57.8315

                     37                     38                     39
                      A                      A                      A
 Frequencies --   1436.9665              1459.8679              1478.9119
 Red. masses --      1.4843                 1.1238                 1.0881
 Frc consts  --      1.8058                 1.4111                 1.4022
 IR Inten    --      0.5838                 8.6692                 2.8606

                     40                     41                     42
                      A                      A                      A
 Frequencies --   1498.8937              2228.9020              3021.0547
 Red. masses --      1.1739                 5.9493                 1.0849
 Frc consts  --      1.5539                17.4139                 5.8337
 IR Inten    --      6.5073                 3.3164                29.0878

                     43                     44                     45
                      A                      A                      A
 Frequencies --   3050.9129              3064.7405              3072.2516
 Red. masses --      1.0588                 1.0574                 1.0594
 Frc consts  --      5.8067                 5.8518                 5.8917
 IR Inten    --      6.7449                29.8980                16.2794

                     46                     47                     48
                      A                      A                      A
 Frequencies --   3089.5668              3116.0278              3132.9139
 Red. masses --      1.1014                 1.1086                 1.1082
 Frc consts  --      6.1943                 6.3421                 6.4087
 IR Inten    --      7.2035                12.9808                33.6151

                     49                     50                     51
                      A                      A                      A
 Frequencies --   3504.5282              3760.8685              3830.7228
 Red. masses --      1.1611                 1.0654                 1.0664
 Frc consts  --      8.4021                 8.8781                 9.2200
 IR Inten    --     71.5265                36.9516                30.2291

 - Thermochemistry -
 -------------------
 Temperature   298.150 Kelvin.  Pressure   1.00000 Atm.
 Atom     1 has atomic number  8 and mass  15.99491

 Molecular mass:   126.06808 amu.
 Principal axes and moments of inertia in atomic units:
                           1         2         3
     Eigenvalues --   643.610911589.634261687.75209
           X            0.99996  -0.00590   0.00743
           Y            0.00603   0.99982  -0.01789
           Z           -0.00732   0.01794   0.99981
 This molecule is an asymmetric top.
 Rotational symmetry number  1.
 Warning -- assumption of classical behavior for rotation
           may cause significant error
 Rotational temperatures (Kelvin)      0.13457     0.05449     0.05132
 Rotational constants (GHZ):           2.80409     1.13532     1.06932
 Zero-point vibrational energy     410561.3 (Joules/Mol)
                                   98.12650 (Kcal/Mol)
 Warning -- explicit consideration of  13 degrees of freedom as
           vibrations may cause significant error
 Vibrational temperatures:    107.35   174.47   193.22   257.10   311.15
          (Kelvin)            406.12   477.60   523.12   533.60   573.76
                              637.05   753.29   803.55   895.44   914.53
                              943.66  1084.46  1151.68  1253.78  1295.30
                             1346.89  1380.02  1406.54  1495.41  1579.47
                             1607.41  1623.07  1677.63  1716.87  1767.71
                             1784.75  1818.25  1856.06  1879.42  1902.37
                             2000.18  2067.47  2100.42  2127.82  2156.57
                             3206.89  4346.62  4389.58  4409.47  4420.28
                             4445.19  4483.26  4507.56  5042.23  5411.04
                             5511.55

 Zero-point correction=                           0.156375 (Hartree/Particle)
 Thermal correction to Energy=                    0.166051
 Thermal correction to Enthalpy=                  0.166995
 Thermal correction to Gibbs Free Energy=         0.122146
 Sum of electronic and zero-point Energies=           -422.980257
 Sum of electronic and thermal Energies=              -422.970581
 Sum of electronic and thermal Enthalpies=            -422.969637
 Sum of electronic and thermal Free Energies=         -423.014485

                     E (Thermal)             CV                S
                      KCal/Mol        Cal/Mol-Kelvin    Cal/Mol-Kelvin
 Total                  104.198             36.583             94.392
 Electronic               0.000              0.000              0.000
 Translational            0.889              2.981             40.409
 Rotational               0.889              2.981             28.936
 Vibrational            102.421             30.622             25.047
 Vibration     1          0.599              1.966              4.028
 Vibration     2          0.609              1.931              3.080
 Vibration     3          0.613              1.919              2.884
 Vibration     4          0.629              1.869              2.342
 Vibration     5          0.645              1.816              1.990
 Vibration     6          0.681              1.706              1.520
 Vibration     7          0.714              1.612              1.251
 Vibration     8          0.737              1.547              1.107
 Vibration     9          0.743              1.532              1.076
 Vibration    10          0.765              1.473              0.967
 Vibration    11          0.802              1.377              0.818
 Vibration    12          0.879              1.198              0.602
 Vibration    13          0.914              1.121              0.527

 Optimization completed.
    -- Stationary point found.
 Normal termination of Gaussian 09 at Tue Jan 28 04:44:27 2020.
