 Gaussian 09, Revision D.01,
 Gaussian 09:  ES64L-G09RevD.01 24-Apr-2013

 -----------------------------
 # b3lyp 6-31G(2df,p) opt Freq
 -----------------------------

 -----
 titel
 -----
 Symbolic Z-matrix:
 Charge =  0 Multiplicity = 1

 SCF Done:  E(RB3LYP) =  -423.181039424     A.U. after   14 cycles
 Optimization completed.
    -- Stationary point found.
 Normal termination of Gaussian 09 at Tue Jan 28 00:01:29 2020.

 ----------------------------------------------------------------------
 #N Geom=AllCheck Guess=TCheck SCRF=Check GenChk RB3LYP/6-31G(2df,p) Fr
 eq
 ----------------------------------------------------------------------

 Structure from the checkpoint file:  "/scratch/puck/g09_b53a06b4-d47d-424e-b78a-5b77edef4f4e/Gau-131057.chk"
 -----
 titel
 -----
 Charge =  0 Multiplicity = 1

                         Standard orientation:
 ---------------------------------------------------------------------
 Center     Atomic      Atomic             Coordinates (Angstroms)
 Number     Number       Type             X           Y           Z
 ---------------------------------------------------------------------
      1          6           0       -2.476507   -0.789092    0.335733
      2          6           0       -1.086179   -0.676469   -0.280183
      3          6           0        0.160373   -0.918978    0.631210
      4          6           0        1.308362   -1.678205   -0.059534
      5          6           0        1.796174   -0.361034   -0.728644
      6          6           0        0.797701    0.485520    0.107608
      7          8           0        1.381575    1.505969    0.832959
      8          6           0       -0.577993    0.764207   -0.460605
      9          8           0       -1.155697    1.817171   -0.557146
     10          1           0       -2.540660   -0.221331    1.269188
     11          1           0       -3.230976   -0.387391   -0.346653
     12          1           0       -2.726361   -1.832204    0.551714
     13          1           0       -1.030494   -1.260769   -1.205667
     14          1           0       -0.065731   -1.101333    1.681398
     15          1           0        2.041790   -2.075388    0.645975
     16          1           0        1.002068   -2.485998   -0.730010
     17          1           0        2.821007   -0.084799   -0.474676
     18          1           0        1.676433   -0.289185   -1.812410
     19          1           0        0.714318    2.197591    0.941119
 ---------------------------------------------------------------------

 SCF Done:  E(RB3LYP) =  -423.181039424     A.U. after    1 cycles

 The electronic state is 1-A.
 Alpha  occ. eigenvalues --  -19.15167 -19.14049 -10.26514 -10.24358 -10.20079
 Alpha  occ. eigenvalues --  -10.19874 -10.19315 -10.19163 -10.18555  -1.05605
 Alpha  occ. eigenvalues --   -1.03027  -0.87404  -0.77602  -0.70542  -0.67128
 Alpha  occ. eigenvalues --   -0.60875  -0.57063  -0.54724  -0.50438  -0.48793
 Alpha  occ. eigenvalues --   -0.45895  -0.44680  -0.42146  -0.41580  -0.40218
 Alpha  occ. eigenvalues --   -0.38360  -0.37521  -0.36184  -0.35635  -0.33864
 Alpha  occ. eigenvalues --   -0.33036  -0.31007  -0.25679  -0.24175
 Alpha virt. eigenvalues --   -0.02153   0.07555   0.09380   0.10261   0.10471
 Alpha virt. eigenvalues --    0.11419   0.14052   0.14988   0.16187   0.16783
 Alpha virt. eigenvalues --    0.17514   0.18106   0.19973   0.21576   0.22226

 Mulliken charges:
               1
     1  C   -0.405105
     2  C   -0.102545
     3  C   -0.112857
     4  C   -0.226356
     5  C   -0.282897
     6  C    0.329018
     7  O   -0.470055
     8  C    0.302259
     9  O   -0.332411
    10  H    0.123448
    11  H    0.135123
    12  H    0.119705
    13  H    0.094926
    14  H    0.083283
    15  H    0.110648
    16  H    0.100496
    17  H    0.128688
    18  H    0.110677
    19  H    0.293954
 Sum of Mulliken charges =   0.00000

 Dipole moment (field-independent basis, Debye):
    X=              0.0791    Y=             -2.3321    Z=              0.1368  Tot=              2.3375
 Quadrupole moment (field-independent basis, Debye-Ang):
   XX=            -55.1814   YY=            -55.3869   ZZ=            -52.1616
   XY=              1.3343   XZ=             -2.3239   YZ=              2.0937

  Exact polarizability:  84.783  -2.240  80.650  -0.149  -0.079  62.958
 Approx polarizability: 114.098  -6.537 124.393   3.886  -1.526  98.769

                      1                      2                      3
                      A                      A                      A
 Frequencies --     65.2311               138.7596               189.2290
 Red. masses --      4.1139                 2.9425                 1.1606
 Frc consts  --      0.0103                 0.0334                 0.0245
 IR Inten    --      1.3628                 5.9876                 0.7843

                      4                      5                      6
                      A                      A                      A
 Frequencies --    206.6834               243.8578               253.1694
 Red. masses --      2.0936                 2.8543                 2.4818
 Frc consts  --      0.0527                 0.1000                 0.0937
 IR Inten    --      1.3589                10.3788                16.1268

                      7                      8                      9
                      A                      A                      A
 Frequencies --    344.5530               355.5047               410.2597
 Red. masses --      3.6549                 2.7377                 1.5074
 Frc consts  --      0.2556                 0.2039                 0.1495
 IR Inten    --      4.5027                21.2067                33.6058

                     10                     11                     12
                      A                      A                      A
 Frequencies --    490.5863               537.5580               671.7631
 Red. masses --      4.4051                 3.4307                 3.7281
 Frc consts  --      0.6247                 0.5841                 0.9912
 IR Inten    --      3.2968                 1.0446                 1.5565

                     13                     14                     15
                      A                      A                      A
 Frequencies --    724.2141               763.3753               784.1370
 Red. masses --      1.8420                 2.8933                 2.1189
 Frc consts  --      0.5692                 0.9934                 0.7676
 IR Inten    --      1.8882                 7.5277                 1.3185

                     16                     17                     18
                      A                      A                      A
 Frequencies --    827.6618               877.8419               951.0294
 Red. masses --      2.7489                 2.6337                 3.1834
 Frc consts  --      1.1095                 1.1958                 1.6964
 IR Inten    --      1.8647                 7.4703                30.5385

                     19                     20                     21
                      A                      A                      A
 Frequencies --    957.5530               968.4634               994.0988
 Red. masses --      2.3544                 2.2207                 1.9619
 Frc consts  --      1.2719                 1.2272                 1.1423
 IR Inten    --     11.6217                 4.0930                 2.8717

                     22                     23                     24
                      A                      A                      A
 Frequencies --   1025.0116              1058.8160              1077.7455
 Red. masses --      1.4030                 1.6012                 2.1159
 Frc consts  --      0.8685                 1.0576                 1.4480
 IR Inten    --     14.6223                 3.2977                27.0826

                     25                     26                     27
                      A                      A                      A
 Frequencies --   1108.6418              1144.7116              1162.5588
 Red. masses --      1.7728                 2.2663                 2.0445
 Frc consts  --      1.2838                 1.7497                 1.6281
 IR Inten    --     61.6120                21.2414                20.6471

                     28                     29                     30
                      A                      A                      A
 Frequencies --   1208.2372              1233.0355              1248.1226
 Red. masses --      1.3594                 1.5002                 1.4055
 Frc consts  --      1.1693                 1.3438                 1.2900
 IR Inten    --      3.4332                11.3742                 0.7813

                     31                     32                     33
                      A                      A                      A
 Frequencies --   1269.5096              1285.6828              1334.3095
 Red. masses --      1.5593                 1.3581                 2.5061
 Frc consts  --      1.4807                 1.3227                 2.6288
 IR Inten    --      0.7252                 1.6625                10.9431

                     34                     35                     36
                      A                      A                      A
 Frequencies --   1351.6868              1388.5683              1408.7141
 Red. masses --      2.1896                 1.5162                 1.2140
 Frc consts  --      2.3571                 1.7224                 1.4195
 IR Inten    --     51.5620                58.3818                 1.4589

                     37                     38                     39
                      A                      A                      A
 Frequencies --   1470.6088              1492.5057              1493.2130
 Red. masses --      1.0863                 1.0805                 1.0481
 Frc consts  --      1.3842                 1.4181                 1.3769
 IR Inten    --      1.7533                 1.1602                 5.0580

                     40                     41                     42
                      A                      A                      A
 Frequencies --   1495.6536              1836.4352              3039.7629
 Red. masses --      1.0758                12.6357                 1.0346
 Frc consts  --      1.4178                25.1074                 5.6325
 IR Inten    --      4.5107               261.9526                22.3645

                     43                     44                     45
                      A                      A                      A
 Frequencies --   3042.1430              3058.0567              3069.5712
 Red. masses --      1.0832                 1.0583                 1.0613
 Frc consts  --      5.9061                 5.8311                 5.8917
 IR Inten    --      8.5966                37.7895                28.9365

                     46                     47                     48
                      A                      A                      A
 Frequencies --   3104.4695              3110.4857              3115.4696
 Red. masses --      1.1063                 1.1020                 1.1011
 Frc consts  --      6.2818                 6.2817                 6.2969
 IR Inten    --      7.8933                19.2720                 8.7952

                     49                     50                     51
                      A                      A                      A
 Frequencies --   3121.3571              3131.3313              3750.9198
 Red. masses --      1.0914                 1.1059                 1.0655
 Frc consts  --      6.2653                 6.3886                 8.8322
 IR Inten    --     24.0338                22.4725                33.3240

 - Thermochemistry -
 -------------------
 Temperature   298.150 Kelvin.  Pressure   1.00000 Atm.
 Atom     1 has atomic number  6 and mass  12.00000

 Molecular mass:   126.06808 amu.
 Principal axes and moments of inertia in atomic units:
                           1         2         3
     Eigenvalues --   795.081861060.840191542.92495
           X            0.99912   0.03254  -0.02638
           Y           -0.03226   0.99942   0.01120
           Z            0.02673  -0.01034   0.99959
 This molecule is an asymmetric top.
 Rotational symmetry number  1.
 Warning -- assumption of classical behavior for rotation
           may cause significant error
 Rotational temperatures (Kelvin)      0.10894     0.08165     0.05614
 Rotational constants (GHZ):           2.26988     1.70124     1.16969
 Zero-point vibrational energy     415061.5 (Joules/Mol)
                                   99.20208 (Kcal/Mol)
 Warning -- explicit consideration of  11 degrees of freedom as
           vibrations may cause significant error
 Vibrational temperatures:     93.85   199.64   272.26   297.37   350.86
          (Kelvin)            364.25   495.73   511.49   590.27   705.84
                              773.43   966.52  1041.98  1098.33  1128.20
                             1190.82  1263.02  1368.32  1377.70  1393.40
                             1430.28  1474.76  1523.40  1550.63  1595.09
                             1646.98  1672.66  1738.38  1774.06  1795.77
                             1826.54  1849.81  1919.77  1944.77  1997.84
                             2026.82  2115.88  2147.38  2148.40  2151.91
                             2642.22  4373.54  4376.96  4399.86  4416.42
                             4466.63  4475.29  4482.46  4490.93  4505.28
                             5396.73

 Zero-point correction=                           0.158089 (Hartree/Particle)
 Thermal correction to Energy=                    0.166920
 Thermal correction to Enthalpy=                  0.167865
 Thermal correction to Gibbs Free Energy=         0.124620
 Sum of electronic and zero-point Energies=           -423.022951
 Sum of electronic and thermal Energies=              -423.014119
 Sum of electronic and thermal Enthalpies=            -423.013175
 Sum of electronic and thermal Free Energies=         -423.056419

                     E (Thermal)             CV                S
                      KCal/Mol        Cal/Mol-Kelvin    Cal/Mol-Kelvin
 Total                  104.744             33.349             91.016
 Electronic               0.000              0.000              0.000
 Translational            0.889              2.981             40.409
 Rotational               0.889              2.981             28.655
 Vibrational            102.967             27.387             21.952
 Vibration     1          0.597              1.971              4.292
 Vibration     2          0.614              1.915              2.821
 Vibration     3          0.633              1.855              2.235
 Vibration     4          0.641              1.830              2.073
 Vibration     5          0.659              1.773              1.775
 Vibration     6          0.664              1.757              1.708
 Vibration     7          0.723              1.586              1.191
 Vibration     8          0.731              1.564              1.142
 Vibration     9          0.774              1.448              0.926
 Vibration    10          0.846              1.271              0.682
 Vibration    11          0.893              1.167              0.571

 Optimization completed.
    -- Stationary point found.
 Normal termination of Gaussian 09 at Tue Jan 28 00:43:02 2020.
