 Gaussian 09, Revision D.01,
 Gaussian 09:  ES64L-G09RevD.01 24-Apr-2013

 -----------------------------
 # b3lyp 6-31G(2df,p) opt Freq
 -----------------------------

 -----
 titel
 -----
 Symbolic Z-matrix:
 Charge =  0 Multiplicity = 1

 SCF Done:  E(RB3LYP) =  -423.161936758     A.U. after   14 cycles
 Optimization completed.
    -- Stationary point found.
 Normal termination of Gaussian 09 at Mon Jan 27 12:04:05 2020.

 ----------------------------------------------------------------------
 #N Geom=AllCheck Guess=TCheck SCRF=Check GenChk RB3LYP/6-31G(2df,p) Fr
 eq
 ----------------------------------------------------------------------

 Structure from the checkpoint file:  "/scratch/puck/g09_13b5119c-1845-4aaf-920f-7a31586d4556/Gau-18030.chk"
 -----
 titel
 -----
 Charge =  0 Multiplicity = 1

                         Standard orientation:
 ---------------------------------------------------------------------
 Center     Atomic      Atomic             Coordinates (Angstroms)
 Number     Number       Type             X           Y           Z
 ---------------------------------------------------------------------
      1          6           0        2.015734   -0.198486    0.904436
      2          8           0        2.386674    0.192289   -0.413589
      3          6           0        0.979949    0.096665   -0.104807
      4          6           0        0.256428   -1.032795   -0.816282
      5          6           0       -0.942401   -1.585241   -0.028342
      6          8           0       -1.660569   -0.614011    0.707632
      7          6           0       -2.083094    0.525494   -0.016904
      8          6           0       -1.029885    1.604208   -0.118095
      9          6           0        0.288910    1.415444   -0.095318
     10          1           0        2.226853   -1.235356    1.167139
     11          1           0        2.225148    0.527919    1.688475
     12          1           0       -0.071412   -0.659352   -1.793179
     13          1           0        0.963550   -1.845446   -1.010830
     14          1           0       -1.613690   -2.122392   -0.718706
     15          1           0       -0.600097   -2.302823    0.724124
     16          1           0       -2.459498    0.242148   -1.015556
     17          1           0       -2.942724    0.926689    0.532521
     18          1           0       -1.412010    2.621444   -0.165391
     19          1           0        0.961192    2.269201   -0.109061
 ---------------------------------------------------------------------

 SCF Done:  E(RB3LYP) =  -423.161936758     A.U. after    1 cycles

 The electronic state is 1-A.
 Alpha  occ. eigenvalues --  -19.14794 -19.14119 -10.24496 -10.23623 -10.23315
 Alpha  occ. eigenvalues --  -10.23204 -10.18859 -10.18710 -10.18564  -1.06860
 Alpha  occ. eigenvalues --   -1.03480  -0.79816  -0.77964  -0.69015  -0.66741
 Alpha  occ. eigenvalues --   -0.64989  -0.57734  -0.54390  -0.50530  -0.48272
 Alpha  occ. eigenvalues --   -0.47618  -0.47576  -0.44228  -0.42291  -0.41053
 Alpha  occ. eigenvalues --   -0.40411  -0.36840  -0.36498  -0.34811  -0.31888
 Alpha  occ. eigenvalues --   -0.31081  -0.27174  -0.25588  -0.24282
 Alpha virt. eigenvalues --    0.00611   0.07313   0.10614   0.10752   0.12506
 Alpha virt. eigenvalues --    0.13021   0.13278   0.14412   0.16397   0.16657
 Alpha virt. eigenvalues --    0.17803   0.17850   0.18544   0.20332   0.21685

 Mulliken charges:
               1
     1  C   -0.223007
     2  O   -0.288428
     3  C    0.407439
     4  C   -0.335412
     5  C   -0.069580
     6  O   -0.234722
     7  C   -0.150660
     8  C   -0.074656
     9  C   -0.102026
    10  H    0.110717
    11  H    0.114258
    12  H    0.113605
    13  H    0.115071
    14  H    0.090157
    15  H    0.110787
    16  H    0.101618
    17  H    0.118070
    18  H    0.094433
    19  H    0.102336
 Sum of Mulliken charges =   0.00000

 Dipole moment (field-independent basis, Debye):
    X=             -1.1506    Y=             -0.2725    Z=             -0.0596  Tot=              1.1839
 Quadrupole moment (field-independent basis, Debye-Ang):
   XX=            -56.4911   YY=            -49.1484   ZZ=            -54.1526
   XY=             -2.9761   XZ=              5.6593   YZ=              1.0228

  Exact polarizability:  93.479  -5.777  78.675   6.691   0.093  60.648
 Approx polarizability: 138.869  -9.648 107.451   6.393  -2.342  96.623

                      1                      2                      3
                      A                      A                      A
 Frequencies --     73.4143               154.9657               251.1475
 Red. masses --      3.3674                 2.2385                 4.1015
 Frc consts  --      0.0107                 0.0317                 0.1524
 IR Inten    --      3.1769                 0.4170                 4.8499

                      4                      5                      6
                      A                      A                      A
 Frequencies --    262.9147               320.8438               371.3312
 Red. masses --      2.6579                 2.8951                 3.2038
 Frc consts  --      0.1082                 0.1756                 0.2603
 IR Inten    --      0.2807                 2.2146                 4.0684

                      7                      8                      9
                      A                      A                      A
 Frequencies --    383.3877               407.1411               513.9913
 Red. masses --      2.5585                 4.4814                 2.3387
 Frc consts  --      0.2216                 0.4377                 0.3640
 IR Inten    --      1.2021                 1.5278                 3.9618

                     10                     11                     12
                      A                      A                      A
 Frequencies --    582.1035               687.4448               737.4885
 Red. masses --      3.7765                 2.8063                 1.7708
 Frc consts  --      0.7540                 0.7814                 0.5675
 IR Inten    --     12.3044                12.8307                18.3693

                     13                     14                     15
                      A                      A                      A
 Frequencies --    762.2727               831.6663               869.8626
 Red. masses --      2.4049                 3.3694                 2.8252
 Frc consts  --      0.8233                 1.3731                 1.2595
 IR Inten    --      2.2619                10.7218                 7.5444

                     16                     17                     18
                      A                      A                      A
 Frequencies --    897.7470               919.7074               953.1713
 Red. masses --      2.2966                 2.4304                 2.4348
 Frc consts  --      1.0905                 1.2112                 1.3033
 IR Inten    --      5.3897                 4.0068                26.4529

                     19                     20                     21
                      A                      A                      A
 Frequencies --    958.0777               998.1120              1031.7732
 Red. masses --      2.2130                 1.2155                 2.7560
 Frc consts  --      1.1968                 0.7134                 1.7286
 IR Inten    --     12.2794                 0.5043                 5.8413

                     22                     23                     24
                      A                      A                      A
 Frequencies --   1039.0915              1099.5569              1131.9336
 Red. masses --      2.0130                 2.0126                 1.2969
 Frc consts  --      1.2806                 1.4336                 0.9790
 IR Inten    --      6.4729                19.9473                 1.9369

                     25                     26                     27
                      A                      A                      A
 Frequencies --   1150.3268              1165.4140              1199.0045
 Red. masses --      2.2487                 1.6354                 1.4032
 Frc consts  --      1.7531                 1.3087                 1.1885
 IR Inten    --     67.1325                34.6531                 5.0407

                     28                     29                     30
                      A                      A                      A
 Frequencies --   1232.8744              1264.7426              1285.3962
 Red. masses --      1.4798                 1.2168                 1.6461
 Frc consts  --      1.3252                 1.1468                 1.6024
 IR Inten    --     19.5536                14.9337                 4.3490

                     31                     32                     33
                      A                      A                      A
 Frequencies --   1319.3551              1363.4865              1376.7255
 Red. masses --      1.2577                 2.0134                 1.5630
 Frc consts  --      1.2898                 2.2053                 1.7454
 IR Inten    --      8.7964                14.9621                 3.8911

                     34                     35                     36
                      A                      A                      A
 Frequencies --   1391.9221              1417.3890              1432.3735
 Red. masses --      1.2556                 1.5183                 1.6099
 Frc consts  --      1.4333                 1.7972                 1.9461
 IR Inten    --      5.2162                10.5939                 0.1939

                     37                     38                     39
                      A                      A                      A
 Frequencies --   1478.5074              1487.3122              1502.8816
 Red. masses --      1.0999                 1.0798                 1.0985
 Frc consts  --      1.4166                 1.4073                 1.4619
 IR Inten    --      3.0396                 4.4142                 2.5605

                     40                     41                     42
                      A                      A                      A
 Frequencies --   1526.1094              1723.4330              2951.5959
 Red. masses --      1.2575                 7.3861                 1.0711
 Frc consts  --      1.7255                12.9256                 5.4981
 IR Inten    --      2.0867                 0.6125                41.4970

                     43                     44                     45
                      A                      A                      A
 Frequencies --   2968.7166              3041.0712              3051.7417
 Red. masses --      1.0710                 1.0628                 1.0892
 Frc consts  --      5.5615                 5.7913                 5.9766
 IR Inten    --     76.9797                19.5163                32.4748

                     46                     47                     48
                      A                      A                      A
 Frequencies --   3070.0169              3074.7932              3093.3577
 Red. masses --      1.0910                 1.0513                 1.1004
 Frc consts  --      6.0581                 5.8562                 6.2037
 IR Inten    --      9.5139                27.9225                34.6192

                     49                     50                     51
                      A                      A                      A
 Frequencies --   3148.9049              3161.9476              3173.8992
 Red. masses --      1.0844                 1.1188                 1.0953
 Frc consts  --      6.3352                 6.5907                 6.5010
 IR Inten    --      7.3350                19.1482                16.8799

 - Thermochemistry -
 -------------------
 Temperature   298.150 Kelvin.  Pressure   1.00000 Atm.
 Atom     1 has atomic number  6 and mass  12.00000

 Molecular mass:   126.06808 amu.
 Principal axes and moments of inertia in atomic units:
                           1         2         3
     Eigenvalues --   630.773641229.535221576.96076
           X            0.99943  -0.02035   0.02711
           Y            0.01985   0.99963   0.01873
           Z           -0.02748  -0.01818   0.99946
 This molecule is an asymmetric top.
 Rotational symmetry number  1.
 Warning -- assumption of classical behavior for rotation
           may cause significant error
 Rotational temperatures (Kelvin)      0.13731     0.07044     0.05492
 Rotational constants (GHZ):           2.86116     1.46782     1.14444
 Zero-point vibrational energy     420442.2 (Joules/Mol)
                                  100.48809 (Kcal/Mol)
 Warning -- explicit consideration of  10 degrees of freedom as
           vibrations may cause significant error
 Vibrational temperatures:    105.63   222.96   361.34   378.28   461.62
          (Kelvin)            534.26   551.61   585.78   739.52   837.52
                              989.08  1061.08  1096.74  1196.58  1251.54
                             1291.66  1323.25  1371.40  1378.46  1436.06
                             1484.49  1495.02  1582.02  1628.60  1655.06
                             1676.77  1725.10  1773.83  1819.68  1849.40
                             1898.26  1961.75  1980.80  2002.66  2039.30
                             2060.86  2127.24  2139.91  2162.31  2195.73
                             2479.63  4246.68  4271.32  4375.42  4390.77
                             4417.06  4423.94  4450.65  4530.57  4549.33
                             4566.53

 Zero-point correction=                           0.160138 (Hartree/Particle)
 Thermal correction to Energy=                    0.168034
 Thermal correction to Enthalpy=                  0.168978
 Thermal correction to Gibbs Free Energy=         0.127677
 Sum of electronic and zero-point Energies=           -423.001799
 Sum of electronic and thermal Energies=              -422.993903
 Sum of electronic and thermal Enthalpies=            -422.992959
 Sum of electronic and thermal Free Energies=         -423.034260

                     E (Thermal)             CV                S
                      KCal/Mol        Cal/Mol-Kelvin    Cal/Mol-Kelvin
 Total                  105.443             30.831             86.925
 Electronic               0.000              0.000              0.000
 Translational            0.889              2.981             40.409
 Rotational               0.889              2.981             28.594
 Vibrational            103.665             24.869             17.923
 Vibration     1          0.599              1.967              4.060
 Vibration     2          0.620              1.897              2.610
 Vibration     3          0.663              1.761              1.723
 Vibration     4          0.670              1.741              1.642
 Vibration     5          0.706              1.634              1.306
 Vibration     6          0.743              1.531              1.074
 Vibration     7          0.753              1.506              1.026
 Vibration     8          0.772              1.455              0.937
 Vibration     9          0.869              1.219              0.624
 Vibration    10          0.939              1.070              0.481

 Normal termination of Gaussian 09 at Mon Jan 27 12:54:06 2020.
