 Gaussian 09, Revision D.01,
 Gaussian 09:  ES64L-G09RevD.01 24-Apr-2013

 -----------------------------
 # b3lyp 6-31G(2df,p) opt Freq
 -----------------------------

 -----
 titel
 -----
 Symbolic Z-matrix:
 Charge =  0 Multiplicity = 1

 SCF Done:  E(RB3LYP) =  -423.171874790     A.U. after   14 cycles
 Optimization completed.
    -- Stationary point found.
 Normal termination of Gaussian 09 at Mon Jan 27 16:50:51 2020.

 ----------------------------------------------------------------------
 #N Geom=AllCheck Guess=TCheck SCRF=Check GenChk RB3LYP/6-31G(2df,p) Fr
 eq
 ----------------------------------------------------------------------

 Structure from the checkpoint file:  "/scratch/puck/g09_c3f417b5-90bd-4504-93ac-a884efe0cee1/Gau-166716.chk"
 -----
 titel
 -----
 Charge =  0 Multiplicity = 1

                         Standard orientation:
 ---------------------------------------------------------------------
 Center     Atomic      Atomic             Coordinates (Angstroms)
 Number     Number       Type             X           Y           Z
 ---------------------------------------------------------------------
      1          6           0       -0.382534    2.015511    0.046932
      2          6           0       -0.155534    0.509850    0.028085
      3          8           0       -0.267075   -0.075611    1.363834
      4          6           0       -1.394516   -0.908091    1.025441
      5          6           0       -1.377233   -0.333747   -0.393730
      6          8           0       -2.022548   -0.464237   -1.388097
      7          6           0        1.138189    0.120270   -0.657187
      8          6           0        2.429455    0.119182    0.122330
      9          6           0        1.828034   -1.181992   -0.347069
     10          1           0       -1.320525    2.266768    0.549405
     11          1           0        0.439546    2.507574    0.574871
     12          1           0       -0.421060    2.402814   -0.975774
     13          1           0       -1.176076   -1.981378    1.096179
     14          1           0       -2.289069   -0.679551    1.618104
     15          1           0        1.186406    0.464056   -1.686459
     16          1           0        3.323224    0.490623   -0.366030
     17          1           0        2.366850    0.330749    1.183745
     18          1           0        2.302834   -1.713213   -1.164068
     19          1           0        1.389695   -1.815557    0.415323
 ---------------------------------------------------------------------

 SCF Done:  E(RB3LYP) =  -423.171874790     A.U. after    1 cycles

 The electronic state is 1-A.
 Alpha  occ. eigenvalues --  -19.15181 -19.14877 -10.27809 -10.24933 -10.24232
 Alpha  occ. eigenvalues --  -10.19938 -10.18857 -10.18807 -10.18688  -1.06881
 Alpha  occ. eigenvalues --   -1.04306  -0.86182  -0.76751  -0.71436  -0.66188
 Alpha  occ. eigenvalues --   -0.60425  -0.59920  -0.52744  -0.49659  -0.49507
 Alpha  occ. eigenvalues --   -0.47177  -0.47031  -0.44381  -0.41203  -0.40496
 Alpha  occ. eigenvalues --   -0.39775  -0.38096  -0.36833  -0.36445  -0.34038
 Alpha  occ. eigenvalues --   -0.30419  -0.29848  -0.26810  -0.24627
 Alpha virt. eigenvalues --   -0.02727   0.06609   0.09466   0.09892   0.11404
 Alpha virt. eigenvalues --    0.12330   0.13943   0.15160   0.16513   0.17198
 Alpha virt. eigenvalues --    0.18131   0.19226   0.19789   0.21667   0.22572

 Mulliken charges:
               1
     1  C   -0.431757
     2  C    0.245846
     3  O   -0.323606
     4  C   -0.198513
     5  C    0.325302
     6  O   -0.285312
     7  C   -0.013972
     8  C   -0.271169
     9  C   -0.278991
    10  H    0.122653
    11  H    0.134788
    12  H    0.133041
    13  H    0.131277
    14  H    0.133373
    15  H    0.098300
    16  H    0.113756
    17  H    0.129487
    18  H    0.113564
    19  H    0.121931
 Sum of Mulliken charges =   0.00000

 Dipole moment (field-independent basis, Debye):
    X=              0.9048    Y=              0.3346    Z=              0.6374  Tot=              1.1563
 Quadrupole moment (field-independent basis, Debye-Ang):
   XX=            -54.2001   YY=            -50.4758   ZZ=            -56.8389
   XY=             -0.0051   XZ=             -6.5403   YZ=             -1.9406

  Exact polarizability:  82.825   2.643  74.441  -1.251  -2.112  69.535
 Approx polarizability: 112.022   5.370 104.755   6.044  -2.243 112.361

                      1                      2                      3
                      A                      A                      A
 Frequencies --     75.8224               105.9490               132.4481
 Red. masses --      2.9944                 3.1758                 3.3090
 Frc consts  --      0.0101                 0.0210                 0.0342
 IR Inten    --      1.2248                 5.4192                 0.0839

                      4                      5                      6
                      A                      A                      A
 Frequencies --    194.5607               215.5596               238.8074
 Red. masses --      1.1757                 2.4011                 3.1598
 Frc consts  --      0.0262                 0.0657                 0.1062
 IR Inten    --      0.6880                 1.2704                 2.5647

                      7                      8                      9
                      A                      A                      A
 Frequencies --    306.8531               373.1385               458.8329
 Red. masses --      4.0008                 2.8872                 3.3547
 Frc consts  --      0.2220                 0.2368                 0.4161
 IR Inten    --      2.1666                 3.1671                 6.2686

                     10                     11                     12
                      A                      A                      A
 Frequencies --    541.6286               562.2487               632.9145
 Red. masses --      2.2359                 3.2833                 3.7424
 Frc consts  --      0.3865                 0.6115                 0.8833
 IR Inten    --      1.6557                 8.4143                 0.3732

                     13                     14                     15
                      A                      A                      A
 Frequencies --    724.8121               791.1696               826.2900
 Red. masses --      3.4962                 1.1109                 1.2479
 Frc consts  --      1.0822                 0.4097                 0.5020
 IR Inten    --      0.6452                 0.7359                 8.2244

                     16                     17                     18
                      A                      A                      A
 Frequencies --    850.4655               866.8346               922.5823
 Red. masses --      2.7737                 2.7365                 2.9035
 Frc consts  --      1.1820                 1.2115                 1.4560
 IR Inten    --      1.7649                16.1587                 3.3875

                     19                     20                     21
                      A                      A                      A
 Frequencies --    963.8909               977.6812              1008.6911
 Red. masses --      2.6163                 2.2534                 7.0110
 Frc consts  --      1.4322                 1.2690                 4.2028
 IR Inten    --      9.6971                11.0670                88.9234

                     22                     23                     24
                      A                      A                      A
 Frequencies --   1040.2512              1053.6799              1070.5240
 Red. masses --      2.7936                 1.5632                 1.3673
 Frc consts  --      1.7811                 1.0225                 0.9232
 IR Inten    --     50.7282                12.9819                 9.5639

                     25                     26                     27
                      A                      A                      A
 Frequencies --   1091.5517              1133.6634              1136.1078
 Red. masses --      1.3705                 1.2003                 1.4404
 Frc consts  --      0.9621                 0.9089                 1.0954
 IR Inten    --      1.1824                 4.3714                 8.6072

                     28                     29                     30
                      A                      A                      A
 Frequencies --   1149.5452              1195.0334              1204.8896
 Red. masses --      1.7763                 1.7286                 1.9570
 Frc consts  --      1.3830                 1.4544                 1.6739
 IR Inten    --     12.8504                 8.1763                10.2338

                     31                     32                     33
                      A                      A                      A
 Frequencies --   1223.4488              1248.5203              1296.0773
 Red. masses --      2.2066                 2.4761                 1.4953
 Frc consts  --      1.9460                 2.2741                 1.4799
 IR Inten    --      5.6232                 4.7061                 2.2554

                     34                     35                     36
                      A                      A                      A
 Frequencies --   1389.4482              1399.2731              1456.6367
 Red. masses --      1.7617                 1.2377                 1.0911
 Frc consts  --      2.0039                 1.4278                 1.3640
 IR Inten    --      3.3438                 4.6249                 1.8833

                     37                     38                     39
                      A                      A                      A
 Frequencies --   1478.0905              1481.0063              1488.4300
 Red. masses --      1.0928                 1.0591                 1.0574
 Frc consts  --      1.4066                 1.3687                 1.3803
 IR Inten    --      6.0607                 3.5451                 2.1020

                     40                     41                     42
                      A                      A                      A
 Frequencies --   1499.0805              1920.7003              3016.7139
 Red. masses --      1.4058                12.8983                 1.0548
 Frc consts  --      1.8613                28.0351                 5.6560
 IR Inten    --      1.6967               248.7254                31.2220

                     43                     44                     45
                      A                      A                      A
 Frequencies --   3041.4590              3064.1100              3118.9915
 Red. masses --      1.0339                 1.1078                 1.1015
 Frc consts  --      5.6348                 6.1282                 6.3136
 IR Inten    --     11.1560                17.7372                 8.7097

                     46                     47                     48
                      A                      A                      A
 Frequencies --   3120.6946              3138.4851              3141.2714
 Red. masses --      1.1027                 1.0507                 1.0576
 Frc consts  --      6.3272                 6.0978                 6.1486
 IR Inten    --     18.2426                15.5029                10.6513

                     49                     50                     51
                      A                      A                      A
 Frequencies --   3152.5840              3221.0694              3234.8073
 Red. masses --      1.0878                 1.1179                 1.1158
 Frc consts  --      6.3701                 6.8338                 6.8791
 IR Inten    --      6.8850                 0.1722                13.0654

 - Thermochemistry -
 -------------------
 Temperature   298.150 Kelvin.  Pressure   1.00000 Atm.
 Atom     1 has atomic number  6 and mass  12.00000

 Molecular mass:   126.06808 amu.
 Principal axes and moments of inertia in atomic units:
                           1         2         3
     Eigenvalues --   732.965751315.245371385.80258
           X            0.99904  -0.01953  -0.03912
           Y            0.01521   0.99406  -0.10778
           Z            0.04100   0.10708   0.99340
 This molecule is an asymmetric top.
 Rotational symmetry number  1.
 Warning -- assumption of classical behavior for rotation
           may cause significant error
 Rotational temperatures (Kelvin)      0.11817     0.06585     0.06250
 Rotational constants (GHZ):           2.46224     1.37217     1.30231
 Zero-point vibrational energy     412576.0 (Joules/Mol)
                                   98.60804 (Kcal/Mol)
 Warning -- explicit consideration of  11 degrees of freedom as
           vibrations may cause significant error
 Vibrational temperatures:    109.09   152.44   190.56   279.93   310.14
          (Kelvin)            343.59   441.49   536.86   660.16   779.28
                              808.95   910.62  1042.84  1138.32  1188.85
                             1223.63  1247.18  1327.39  1386.82  1406.66
                             1451.28  1496.69  1516.01  1540.24  1570.50
                             1631.09  1634.60  1653.94  1719.38  1733.57
                             1760.27  1796.34  1864.76  1999.10  2013.24
                             2095.77  2126.64  2130.84  2141.52  2156.84
                             2763.46  4340.37  4375.98  4408.57  4487.53
                             4489.98  4515.57  4519.58  4535.86  4634.39
                             4654.16

 Zero-point correction=                           0.157142 (Hartree/Particle)
 Thermal correction to Energy=                    0.166132
 Thermal correction to Enthalpy=                  0.167076
 Thermal correction to Gibbs Free Energy=         0.123272
 Sum of electronic and zero-point Energies=           -423.014733
 Sum of electronic and thermal Energies=              -423.005743
 Sum of electronic and thermal Enthalpies=            -423.004799
 Sum of electronic and thermal Free Energies=         -423.048603

                     E (Thermal)             CV                S
                      KCal/Mol        Cal/Mol-Kelvin    Cal/Mol-Kelvin
 Total                  104.249             33.387             92.194
 Electronic               0.000              0.000              0.000
 Translational            0.889              2.981             40.409
 Rotational               0.889              2.981             28.681
 Vibrational            102.472             27.426             23.104
 Vibration     1          0.599              1.965              3.996
 Vibration     2          0.605              1.944              3.342
 Vibration     3          0.613              1.921              2.910
 Vibration     4          0.635              1.847              2.184
 Vibration     5          0.645              1.817              1.996
 Vibration     6          0.657              1.781              1.812
 Vibration     7          0.697              1.661              1.379
 Vibration     8          0.745              1.527              1.067
 Vibration     9          0.817              1.341              0.770
 Vibration    10          0.897              1.158              0.562
 Vibration    11          0.918              1.113              0.519

 Normal termination of Gaussian 09 at Mon Jan 27 17:33:11 2020.
