 Gaussian 09, Revision D.01,
 Gaussian 09:  ES64L-G09RevD.01 24-Apr-2013

 -----------------------------
 # b3lyp 6-31G(2df,p) opt Freq
 -----------------------------

 -----
 titel
 -----
 Symbolic Z-matrix:
 Charge =  0 Multiplicity = 1

 SCF Done:  E(RB3LYP) =  -423.169351608     A.U. after   14 cycles
 Optimization completed.
    -- Stationary point found.
 Normal termination of Gaussian 09 at Tue Jan 28 13:53:55 2020.

 ----------------------------------------------------------------------
 #N Geom=AllCheck Guess=TCheck SCRF=Check GenChk RB3LYP/6-31G(2df,p) Fr
 eq
 ----------------------------------------------------------------------

 Structure from the checkpoint file:  "/scratch/puck/g09_27b42735-c382-412b-97a2-e7285e955f75/Gau-9403.chk"
 -----
 titel
 -----
 Charge =  0 Multiplicity = 1

                         Standard orientation:
 ---------------------------------------------------------------------
 Center     Atomic      Atomic             Coordinates (Angstroms)
 Number     Number       Type             X           Y           Z
 ---------------------------------------------------------------------
      1          6           0        2.898856    0.413937   -0.045301
      2          8           0        1.862384   -0.531066    0.081410
      3          6           0        0.642105   -0.123520   -0.500734
      4          6           0       -0.321664   -1.339133   -0.544114
      5          6           0       -1.508321   -0.811322    0.318928
      6          8           0       -0.805854   -0.063106    1.317311
      7          6           0       -0.182457    0.855583    0.414546
      8          6           0       -1.361964    1.336863   -0.424657
      9          6           0       -2.190782    0.295563   -0.487439
     10          1           0        2.681620    1.354692    0.482620
     11          1           0        3.795260   -0.029581    0.394764
     12          1           0        3.102409    0.653901   -1.101241
     13          1           0        0.829980    0.314287   -1.491142
     14          1           0       -0.612560   -1.630579   -1.554611
     15          1           0        0.167544   -2.181593   -0.051946
     16          1           0       -2.141126   -1.569708    0.777747
     17          1           0        0.400180    1.598749    0.956516
     18          1           0       -1.425872    2.288701   -0.933840
     19          1           0       -3.104308    0.186690   -1.056010
 ---------------------------------------------------------------------

 SCF Done:  E(RB3LYP) =  -423.169351608     A.U. after    1 cycles

 The electronic state is 1-A.
 Alpha  occ. eigenvalues --  -19.13888 -19.13266 -10.23379 -10.23224 -10.23038
 Alpha  occ. eigenvalues --  -10.22369 -10.18538 -10.18420 -10.18001  -1.05166
 Alpha  occ. eigenvalues --   -1.02656  -0.80112  -0.75304  -0.73404  -0.67216
 Alpha  occ. eigenvalues --   -0.58604  -0.57273  -0.55156  -0.52887  -0.49499
 Alpha  occ. eigenvalues --   -0.47996  -0.44597  -0.43499  -0.41610  -0.39839
 Alpha  occ. eigenvalues --   -0.38260  -0.36432  -0.35187  -0.34625  -0.33418
 Alpha  occ. eigenvalues --   -0.31353  -0.27370  -0.24840  -0.23559
 Alpha virt. eigenvalues --    0.00752   0.09301   0.10608   0.11692   0.13593
 Alpha virt. eigenvalues --    0.14323   0.14903   0.15634   0.15937   0.16937
 Alpha virt. eigenvalues --    0.17346   0.18473   0.18897   0.20920   0.21825

 Mulliken charges:
               1
     1  C   -0.243485
     2  O   -0.247205
     3  C    0.169171
     4  C   -0.259159
     5  C    0.021222
     6  O   -0.239017
     7  C   -0.032118
     8  C   -0.081588
     9  C   -0.082603
    10  H    0.104365
    11  H    0.129094
    12  H    0.103059
    13  H    0.060633
    14  H    0.100151
    15  H    0.123791
    16  H    0.081880
    17  H    0.081283
    18  H    0.104896
    19  H    0.105629
 Sum of Mulliken charges =   0.00000

 Dipole moment (field-independent basis, Debye):
    X=             -0.0545    Y=              0.8938    Z=             -1.9929  Tot=              2.1848
 Quadrupole moment (field-independent basis, Debye-Ang):
   XX=            -49.1932   YY=            -50.6670   ZZ=            -55.8503
   XY=              4.0609   XZ=              1.9398   YZ=             -0.2223

  Exact polarizability:  89.083   5.839  75.259   4.095  -1.396  61.128
 Approx polarizability: 118.235  13.675 118.315   5.998  -2.624  96.857

                      1                      2                      3
                      A                      A                      A
 Frequencies --     96.9498               130.5860               183.6876
 Red. masses --      2.5921                 2.0650                 1.5499
 Frc consts  --      0.0144                 0.0207                 0.0308
 IR Inten    --      1.9370                 0.5017                 1.3077

                      4                      5                      6
                      A                      A                      A
 Frequencies --    274.4891               350.0986               383.4350
 Red. masses --      2.9168                 2.4146                 3.8132
 Frc consts  --      0.1295                 0.1744                 0.3303
 IR Inten    --      3.1837                 0.7667                 0.7619

                      7                      8                      9
                      A                      A                      A
 Frequencies --    450.0052               524.0582               620.3442
 Red. masses --      3.5068                 2.5495                 4.4510
 Frc consts  --      0.4184                 0.4125                 1.0092
 IR Inten    --      3.0600                 1.2709                13.0435

                     10                     11                     12
                      A                      A                      A
 Frequencies --    714.8558               734.7963               805.2744
 Red. masses --      1.6589                 3.6807                 7.5553
 Frc consts  --      0.4995                 1.1709                 2.8866
 IR Inten    --     37.0368                 0.2787                 7.0821

                     13                     14                     15
                      A                      A                      A
 Frequencies --    833.3041               872.8244               876.8512
 Red. masses --      3.1420                 3.1300                 2.2029
 Frc consts  --      1.2855                 1.4049                 0.9979
 IR Inten    --      3.5238                 4.4164                17.3826

                     16                     17                     18
                      A                      A                      A
 Frequencies --    905.5354               929.2014               934.7250
 Red. masses --      2.1991                 2.4871                 2.6793
 Frc consts  --      1.0624                 1.2652                 1.3793
 IR Inten    --      4.7524                20.4180                13.6709

                     19                     20                     21
                      A                      A                      A
 Frequencies --    941.1186               979.0698              1015.4870
 Red. masses --      1.4646                 2.9061                 2.1712
 Frc consts  --      0.7643                 1.6413                 1.3192
 IR Inten    --      4.8579                 8.5449                 2.2462

                     22                     23                     24
                      A                      A                      A
 Frequencies --   1045.4908              1060.8941              1118.8524
 Red. masses --      2.4408                 4.7021                 1.4106
 Frc consts  --      1.5719                 3.1181                 1.0404
 IR Inten    --     12.2381                53.2742                 3.2171

                     25                     26                     27
                      A                      A                      A
 Frequencies --   1145.3551              1169.3756              1182.2776
 Red. masses --      4.2285                 1.2266                 1.3065
 Frc consts  --      3.2683                 0.9882                 1.0760
 IR Inten    --    133.3552                 6.0394                 5.2230

                     28                     29                     30
                      A                      A                      A
 Frequencies --   1199.5736              1231.6651              1244.3548
 Red. masses --      1.3122                 1.4172                 1.6544
 Frc consts  --      1.1125                 1.2667                 1.5093
 IR Inten    --      0.9637                 2.8613                46.4174

                     31                     32                     33
                      A                      A                      A
 Frequencies --   1258.0061              1290.7378              1299.1606
 Red. masses --      1.3112                 1.4078                 1.4641
 Frc consts  --      1.2226                 1.3819                 1.4560
 IR Inten    --     11.0461                 0.9421                 2.6785

                     34                     35                     36
                      A                      A                      A
 Frequencies --   1333.5892              1349.0317              1390.7398
 Red. masses --      1.7400                 1.5091                 1.2590
 Frc consts  --      1.8232                 1.6181                 1.4347
 IR Inten    --      9.4074                 5.5572                32.6158

                     37                     38                     39
                      A                      A                      A
 Frequencies --   1478.3677              1482.3399              1489.7988
 Red. masses --      1.1102                 1.0973                 1.0783
 Frc consts  --      1.4296                 1.4206                 1.4101
 IR Inten    --      3.0005                 2.8997                 3.1853

                     40                     41                     42
                      A                      A                      A
 Frequencies --   1508.5859              1642.8431              2971.9281
 Red. masses --      1.0659                 6.1423                 1.0390
 Frc consts  --      1.4292                 9.7672                 5.4067
 IR Inten    --      7.2892                 0.3223                50.2236

                     43                     44                     45
                      A                      A                      A
 Frequencies --   3001.2493              3019.2720              3080.5822
 Red. masses --      1.0838                 1.1012                 1.0587
 Frc consts  --      5.7519                 5.9144                 5.9197
 IR Inten    --     53.5280                50.2497                19.1693

                     46                     47                     48
                      A                      A                      A
 Frequencies --   3114.4535              3130.4927              3136.3790
 Red. masses --      1.0956                 1.0908                 1.1025
 Frc consts  --      6.2615                 6.2984                 6.3896
 IR Inten    --     31.4272                43.2041                12.5686

                     49                     50                     51
                      A                      A                      A
 Frequencies --   3137.5975              3216.0794              3241.8415
 Red. masses --      1.0942                 1.0860                 1.1090
 Frc consts  --      6.3467                 6.6183                 6.8668
 IR Inten    --     18.5725                 3.4511                 8.6213

 - Thermochemistry -
 -------------------
 Temperature   298.150 Kelvin.  Pressure   1.00000 Atm.
 Atom     1 has atomic number  6 and mass  12.00000

 Molecular mass:   126.06808 amu.
 Principal axes and moments of inertia in atomic units:
                           1         2         3
     Eigenvalues --   499.989951364.511081489.85766
           X            0.99960   0.02713   0.00831
           Y           -0.02716   0.99963   0.00288
           Z           -0.00823  -0.00310   0.99996
 This molecule is an asymmetric top.
 Rotational symmetry number  1.
 Warning -- assumption of classical behavior for rotation
           may cause significant error
 Rotational temperatures (Kelvin)      0.17323     0.06348     0.05814
 Rotational constants (GHZ):           3.60955     1.32263     1.21135
 Zero-point vibrational energy     421848.8 (Joules/Mol)
                                  100.82428 (Kcal/Mol)
 Warning -- explicit consideration of   9 degrees of freedom as
           vibrations may cause significant error
 Vibrational temperatures:    139.49   187.88   264.29   394.93   503.71
          (Kelvin)            551.68   647.46   754.00   892.54  1028.52
                             1057.21  1158.61  1198.94  1255.80  1261.59
                             1302.86  1336.91  1344.86  1354.06  1408.66
                             1461.06  1504.23  1526.39  1609.78  1647.91
                             1682.47  1701.03  1725.92  1772.09  1790.35
                             1809.99  1857.08  1869.20  1918.73  1940.95
                             2000.96  2127.04  2132.75  2143.49  2170.52
                             2363.68  4275.94  4318.12  4344.05  4432.27
                             4481.00  4504.08  4512.54  4514.30  4627.22
                             4664.28

 Zero-point correction=                           0.160674 (Hartree/Particle)
 Thermal correction to Energy=                    0.168284
 Thermal correction to Enthalpy=                  0.169228
 Thermal correction to Gibbs Free Energy=         0.128488
 Sum of electronic and zero-point Energies=           -423.008678
 Sum of electronic and thermal Energies=              -423.001067
 Sum of electronic and thermal Enthalpies=            -423.000123
 Sum of electronic and thermal Free Energies=         -423.040864

                     E (Thermal)             CV                S
                      KCal/Mol        Cal/Mol-Kelvin    Cal/Mol-Kelvin
 Total                  105.600             29.895             85.746
 Electronic               0.000              0.000              0.000
 Translational            0.889              2.981             40.409
 Rotational               0.889              2.981             28.410
 Vibrational            103.822             23.934             16.927
 Vibration     1          0.603              1.951              3.515
 Vibration     2          0.612              1.923              2.937
 Vibration     3          0.631              1.862              2.291
 Vibration     4          0.677              1.720              1.568
 Vibration     5          0.727              1.575              1.166
 Vibration     6          0.753              1.506              1.026
 Vibration     7          0.809              1.361              0.796
 Vibration     8          0.879              1.197              0.601
 Vibration     9          0.980              0.989              0.416

 Optimization completed.
    -- Stationary point found.
 Normal termination of Gaussian 09 at Tue Jan 28 14:42:33 2020.
