 Gaussian 09, Revision D.01,
 Gaussian 09:  ES64L-G09RevD.01 24-Apr-2013

 -----------------------------
 # b3lyp 6-31G(2df,p) opt Freq
 -----------------------------

 -----
 titel
 -----
 Symbolic Z-matrix:
 Charge =  0 Multiplicity = 1

 SCF Done:  E(RB3LYP) =  -423.162833856     A.U. after   14 cycles
 Optimization completed.
    -- Stationary point found.
 Normal termination of Gaussian 09 at Mon Jan 27 18:51:23 2020.

 ----------------------------------------------------------------------
 #N Geom=AllCheck Guess=TCheck SCRF=Check GenChk RB3LYP/6-31G(2df,p) Fr
 eq
 ----------------------------------------------------------------------

 Structure from the checkpoint file:  "/scratch/puck/g09_1ccea67b-9a77-4c14-ba5d-d94e48c8d29a/Gau-20054.chk"
 -----
 titel
 -----
 Charge =  0 Multiplicity = 1

                         Standard orientation:
 ---------------------------------------------------------------------
 Center     Atomic      Atomic             Coordinates (Angstroms)
 Number     Number       Type             X           Y           Z
 ---------------------------------------------------------------------
      1          6           0        1.485030    1.507473   -0.769660
      2          6           0        0.739067    0.468813    0.052419
      3          6           0        1.615959   -0.619951    0.729368
      4          8           0        0.980056   -1.684352   -0.009792
      5          6           0        0.127129   -0.751635   -0.703263
      6          6           0       -1.318060   -0.848088   -0.277079
      7          8           0       -2.047334    0.316956   -0.679783
      8          6           0       -1.608856    0.222250    0.685754
      9          6           0       -0.372679    1.059405    0.961483
     10          1           0        0.787897    2.075054   -1.394893
     11          1           0        2.010913    2.219353   -0.122743
     12          1           0        2.226942    1.039665   -1.424996
     13          1           0        2.688283   -0.556311    0.504370
     14          1           0        1.485856   -0.738138    1.812698
     15          1           0        0.259044   -0.801143   -1.790621
     16          1           0       -1.851001   -1.795325   -0.311174
     17          1           0       -2.407950    0.148418    1.419354
     18          1           0       -0.569424    2.111616    0.729576
     19          1           0       -0.097872    1.006384    2.020904
 ---------------------------------------------------------------------

 SCF Done:  E(RB3LYP) =  -423.162833856     A.U. after    1 cycles

 The electronic state is 1-A.
 Alpha  occ. eigenvalues --  -19.15264 -19.13479 -10.23849 -10.23364 -10.23301
 Alpha  occ. eigenvalues --  -10.23027 -10.20349 -10.19136 -10.18194  -1.07540
 Alpha  occ. eigenvalues --   -1.03858  -0.81155  -0.73133  -0.71940  -0.66969
 Alpha  occ. eigenvalues --   -0.63380  -0.58424  -0.54004  -0.52311  -0.48164
 Alpha  occ. eigenvalues --   -0.45860  -0.45458  -0.43745  -0.42548  -0.40548
 Alpha  occ. eigenvalues --   -0.39496  -0.38262  -0.36719  -0.34839  -0.32327
 Alpha  occ. eigenvalues --   -0.29752  -0.28853  -0.27549  -0.24664
 Alpha virt. eigenvalues --    0.06927   0.08799   0.09554   0.11280   0.12418
 Alpha virt. eigenvalues --    0.13738   0.14105   0.14796   0.15204   0.16571
 Alpha virt. eigenvalues --    0.16735   0.17095   0.17529   0.19404   0.21060

 Mulliken charges:
               1
     1  C   -0.484372
     2  C    0.286899
     3  C   -0.113158
     4  O   -0.298567
     5  C    0.069851
     6  C    0.004316
     7  O   -0.260316
     8  C    0.059307
     9  C   -0.325530
    10  H    0.130300
    11  H    0.117356
    12  H    0.119785
    13  H    0.099986
    14  H    0.097670
    15  H    0.080959
    16  H    0.102091
    17  H    0.097453
    18  H    0.113012
    19  H    0.102958
 Sum of Mulliken charges =   0.00000

 Dipole moment (field-independent basis, Debye):
    X=              0.7345    Y=              1.0327    Z=              1.2768  Tot=              1.7989
 Quadrupole moment (field-independent basis, Debye-Ang):
   XX=            -54.3771   YY=            -55.9490   ZZ=            -51.4577
   XY=              3.9723   XZ=             -2.4465   YZ=              1.3573

  Exact polarizability:  78.438   1.538  71.166  -0.571   2.667  69.891
 Approx polarizability: 106.337  -2.641 107.112   3.546   4.507 108.396

                      1                      2                      3
                      A                      A                      A
 Frequencies --     62.5880               196.8054               231.6503
 Red. masses --      3.0583                 4.1583                 1.1707
 Frc consts  --      0.0071                 0.0949                 0.0370
 IR Inten    --      0.7941                 9.6658                 0.3013

                      4                      5                      6
                      A                      A                      A
 Frequencies --    270.0654               331.7912               379.5135
 Red. masses --      2.2215                 2.2718                 3.3319
 Frc consts  --      0.0955                 0.1474                 0.2827
 IR Inten    --      1.4139                 0.2223                 9.0962

                      7                      8                      9
                      A                      A                      A
 Frequencies --    407.0887               448.3727               600.7659
 Red. masses --      1.9274                 5.6136                 3.6802
 Frc consts  --      0.1882                 0.6649                 0.7826
 IR Inten    --      0.1527                 0.6346                 0.5923

                     10                     11                     12
                      A                      A                      A
 Frequencies --    652.9331               732.7714               819.5771
 Red. masses --      4.6772                 5.5203                 4.1556
 Frc consts  --      1.1748                 1.7464                 1.6446
 IR Inten    --      2.2948                 1.6140                 9.1354

                     13                     14                     15
                      A                      A                      A
 Frequencies --    860.2024               867.5283               886.4922
 Red. masses --      2.7389                 2.7010                 2.2254
 Frc consts  --      1.1941                 1.1977                 1.0304
 IR Inten    --     23.0000                14.5666                 3.4520

                     16                     17                     18
                      A                      A                      A
 Frequencies --    923.3102               956.6121               973.0901
 Red. masses --      2.1499                 1.5342                 2.0141
 Frc consts  --      1.0798                 0.8272                 1.1236
 IR Inten    --      2.2519                 2.6365                 9.0772

                     19                     20                     21
                      A                      A                      A
 Frequencies --    982.4429              1021.6796              1023.5348
 Red. masses --      1.9882                 2.6390                 2.9136
 Frc consts  --      1.1306                 1.6230                 1.7984
 IR Inten    --     11.5823                10.8520                10.7553

                     22                     23                     24
                      A                      A                      A
 Frequencies --   1036.7341              1052.6785              1121.4090
 Red. masses --      1.6600                 2.3779                 1.4740
 Frc consts  --      1.0512                 1.5525                 1.0921
 IR Inten    --     36.7611                48.0779                 5.7796

                     25                     26                     27
                      A                      A                      A
 Frequencies --   1156.3356              1159.3424              1181.4899
 Red. masses --      1.2635                 2.0310                 1.9005
 Frc consts  --      0.9954                 1.6084                 1.5631
 IR Inten    --      0.4823                 0.9648                 7.3976

                     28                     29                     30
                      A                      A                      A
 Frequencies --   1225.3859              1239.0024              1260.5952
 Red. masses --      2.0184                 1.5259                 1.5834
 Frc consts  --      1.7857                 1.3801                 1.4825
 IR Inten    --      1.4656                 4.8632                 2.1074

                     31                     32                     33
                      A                      A                      A
 Frequencies --   1280.8508              1306.3319              1325.4608
 Red. masses --      1.5794                 1.4026                 1.4387
 Frc consts  --      1.5267                 1.4103                 1.4892
 IR Inten    --      0.2983                 5.0944                 2.4821

                     34                     35                     36
                      A                      A                      A
 Frequencies --   1356.6987              1370.3927              1411.0937
 Red. masses --      1.7979                 1.8277                 1.3082
 Frc consts  --      1.9497                 2.0223                 1.5348
 IR Inten    --      3.7928                 2.6583                 3.4462

                     37                     38                     39
                      A                      A                      A
 Frequencies --   1440.7185              1481.2027              1494.1765
 Red. masses --      2.8851                 1.0892                 1.0525
 Frc consts  --      3.5283                 1.4079                 1.3845
 IR Inten    --     11.4826                 3.4673                 4.0231

                     40                     41                     42
                      A                      A                      A
 Frequencies --   1496.6469              1526.1116              3005.0137
 Red. masses --      1.0511                 1.0981                 1.0546
 Frc consts  --      1.3872                 1.5069                 5.6106
 IR Inten    --      3.4725                 0.4564                70.0653

                     43                     44                     45
                      A                      A                      A
 Frequencies --   3025.4362              3037.7903              3041.8511
 Red. masses --      1.0370                 1.0664                 1.0789
 Frc consts  --      5.5927                 5.7980                 5.8819
 IR Inten    --     17.7622                44.7083                20.2240

                     46                     47                     48
                      A                      A                      A
 Frequencies --   3050.1030              3078.7611              3092.0161
 Red. masses --      1.1101                 1.1042                 1.1005
 Frc consts  --      6.0847                 6.1664                 6.1989
 IR Inten    --     44.7224                19.7733                21.3387

                     49                     50                     51
                      A                      A                      A
 Frequencies --   3103.5097              3140.6478              3153.5618
 Red. masses --      1.1018                 1.0868                 1.0959
 Frc consts  --      6.2527                 6.3157                 6.4212
 IR Inten    --     23.7669                19.6558                34.7509

 - Thermochemistry -
 -------------------
 Temperature   298.150 Kelvin.  Pressure   1.00000 Atm.
 Atom     1 has atomic number  6 and mass  12.00000

 Molecular mass:   126.06808 amu.
 Principal axes and moments of inertia in atomic units:
                           1         2         3
     Eigenvalues --   688.947811042.467791288.73867
           X            0.99689   0.07432  -0.02607
           Y           -0.07457   0.99717  -0.00900
           Z            0.02533   0.01091   0.99962
 This molecule is an asymmetric top.
 Rotational symmetry number  1.
 Warning -- assumption of classical behavior for rotation
           may cause significant error
 Rotational temperatures (Kelvin)      0.12572     0.08309     0.06721
 Rotational constants (GHZ):           2.61956     1.73122     1.40039
 Zero-point vibrational energy     420368.7 (Joules/Mol)
                                  100.47054 (Kcal/Mol)
 Warning -- explicit consideration of   9 degrees of freedom as
           vibrations may cause significant error
 Vibrational temperatures:     90.05   283.16   333.29   388.56   477.37
          (Kelvin)            546.03   585.71   645.11   864.37   939.42
                             1054.29  1179.19  1237.64  1248.18  1275.46
                             1328.44  1376.35  1400.06  1413.51  1469.97
                             1472.64  1491.63  1514.57  1613.46  1663.71
                             1668.03  1699.90  1763.05  1782.65  1813.71
                             1842.86  1879.52  1907.04  1951.98  1971.69
                             2030.25  2072.87  2131.12  2149.78  2153.34
                             2195.73  4323.54  4352.92  4370.70  4376.54
                             4388.41  4429.64  4448.72  4465.25  4518.69
                             4537.27

 Zero-point correction=                           0.160110 (Hartree/Particle)
 Thermal correction to Energy=                    0.167724
 Thermal correction to Enthalpy=                  0.168668
 Thermal correction to Gibbs Free Energy=         0.127912
 Sum of electronic and zero-point Energies=           -423.002724
 Sum of electronic and thermal Energies=              -422.995110
 Sum of electronic and thermal Enthalpies=            -422.994166
 Sum of electronic and thermal Free Energies=         -423.034922

                     E (Thermal)             CV                S
                      KCal/Mol        Cal/Mol-Kelvin    Cal/Mol-Kelvin
 Total                  105.248             29.933             85.778
 Electronic               0.000              0.000              0.000
 Translational            0.889              2.981             40.409
 Rotational               0.889              2.981             28.317
 Vibrational            103.471             23.971             17.053
 Vibration     1          0.597              1.972              4.374
 Vibration     2          0.636              1.844              2.163
 Vibration     3          0.653              1.793              1.866
 Vibration     4          0.674              1.728              1.596
 Vibration     5          0.714              1.612              1.251
 Vibration     6          0.750              1.514              1.041
 Vibration     7          0.772              1.455              0.937
 Vibration     8          0.807              1.364              0.801
 Vibration     9          0.959              1.030              0.448

 Optimization completed.
    -- Stationary point found.
 Normal termination of Gaussian 09 at Mon Jan 27 20:33:52 2020.
