 Gaussian 09, Revision D.01,
 Gaussian 09:  ES64L-G09RevD.01 24-Apr-2013

 -----------------------------
 # b3lyp 6-31G(2df,p) opt Freq
 -----------------------------

 -----
 titel
 -----
 Symbolic Z-matrix:
 Charge =  0 Multiplicity = 1

 SCF Done:  E(RB3LYP) =  -423.106757461     A.U. after   13 cycles
 Optimization completed.
    -- Stationary point found.
 Normal termination of Gaussian 09 at Tue Jan 28 09:53:35 2020.

 ----------------------------------------------------------------------
 #N Geom=AllCheck Guess=TCheck SCRF=Check GenChk RB3LYP/6-31G(2df,p) Fr
 eq
 ----------------------------------------------------------------------

 Structure from the checkpoint file:  "/scratch/puck/g09_91b53962-5636-47ac-8742-c1f2bdbbb33e/Gau-64357.chk"
 -----
 titel
 -----
 Charge =  0 Multiplicity = 1

                         Standard orientation:
 ---------------------------------------------------------------------
 Center     Atomic      Atomic             Coordinates (Angstroms)
 Number     Number       Type             X           Y           Z
 ---------------------------------------------------------------------
      1          6           0        0.478742    2.147831   -0.114579
      2          6           0        0.711057    0.677908   -0.003975
      3          8           0        1.788096    0.202655    0.823674
      4          6           0        1.710366   -0.243206   -0.540316
      5          6           0        0.663554   -1.394807   -0.644531
      6          6           0        0.022515   -1.672813    0.689238
      7          6           0       -0.392524   -0.445328   -0.089626
      8          6           0       -1.785277   -0.184999   -0.572103
      9          8           0       -2.562381    0.542705    0.373549
     10          1           0       -0.065144    2.519674    0.759863
     11          1           0        1.433684    2.674852   -0.186234
     12          1           0       -0.120659    2.382580   -0.999489
     13          1           0        2.580432   -0.088536   -1.167766
     14          1           0        0.579571   -2.057658   -1.495820
     15          1           0       -0.703793   -2.480724    0.679794
     16          1           0        0.602837   -1.578298    1.597903
     17          1           0       -1.778447    0.437112   -1.474617
     18          1           0       -2.265021   -1.139779   -0.842373
     19          1           0       -2.519785    0.060381    1.206300
 ---------------------------------------------------------------------

 SCF Done:  E(RB3LYP) =  -423.106757461     A.U. after    1 cycles

 The electronic state is 1-A.
 Alpha  occ. eigenvalues --  -19.14908 -19.13460 -10.24144 -10.23601 -10.23225
 Alpha  occ. eigenvalues --  -10.19828 -10.19765 -10.19135 -10.18442  -1.07587
 Alpha  occ. eigenvalues --   -1.01498  -0.87315  -0.74793  -0.70237  -0.68110
 Alpha  occ. eigenvalues --   -0.61536  -0.56701  -0.53584  -0.51577  -0.49012
 Alpha  occ. eigenvalues --   -0.47262  -0.44639  -0.43709  -0.41524  -0.41132
 Alpha  occ. eigenvalues --   -0.39235  -0.37363  -0.35370  -0.33953  -0.33169
 Alpha  occ. eigenvalues --   -0.29473  -0.27305  -0.26119  -0.22841
 Alpha virt. eigenvalues --    0.06225   0.07847   0.10415   0.10892   0.11399
 Alpha virt. eigenvalues --    0.12689   0.14508   0.14772   0.15238   0.16148
 Alpha virt. eigenvalues --    0.17399   0.18076   0.19740   0.21114   0.22088

 Mulliken charges:
               1
     1  C   -0.502809
     2  C    0.363971
     3  O   -0.283700
     4  C   -0.061539
     5  C   -0.166589
     6  C   -0.345612
     7  C    0.260546
     8  C   -0.173378
     9  O   -0.415591
    10  H    0.139146
    11  H    0.130768
    12  H    0.129432
    13  H    0.105291
    14  H    0.096005
    15  H    0.108622
    16  H    0.137941
    17  H    0.107243
    18  H    0.087846
    19  H    0.282408
 Sum of Mulliken charges =   0.00000

 Dipole moment (field-independent basis, Debye):
    X=             -0.1251    Y=             -0.8994    Z=             -1.1570  Tot=              1.4707
 Quadrupole moment (field-independent basis, Debye-Ang):
   XX=            -58.0223   YY=            -51.4718   ZZ=            -50.8695
   XY=              3.7538   XZ=             -4.6024   YZ=             -0.5724

  Exact polarizability:  78.593  -0.262  79.918  -3.054   0.246  65.814
 Approx polarizability: 113.070  -5.280 112.052  -3.586   2.768 107.001

                      1                      2                      3
                      A                      A                      A
 Frequencies --     81.4882               115.3040               177.4179
 Red. masses --      3.7213                 2.9573                 1.1931
 Frc consts  --      0.0146                 0.0232                 0.0221
 IR Inten    --      4.0932                 1.4019                 1.0307

                      4                      5                      6
                      A                      A                      A
 Frequencies --    222.8851               248.6080               331.6794
 Red. masses --      2.5628                 2.1194                 1.4391
 Frc consts  --      0.0750                 0.0772                 0.0933
 IR Inten    --      1.2582                11.0277                69.6191

                      7                      8                      9
                      A                      A                      A
 Frequencies --    352.4150               410.0454               442.3582
 Red. masses --      2.3678                 2.5624                 3.4541
 Frc consts  --      0.1733                 0.2538                 0.3982
 IR Inten    --     10.2082                31.4870                 6.9662

                     10                     11                     12
                      A                      A                      A
 Frequencies --    449.6767               573.6459               603.6852
 Red. masses --      3.1305                 3.6567                 3.5012
 Frc consts  --      0.3730                 0.7090                 0.7518
 IR Inten    --      5.7955                 9.8843                 0.6334

                     13                     14                     15
                      A                      A                      A
 Frequencies --    701.1842               770.3751               805.6313
 Red. masses --      3.4750                 4.2150                 3.0312
 Frc consts  --      1.0066                 1.4738                 1.1591
 IR Inten    --      4.2213                 5.8264                18.1777

                     16                     17                     18
                      A                      A                      A
 Frequencies --    856.7930               863.2778               903.9017
 Red. masses --      2.3987                 2.3336                 2.4053
 Frc consts  --      1.0375                 1.0246                 1.1579
 IR Inten    --      4.7147                18.9330                 2.6978

                     19                     20                     21
                      A                      A                      A
 Frequencies --    936.2825               960.5011               983.9723
 Red. masses --      1.6761                 1.4420                 1.9185
 Frc consts  --      0.8657                 0.7838                 1.0944
 IR Inten    --      3.5777                14.4415                14.8817

                     22                     23                     24
                      A                      A                      A
 Frequencies --   1016.5823              1023.6027              1047.4865
 Red. masses --      2.0968                 1.3597                 4.0237
 Frc consts  --      1.2767                 0.8394                 2.6012
 IR Inten    --     11.4364                 2.5118                69.0696

                     25                     26                     27
                      A                      A                      A
 Frequencies --   1073.6955              1096.2205              1099.4894
 Red. masses --      2.0938                 1.3232                 1.7260
 Frc consts  --      1.4221                 0.9368                 1.2293
 IR Inten    --     20.2633                 5.0050                13.4080

                     28                     29                     30
                      A                      A                      A
 Frequencies --   1153.4716              1195.0283              1234.8240
 Red. masses --      1.9370                 1.5733                 1.5591
 Frc consts  --      1.5184                 1.3238                 1.4007
 IR Inten    --      7.7837                22.7599                11.6993

                     31                     32                     33
                      A                      A                      A
 Frequencies --   1256.6626              1287.2696              1351.4915
 Red. masses --      1.4856                 2.3617                 1.5976
 Frc consts  --      1.3823                 2.3057                 1.7193
 IR Inten    --     10.3580                14.3407                 0.3008

                     34                     35                     36
                      A                      A                      A
 Frequencies --   1375.2964              1404.3654              1425.8431
 Red. masses --      1.7061                 1.2562                 1.3166
 Frc consts  --      1.9012                 1.4598                 1.5771
 IR Inten    --      1.5756                 3.2217                73.0883

                     37                     38                     39
                      A                      A                      A
 Frequencies --   1457.5326              1472.3030              1480.0732
 Red. masses --      1.6879                 1.3635                 1.0987
 Frc consts  --      2.1127                 1.7414                 1.4180
 IR Inten    --      6.8929                12.0312                 6.8846

                     40                     41                     42
                      A                      A                      A
 Frequencies --   1498.5262              1504.4103              2972.1095
 Red. masses --      1.6875                 1.1687                 1.0703
 Frc consts  --      2.2327                 1.5584                 5.5705
 IR Inten    --      3.8229                 3.9459                57.6929

                     43                     44                     45
                      A                      A                      A
 Frequencies --   3040.5408              3056.0209              3105.4698
 Red. masses --      1.0356                 1.0908                 1.1002
 Frc consts  --      5.6411                 6.0019                 6.2512
 IR Inten    --     13.4897                33.6131                13.6910

                     46                     47                     48
                      A                      A                      A
 Frequencies --   3124.6399              3132.7377              3183.5103
 Red. masses --      1.1019                 1.0557                 1.0932
 Frc consts  --      6.3388                 6.1045                 6.5278
 IR Inten    --     13.3859                16.7069                16.8732

                     49                     50                     51
                      A                      A                      A
 Frequencies --   3202.1542              3231.7882              3807.1880
 Red. masses --      1.0946                 1.1128                 1.0660
 Frc consts  --      6.6127                 6.8476                 9.1035
 IR Inten    --     12.0660                 2.3422                15.4664

 - Thermochemistry -
 -------------------
 Temperature   298.150 Kelvin.  Pressure   1.00000 Atm.
 Atom     1 has atomic number  6 and mass  12.00000

 Molecular mass:   126.06808 amu.
 Principal axes and moments of inertia in atomic units:
                           1         2         3
     Eigenvalues --   729.877021122.843411538.11641
           X            0.99918   0.03935  -0.00932
           Y           -0.03948   0.99912  -0.01409
           Z            0.00876   0.01445   0.99986
 This molecule is an asymmetric top.
 Rotational symmetry number  1.
 Warning -- assumption of classical behavior for rotation
           may cause significant error
 Rotational temperatures (Kelvin)      0.11867     0.07714     0.05631
 Rotational constants (GHZ):           2.47266     1.60730     1.17335
 Zero-point vibrational energy     413318.5 (Joules/Mol)
                                   98.78550 (Kcal/Mol)
 Warning -- explicit consideration of  12 degrees of freedom as
           vibrations may cause significant error
 Vibrational temperatures:    117.24   165.90   255.26   320.68   357.69
          (Kelvin)            477.21   507.05   589.96   636.45   646.98
                              825.35   868.57  1008.85  1108.40  1159.12
                             1232.73  1242.06  1300.51  1347.10  1381.95
                             1415.71  1462.63  1472.73  1507.10  1544.81
                             1577.21  1581.92  1659.59  1719.38  1776.63
                             1808.05  1852.09  1944.49  1978.74  2020.57
                             2051.47  2097.06  2118.31  2129.49  2156.04
                             2164.51  4276.20  4374.65  4396.93  4468.07
                             4495.65  4507.31  4580.36  4607.18  4649.82
                             5477.69

 Zero-point correction=                           0.157425 (Hartree/Particle)
 Thermal correction to Energy=                    0.166148
 Thermal correction to Enthalpy=                  0.167093
 Thermal correction to Gibbs Free Energy=         0.124190
 Sum of electronic and zero-point Energies=           -422.949333
 Sum of electronic and thermal Energies=              -422.940609
 Sum of electronic and thermal Enthalpies=            -422.939665
 Sum of electronic and thermal Free Energies=         -422.982567

                     E (Thermal)             CV                S
                      KCal/Mol        Cal/Mol-Kelvin    Cal/Mol-Kelvin
 Total                  104.260             33.533             90.295
 Electronic               0.000              0.000              0.000
 Translational            0.889              2.981             40.409
 Rotational               0.889              2.981             28.624
 Vibrational            102.482             27.571             21.263
 Vibration     1          0.600              1.962              3.855
 Vibration     2          0.608              1.937              3.178
 Vibration     3          0.628              1.870              2.355
 Vibration     4          0.649              1.806              1.936
 Vibration     5          0.662              1.765              1.740
 Vibration     6          0.714              1.612              1.252
 Vibration     7          0.729              1.570              1.155
 Vibration     8          0.774              1.448              0.926
 Vibration     9          0.802              1.378              0.819
 Vibration    10          0.809              1.362              0.797
 Vibration    11          0.930              1.088              0.497
 Vibration    12          0.962              1.024              0.443

 Normal termination of Gaussian 09 at Tue Jan 28 11:45:24 2020.
