 Gaussian 09, Revision D.01,
 Gaussian 09:  ES64L-G09RevD.01 24-Apr-2013

 -----------------------------
 # b3lyp 6-31G(2df,p) opt Freq
 -----------------------------

 -----
 titel
 -----
 Symbolic Z-matrix:
 Charge =  0 Multiplicity = 1

 SCF Done:  E(RB3LYP) =  -423.163369177     A.U. after   13 cycles
 Optimization completed.
    -- Stationary point found.
 Normal termination of Gaussian 09 at Mon Jan 27 12:13:34 2020.

 ----------------------------------------------------------------------
 #N Geom=AllCheck Guess=TCheck SCRF=Check GenChk RB3LYP/6-31G(2df,p) Fr
 eq
 ----------------------------------------------------------------------

 Structure from the checkpoint file:  "/scratch/puck/g09_cdbf57aa-0276-46bc-b14a-1f316115e55d/Gau-71714.chk"
 -----
 titel
 -----
 Charge =  0 Multiplicity = 1

                         Standard orientation:
 ---------------------------------------------------------------------
 Center     Atomic      Atomic             Coordinates (Angstroms)
 Number     Number       Type             X           Y           Z
 ---------------------------------------------------------------------
      1          6           0       -2.044375    0.591707   -0.100970
      2          6           0       -1.806067   -0.948524    0.143242
      3          6           0       -0.306270   -0.632817    0.100280
      4          6           0        0.389855   -0.042835    1.348203
      5          6           0        1.348536    0.714811    0.424836
      6          6           0        1.842672   -0.463451   -0.465404
      7          8           0        0.732539   -1.406614   -0.482269
      8          8           0        0.442734    1.559263   -0.324276
      9          6           0       -0.594899    0.640250   -0.682846
     10          1           0       -2.852837    0.862721   -0.780801
     11          1           0       -2.151870    1.151768    0.828932
     12          1           0       -2.209193   -1.397957    1.052142
     13          1           0       -2.120216   -1.537609   -0.721759
     14          1           0       -0.210521    0.627318    1.962901
     15          1           0        0.847047   -0.827121    1.954599
     16          1           0        2.136076    1.337202    0.847531
     17          1           0        2.068422   -0.122802   -1.482021
     18          1           0        2.723690   -0.960601   -0.045673
     19          1           0       -0.609492    0.491045   -1.767538
 ---------------------------------------------------------------------

 SCF Done:  E(RB3LYP) =  -423.163369177     A.U. after    1 cycles

 The electronic state is 1-A.
 Alpha  occ. eigenvalues --  -19.13804 -19.13760 -10.23893 -10.23286 -10.22853
 Alpha  occ. eigenvalues --  -10.22148 -10.19362 -10.19101 -10.18340  -1.05797
 Alpha  occ. eigenvalues --   -1.00924  -0.84285  -0.76914  -0.70406  -0.65850
 Alpha  occ. eigenvalues --   -0.62312  -0.58980  -0.53455  -0.51680  -0.49769
 Alpha  occ. eigenvalues --   -0.47448  -0.44920  -0.43074  -0.40526  -0.38314
 Alpha  occ. eigenvalues --   -0.37383  -0.36400  -0.35875  -0.35218  -0.34174
 Alpha  occ. eigenvalues --   -0.33163  -0.29660  -0.24842  -0.23566
 Alpha virt. eigenvalues --    0.07967   0.08974   0.10833   0.11884   0.12659
 Alpha virt. eigenvalues --    0.14227   0.14930   0.15721   0.16739   0.17061
 Alpha virt. eigenvalues --    0.17960   0.18563   0.19345   0.20505   0.21947

 Mulliken charges:
               1
     1  C   -0.289276
     2  C   -0.345941
     3  C    0.431049
     4  C   -0.282322
     5  C    0.059475
     6  C   -0.100881
     7  O   -0.341871
     8  O   -0.298234
     9  C    0.107926
    10  H    0.107582
    11  H    0.117959
    12  H    0.108593
    13  H    0.121312
    14  H    0.109520
    15  H    0.106546
    16  H    0.085801
    17  H    0.111547
    18  H    0.107752
    19  H    0.083462
 Sum of Mulliken charges =   0.00000

 Dipole moment (field-independent basis, Debye):
    X=             -0.2046    Y=             -0.0724    Z=              0.9152  Tot=              0.9405
 Quadrupole moment (field-independent basis, Debye-Ang):
   XX=            -47.9919   YY=            -59.6465   ZZ=            -51.3300
   XY=              0.6187   XZ=              1.2483   YZ=             -0.1198

  Exact polarizability:  87.026   0.337  65.386   1.038  -0.284  68.193
 Approx polarizability: 115.752   0.942 103.198   1.196  -0.248 103.304

                      1                      2                      3
                      A                      A                      A
 Frequencies --    209.4484               273.4542               330.9902
 Red. masses --      2.7219                 2.1094                 2.7974
 Frc consts  --      0.0704                 0.0929                 0.1806
 IR Inten    --      3.2895                 1.6902                 2.8973

                      4                      5                      6
                      A                      A                      A
 Frequencies --    391.8757               423.2537               501.9512
 Red. masses --      2.6663                 3.4947                 3.4801
 Frc consts  --      0.2412                 0.3689                 0.5166
 IR Inten    --      1.7704                 5.7368                 5.1145

                      7                      8                      9
                      A                      A                      A
 Frequencies --    537.6422               633.8192               673.3741
 Red. masses --      2.4680                 3.6502                 2.5319
 Frc consts  --      0.4203                 0.8640                 0.6764
 IR Inten    --      2.1360                 6.6970                 2.1721

                     10                     11                     12
                      A                      A                      A
 Frequencies --    749.8441               793.9829               804.2401
 Red. masses --      3.8086                 1.7240                 2.3890
 Frc consts  --      1.2617                 0.6403                 0.9104
 IR Inten    --      2.8891                 3.2361                 6.6254

                     13                     14                     15
                      A                      A                      A
 Frequencies --    843.8392               861.9656               887.6851
 Red. masses --      2.4602                 2.6365                 3.0944
 Frc consts  --      1.0322                 1.1541                 1.4366
 IR Inten    --     10.3563                 6.7539                 4.6922

                     16                     17                     18
                      A                      A                      A
 Frequencies --    926.9662               942.2318               946.2011
 Red. masses --      3.5070                 2.5234                 3.1817
 Frc consts  --      1.7755                 1.3199                 1.6783
 IR Inten    --     29.1734                25.0434                38.2059

                     19                     20                     21
                      A                      A                      A
 Frequencies --    975.5658               988.3912              1050.9013
 Red. masses --      1.5606                 1.8929                 2.0888
 Frc consts  --      0.8751                 1.0895                 1.3592
 IR Inten    --     11.4201                 4.8018                11.9516

                     22                     23                     24
                      A                      A                      A
 Frequencies --   1061.1466              1097.7850              1113.6246
 Red. masses --      2.6796                 1.8698                 1.8761
 Frc consts  --      1.7777                 1.3277                 1.3708
 IR Inten    --     26.5061                27.5988                32.8256

                     25                     26                     27
                      A                      A                      A
 Frequencies --   1141.6171              1157.2004              1191.9324
 Red. masses --      1.9788                 1.9813                 1.4283
 Frc consts  --      1.5194                 1.5632                 1.1956
 IR Inten    --      4.5537                19.0347                 5.4114

                     28                     29                     30
                      A                      A                      A
 Frequencies --   1203.3718              1210.7054              1235.8217
 Red. masses --      1.3177                 1.3656                 1.3491
 Frc consts  --      1.1242                 1.1794                 1.2140
 IR Inten    --     21.6991                 3.0270                 0.9211

                     31                     32                     33
                      A                      A                      A
 Frequencies --   1238.9772              1275.3893              1289.3232
 Red. masses --      1.5226                 1.9423                 1.7441
 Frc consts  --      1.3771                 1.8615                 1.7082
 IR Inten    --      8.7160                 1.6313                17.3249

                     34                     35                     36
                      A                      A                      A
 Frequencies --   1308.1737              1321.3576              1363.3734
 Red. masses --      2.9016                 1.3206                 1.4566
 Frc consts  --      2.9256                 1.3585                 1.5952
 IR Inten    --     20.5333                 3.5874                 1.4233

                     37                     38                     39
                      A                      A                      A
 Frequencies --   1379.7900              1475.0397              1486.1761
 Red. masses --      1.3363                 1.1093                 1.1072
 Frc consts  --      1.4989                 1.4220                 1.4408
 IR Inten    --     10.6038                 1.5947                 5.6020

                     40                     41                     42
                      A                      A                      A
 Frequencies --   1497.6167              1507.9098              3033.6203
 Red. masses --      1.1301                 1.1014                 1.0567
 Frc consts  --      1.4934                 1.4755                 5.7294
 IR Inten    --      6.8598                 0.2602                50.2932

                     43                     44                     45
                      A                      A                      A
 Frequencies --   3051.2926              3073.7948              3081.5174
 Red. masses --      1.0854                 1.0581                 1.1015
 Frc consts  --      5.9540                 5.8904                 6.1626
 IR Inten    --     28.6855                28.2334                11.5988

                     46                     47                     48
                      A                      A                      A
 Frequencies --   3084.8974              3088.2231              3126.8927
 Red. masses --      1.0655                 1.0604                 1.1092
 Frc consts  --      5.9745                 5.9583                 6.3899
 IR Inten    --     35.7488                19.2643                10.9803

                     49                     50                     51
                      A                      A                      A
 Frequencies --   3137.7144              3146.2758              3153.3857
 Red. masses --      1.0902                 1.1091                 1.1076
 Frc consts  --      6.3241                 6.4685                 6.4893
 IR Inten    --     32.9345                27.5210                18.4948

 - Thermochemistry -
 -------------------
 Temperature   298.150 Kelvin.  Pressure   1.00000 Atm.
 Atom     1 has atomic number  6 and mass  12.00000

 Molecular mass:   126.06808 amu.
 Principal axes and moments of inertia in atomic units:
                           1         2         3
     Eigenvalues --   604.60589 947.721931160.90808
           X            0.99999   0.00277   0.00352
           Y           -0.00277   1.00000   0.00037
           Z           -0.00352  -0.00038   0.99999
 This molecule is an asymmetric top.
 Rotational symmetry number  1.
 Warning -- assumption of classical behavior for rotation
           may cause significant error
 Rotational temperatures (Kelvin)      0.14326     0.09139     0.07461
 Rotational constants (GHZ):           2.98499     1.90429     1.55459
 Zero-point vibrational energy     426358.5 (Joules/Mol)
                                  101.90212 (Kcal/Mol)
 Warning -- explicit consideration of   7 degrees of freedom as
           vibrations may cause significant error
 Vibrational temperatures:    301.35   393.44   476.22   563.82   608.97
          (Kelvin)            722.19   773.55   911.92   968.83  1078.86
                             1142.36  1157.12  1214.09  1240.17  1277.18
                             1333.70  1355.66  1361.37  1403.62  1422.07
                             1512.01  1526.75  1579.47  1602.26  1642.53
                             1664.95  1714.92  1731.38  1741.93  1778.07
                             1782.61  1835.00  1855.05  1882.17  1901.14
                             1961.59  1985.21  2122.25  2138.27  2154.73
                             2169.54  4364.70  4390.12  4422.50  4433.61
                             4438.47  4443.26  4498.90  4514.47  4526.78
                             4537.01

 Zero-point correction=                           0.162391 (Hartree/Particle)
 Thermal correction to Energy=                    0.168865
 Thermal correction to Enthalpy=                  0.169809
 Thermal correction to Gibbs Free Energy=         0.131995
 Sum of electronic and zero-point Energies=           -423.000978
 Sum of electronic and thermal Energies=              -422.994505
 Sum of electronic and thermal Enthalpies=            -422.993560
 Sum of electronic and thermal Free Energies=         -423.031374

                     E (Thermal)             CV                S
                      KCal/Mol        Cal/Mol-Kelvin    Cal/Mol-Kelvin
 Total                  105.964             27.908             79.586
 Electronic               0.000              0.000              0.000
 Translational            0.889              2.981             40.409
 Rotational               0.889              2.981             27.989
 Vibrational            104.187             21.946             11.189
 Vibration     1          0.642              1.826              2.048
 Vibration     2          0.676              1.722              1.574
 Vibration     3          0.713              1.614              1.255
 Vibration     4          0.759              1.488              0.993
 Vibration     5          0.785              1.420              0.881
 Vibration     6          0.857              1.246              0.653
 Vibration     7          0.893              1.167              0.570

 Optimization completed.
    -- Stationary point found.
 Normal termination of Gaussian 09 at Mon Jan 27 13:01:35 2020.
