 Gaussian 09, Revision D.01,
 Gaussian 09:  ES64L-G09RevD.01 24-Apr-2013

 -----------------------------
 # b3lyp 6-31G(2df,p) opt Freq
 -----------------------------

 -----
 titel
 -----
 Symbolic Z-matrix:
 Charge =  0 Multiplicity = 1

 SCF Done:  E(RB3LYP) =  -423.173025404     A.U. after   14 cycles
 Optimization completed.
    -- Stationary point found.
 Normal termination of Gaussian 09 at Tue Jan 28 12:40:24 2020.

 ----------------------------------------------------------------------
 #N Geom=AllCheck Guess=TCheck SCRF=Check GenChk RB3LYP/6-31G(2df,p) Fr
 eq
 ----------------------------------------------------------------------

 Structure from the checkpoint file:  "/scratch/puck/g09_316d36ec-e0ac-4158-9e91-62e0027e121b/Gau-29999.chk"
 -----
 titel
 -----
 Charge =  0 Multiplicity = 1

                         Standard orientation:
 ---------------------------------------------------------------------
 Center     Atomic      Atomic             Coordinates (Angstroms)
 Number     Number       Type             X           Y           Z
 ---------------------------------------------------------------------
      1          8           0        2.853764   -0.769575   -0.659204
      2          6           0        2.332335    0.091796    0.351561
      3          6           0        0.865105    0.336545    0.177156
      4          6           0        0.254705    1.520819    0.042246
      5          6           0       -1.237095    1.381867   -0.166653
      6          6           0       -1.473548   -0.129385   -0.060617
      7          8           0       -2.409643   -0.710971   -0.917075
      8          6           0       -1.155874   -0.802034    1.247747
      9          6           0       -0.124362   -0.783474    0.121330
     10          1           0        2.658457   -0.359604   -1.508696
     11          1           0        2.527928   -0.431275    1.295319
     12          1           0        2.874011    1.049135    0.385355
     13          1           0        0.753723    2.483475    0.083374
     14          1           0       -1.821198    1.955718    0.564416
     15          1           0       -1.541277    1.733844   -1.161805
     16          1           0       -3.281336   -0.609725   -0.519701
     17          1           0       -0.968122   -0.204072    2.134551
     18          1           0       -1.654436   -1.750393    1.420381
     19          1           0        0.131690   -1.719540   -0.359586
 ---------------------------------------------------------------------

 SCF Done:  E(RB3LYP) =  -423.173025404     A.U. after    1 cycles

 The electronic state is 1-A.
 Alpha  occ. eigenvalues --  -19.14241 -19.13349 -10.23645 -10.22779 -10.18553
 Alpha  occ. eigenvalues --  -10.18540 -10.18417 -10.18393 -10.18043  -1.02852
 Alpha  occ. eigenvalues --   -1.01271  -0.87700  -0.77261  -0.72706  -0.65091
 Alpha  occ. eigenvalues --   -0.61306  -0.56979  -0.53430  -0.52149  -0.49431
 Alpha  occ. eigenvalues --   -0.45465  -0.43996  -0.42259  -0.41861  -0.41305
 Alpha  occ. eigenvalues --   -0.39434  -0.37445  -0.34849  -0.33186  -0.32250
 Alpha  occ. eigenvalues --   -0.28204  -0.26693  -0.26017  -0.22945
 Alpha virt. eigenvalues --    0.01110   0.08108   0.09262   0.11792   0.12163
 Alpha virt. eigenvalues --    0.13364   0.13927   0.14371   0.16357   0.17205
 Alpha virt. eigenvalues --    0.18285   0.18956   0.20154   0.21161   0.24047

 Mulliken charges:
               1
     1  O   -0.413660
     2  C   -0.172923
     3  C    0.306056
     4  C   -0.194903
     5  C   -0.335444
     6  C    0.399267
     7  O   -0.469120
     8  C   -0.342953
     9  C   -0.180365
    10  H    0.282316
    11  H    0.115244
    12  H    0.089760
    13  H    0.090446
    14  H    0.104524
    15  H    0.115289
    16  H    0.281698
    17  H    0.107690
    18  H    0.111669
    19  H    0.105408
 Sum of Mulliken charges =   0.00000

 Dipole moment (field-independent basis, Debye):
    X=             -1.4199    Y=              1.6402    Z=              0.7425  Tot=              2.2930
 Quadrupole moment (field-independent basis, Debye-Ang):
   XX=            -51.6577   YY=            -53.2278   ZZ=            -52.5218
   XY=              3.1347   XZ=             -3.0681   YZ=             -1.7588

  Exact polarizability:  89.458  -2.666  79.564   0.549  -3.166  64.018
 Approx polarizability: 119.995 -11.498 125.798   1.107  -4.350  99.195

                      1                      2                      3
                      A                      A                      A
 Frequencies --     80.7837               112.0275               210.3632
 Red. masses --      3.4269                 4.7174                 3.1043
 Frc consts  --      0.0132                 0.0349                 0.0809
 IR Inten    --      2.1603                 0.6927                 7.0104

                      4                      5                      6
                      A                      A                      A
 Frequencies --    257.7120               280.5195               302.1434
 Red. masses --      1.8317                 1.2624                 2.7573
 Frc consts  --      0.0717                 0.0585                 0.1483
 IR Inten    --     31.0467                55.5406                 3.7175

                      7                      8                      9
                      A                      A                      A
 Frequencies --    358.5788               395.2184               420.7370
 Red. masses --      1.2934                 2.6624                 2.7865
 Frc consts  --      0.0980                 0.2450                 0.2906
 IR Inten    --     99.4427                 7.6744                30.5113

                     10                     11                     12
                      A                      A                      A
 Frequencies --    430.9614               572.4691               612.8110
 Red. masses --      2.5970                 3.2817                 3.7736
 Frc consts  --      0.2842                 0.6337                 0.8350
 IR Inten    --      9.0629                 4.8123                 0.9812

                     13                     14                     15
                      A                      A                      A
 Frequencies --    663.0418               756.5722               817.1159
 Red. masses --      3.6045                 2.8832                 2.6190
 Frc consts  --      0.9336                 0.9723                 1.0303
 IR Inten    --      3.5444                 7.8504                 5.4136

                     16                     17                     18
                      A                      A                      A
 Frequencies --    827.9037               889.5558               914.9918
 Red. masses --      1.3682                 2.3437                 1.6724
 Frc consts  --      0.5525                 1.0927                 0.8250
 IR Inten    --     10.8592                15.7382                 4.9834

                     19                     20                     21
                      A                      A                      A
 Frequencies --    952.3068               977.4872               996.8242
 Red. masses --      1.6326                 1.9464                 1.8665
 Frc consts  --      0.8723                 1.0958                 1.0928
 IR Inten    --      7.5679                12.9443                55.2358

                     22                     23                     24
                      A                      A                      A
 Frequencies --   1003.7598              1013.9958              1050.8072
 Red. masses --      2.4183                 1.9190                 3.5707
 Frc consts  --      1.4356                 1.1625                 2.3230
 IR Inten    --     17.9691                 4.1701                48.2158

                     25                     26                     27
                      A                      A                      A
 Frequencies --   1058.5141              1083.4274              1149.7868
 Red. masses --      1.3669                 1.7081                 1.2069
 Frc consts  --      0.9024                 1.1813                 0.9401
 IR Inten    --      5.9093                 2.0439                30.8136

                     28                     29                     30
                      A                      A                      A
 Frequencies --   1180.0075              1196.3738              1236.8254
 Red. masses --      2.0193                 1.1124                 1.7878
 Frc consts  --      1.6566                 0.9381                 1.6113
 IR Inten    --     11.0530                 9.2922                18.0901

                     31                     32                     33
                      A                      A                      A
 Frequencies --   1243.3491              1296.1765              1314.8589
 Red. masses --      1.8446                 1.5503                 2.2140
 Frc consts  --      1.6801                 1.5346                 2.2552
 IR Inten    --     15.1041                75.0907                 9.0702

                     34                     35                     36
                      A                      A                      A
 Frequencies --   1354.9247              1378.9669              1400.2161
 Red. masses --      1.7303                 1.5043                 2.0719
 Frc consts  --      1.8716                 1.6853                 2.3933
 IR Inten    --      6.0166                 1.7273                23.3428

                     37                     38                     39
                      A                      A                      A
 Frequencies --   1418.4704              1464.4847              1483.1398
 Red. masses --      1.2661                 1.2361                 1.2499
 Frc consts  --      1.5009                 1.5620                 1.6199
 IR Inten    --     67.2520                 5.6170                 6.3108

                     40                     41                     42
                      A                      A                      A
 Frequencies --   1498.2694              1697.1474              2989.8570
 Red. masses --      1.0902                 7.3395                 1.0662
 Frc consts  --      1.4419                12.4553                 5.6158
 IR Inten    --      0.6176                 2.8292                60.0183

                     43                     44                     45
                      A                      A                      A
 Frequencies --   3014.5438              3045.1911              3054.3114
 Red. masses --      1.0589                 1.1022                 1.0956
 Frc consts  --      5.6696                 6.0221                 6.0220
 IR Inten    --     37.7896                20.4667                26.0129

                     46                     47                     48
                      A                      A                      A
 Frequencies --   3117.7379              3185.3469              3192.9378
 Red. masses --      1.0533                 1.0932                 1.0923
 Frc consts  --      6.0321                 6.5353                 6.5611
 IR Inten    --     14.6686                15.7424                 1.9907

                     49                     50                     51
                      A                      A                      A
 Frequencies --   3213.1674              3795.3999              3806.8365
 Red. masses --      1.1157                 1.0662                 1.0662
 Frc consts  --      6.7868                 9.0492                 9.1037
 IR Inten    --      9.7809                18.7471                15.4784

 - Thermochemistry -
 -------------------
 Temperature   298.150 Kelvin.  Pressure   1.00000 Atm.
 Atom     1 has atomic number  8 and mass  15.99491

 Molecular mass:   126.06808 amu.
 Principal axes and moments of inertia in atomic units:
                           1         2         3
     Eigenvalues --   572.315711627.753411812.79079
           X            0.99998   0.00469  -0.00465
           Y           -0.00489   0.99905  -0.04338
           Z            0.00444   0.04340   0.99905
 This molecule is an asymmetric top.
 Rotational symmetry number  1.
 Warning -- assumption of classical behavior for rotation
           may cause significant error
 Rotational temperatures (Kelvin)      0.15134     0.05321     0.04778
 Rotational constants (GHZ):           3.15340     1.10873     0.99556
 Zero-point vibrational energy     417311.0 (Joules/Mol)
                                   99.73973 (Kcal/Mol)
 Warning -- explicit consideration of  12 degrees of freedom as
           vibrations may cause significant error
 Vibrational temperatures:    116.23   161.18   302.67   370.79   403.60
          (Kelvin)            434.72   515.91   568.63   605.35   620.06
                              823.65   881.70   953.97  1088.54  1175.65
                             1191.17  1279.87  1316.47  1370.16  1406.38
                             1434.21  1444.18  1458.91  1511.88  1522.96
                             1558.81  1654.28  1697.77  1721.31  1779.51
                             1788.90  1864.91  1891.79  1949.43  1984.02
                             2014.60  2040.86  2107.06  2133.90  2155.67
                             2441.81  4301.73  4337.25  4381.35  4394.47
                             4485.72  4583.00  4593.92  4623.03  5460.73
                             5477.18

 Zero-point correction=                           0.158945 (Hartree/Particle)
 Thermal correction to Energy=                    0.167616
 Thermal correction to Enthalpy=                  0.168560
 Thermal correction to Gibbs Free Energy=         0.125701
 Sum of electronic and zero-point Energies=           -423.014080
 Sum of electronic and thermal Energies=              -423.005409
 Sum of electronic and thermal Enthalpies=            -423.004465
 Sum of electronic and thermal Free Energies=         -423.047325

                     E (Thermal)             CV                S
                      KCal/Mol        Cal/Mol-Kelvin    Cal/Mol-Kelvin
 Total                  105.181             33.553             90.206
 Electronic               0.000              0.000              0.000
 Translational            0.889              2.981             40.409
 Rotational               0.889              2.981             28.914
 Vibrational            103.403             27.591             20.883
 Vibration     1          0.600              1.962              3.872
 Vibration     2          0.607              1.940              3.233
 Vibration     3          0.643              1.825              2.041
 Vibration     4          0.667              1.750              1.677
 Vibration     5          0.680              1.710              1.531
 Vibration     6          0.694              1.670              1.405
 Vibration     7          0.733              1.558              1.128
 Vibration     8          0.762              1.480              0.980
 Vibration     9          0.783              1.425              0.889
 Vibration    10          0.792              1.403              0.856
 Vibration    11          0.929              1.091              0.500
 Vibration    12          0.972              1.005              0.428

 Optimization completed.
    -- Stationary point found.
 Normal termination of Gaussian 09 at Tue Jan 28 13:22:40 2020.
