 Gaussian 09, Revision D.01,
 Gaussian 09:  ES64L-G09RevD.01 24-Apr-2013

 -----------------------------
 # b3lyp 6-31G(2df,p) opt Freq
 -----------------------------

 -----
 titel
 -----
 Symbolic Z-matrix:
 Charge =  0 Multiplicity = 1

 SCF Done:  E(RB3LYP) =  -423.149509674     A.U. after   14 cycles
 Optimization completed.
    -- Stationary point found.
 Normal termination of Gaussian 09 at Tue Jan 28 08:59:29 2020.

 ----------------------------------------------------------------------
 #N Geom=AllCheck Guess=TCheck SCRF=Check GenChk RB3LYP/6-31G(2df,p) Fr
 eq
 ----------------------------------------------------------------------

 Structure from the checkpoint file:  "/scratch/puck/g09_359cd2b9-5ae8-4fe5-a8eb-56c2fe6d7571/Gau-15827.chk"
 -----
 titel
 -----
 Charge =  0 Multiplicity = 1

                         Standard orientation:
 ---------------------------------------------------------------------
 Center     Atomic      Atomic             Coordinates (Angstroms)
 Number     Number       Type             X           Y           Z
 ---------------------------------------------------------------------
      1          6           0        1.028007    2.317389    0.350702
      2          6           0        0.470183    1.371550   -0.720978
      3          6           0        0.372769   -0.067192   -0.244557
      4          6           0        1.656288   -0.809681   -0.125411
      5          8           0        1.756758   -1.969184    0.208848
      6          6           0       -0.797437   -1.018903   -0.555490
      7          6           0       -2.115513   -0.257485   -0.524843
      8          8           0       -1.803283    0.289916    0.789429
      9          6           0       -0.623376   -0.501882    0.833023
     10          1           0        1.116241    3.337205   -0.035755
     11          1           0        0.365862    2.339764    1.221224
     12          1           0        2.021211    2.005356    0.691075
     13          1           0       -0.513051    1.730988   -1.032623
     14          1           0        1.102638    1.403059   -1.617678
     15          1           0        2.560402   -0.207202   -0.366693
     16          1           0       -0.614617   -2.006395   -0.954440
     17          1           0       -2.301582    0.520356   -1.272801
     18          1           0       -2.982033   -0.923617   -0.458115
     19          1           0       -0.328404   -0.968142    1.764908
 ---------------------------------------------------------------------

 SCF Done:  E(RB3LYP) =  -423.149509674     A.U. after    1 cycles

 The electronic state is 1-A.
 Alpha  occ. eigenvalues --  -19.15482 -19.13518 -10.26980 -10.25454 -10.24913
 Alpha  occ. eigenvalues --  -10.21132 -10.21070 -10.19415 -10.18003  -1.06915
 Alpha  occ. eigenvalues --   -1.04220  -0.85701  -0.77056  -0.71551  -0.67085
 Alpha  occ. eigenvalues --   -0.62231  -0.56335  -0.55371  -0.52966  -0.48142
 Alpha  occ. eigenvalues --   -0.47622  -0.44422  -0.44217  -0.41912  -0.41652
 Alpha  occ. eigenvalues --   -0.40232  -0.38256  -0.36536  -0.35148  -0.34226
 Alpha  occ. eigenvalues --   -0.33044  -0.28762  -0.25849  -0.24218
 Alpha virt. eigenvalues --   -0.02681   0.06981   0.09190   0.09852   0.11792
 Alpha virt. eigenvalues --    0.12442   0.13912   0.14770   0.15213   0.16244
 Alpha virt. eigenvalues --    0.17521   0.17682   0.19677   0.20714   0.21041

 Mulliken charges:
               1
     1  C   -0.379300
     2  C   -0.290880
     3  C    0.191926
     4  C    0.092722
     5  O   -0.280572
     6  C   -0.170319
     7  C   -0.123875
     8  O   -0.287888
     9  C    0.093687
    10  H    0.115840
    11  H    0.136303
    12  H    0.116198
    13  H    0.115655
    14  H    0.101051
    15  H    0.076866
    16  H    0.124863
    17  H    0.115657
    18  H    0.124217
    19  H    0.127848
 Sum of Mulliken charges =   0.00000

 Dipole moment (field-independent basis, Debye):
    X=             -0.7899    Y=              1.3421    Z=             -1.4790  Tot=              2.1477
 Quadrupole moment (field-independent basis, Debye-Ang):
   XX=            -54.2660   YY=            -57.6987   ZZ=            -52.2752
   XY=              6.6104   XZ=              2.0881   YZ=             -0.1235

  Exact polarizability:  88.391   1.686  78.146   1.909  -2.149  62.881
 Approx polarizability: 125.838  -4.027 115.280  -0.048  -3.090 101.532

                      1                      2                      3
                      A                      A                      A
 Frequencies --     58.3393               110.5411               163.5311
 Red. masses --      2.4108                 3.5589                 3.7130
 Frc consts  --      0.0048                 0.0256                 0.0585
 IR Inten    --      0.2857                 9.7001                 3.0223

                      4                      5                      6
                      A                      A                      A
 Frequencies --    209.2144               211.3335               235.3146
 Red. masses --      1.4955                 2.8283                 2.4170
 Frc consts  --      0.0386                 0.0744                 0.0789
 IR Inten    --      0.6682                 4.5654                 1.7753

                      7                      8                      9
                      A                      A                      A
 Frequencies --    294.5677               343.4392               450.1066
 Red. masses --      1.9538                 2.8047                 4.1066
 Frc consts  --      0.0999                 0.1949                 0.4902
 IR Inten    --      0.1115                 5.1811                 2.9761

                     10                     11                     12
                      A                      A                      A
 Frequencies --    486.8446               653.8448               683.1110
 Red. masses --      2.8570                 3.6067                 3.2851
 Frc consts  --      0.3990                 0.9085                 0.9032
 IR Inten    --      5.1157                 7.3778                 3.3733

                     13                     14                     15
                      A                      A                      A
 Frequencies --    752.1781               771.5670               850.7599
 Red. masses --      3.5163                 1.3444                 1.8502
 Frc consts  --      1.1721                 0.4716                 0.7890
 IR Inten    --     18.0309                12.6337                 1.6556

                     16                     17                     18
                      A                      A                      A
 Frequencies --    886.7427               939.3452               952.8380
 Red. masses --      2.2913                 2.7855                 2.0869
 Frc consts  --      1.0615                 1.4481                 1.1163
 IR Inten    --      6.2294                48.2505                47.0567

                     19                     20                     21
                      A                      A                      A
 Frequencies --    973.3063               994.6824              1015.1445
 Red. masses --      2.1664                 1.7863                 2.0468
 Frc consts  --      1.2092                 1.0413                 1.2427
 IR Inten    --     93.2619                 5.9278                 1.7347

                     22                     23                     24
                      A                      A                      A
 Frequencies --   1046.5159              1057.8793              1083.3771
 Red. masses --      1.9622                 1.7562                 1.8811
 Frc consts  --      1.2662                 1.1580                 1.3008
 IR Inten    --      5.4045                16.7108                 6.2778

                     25                     26                     27
                      A                      A                      A
 Frequencies --   1095.9859              1112.1407              1156.0233
 Red. masses --      2.8392                 2.3625                 1.1769
 Frc consts  --      2.0093                 1.7216                 0.9266
 IR Inten    --      9.9720                15.6706                 5.9256

                     28                     29                     30
                      A                      A                      A
 Frequencies --   1211.2020              1232.9542              1265.5235
 Red. masses --      2.0130                 1.3274                 1.9428
 Frc consts  --      1.7399                 1.1889                 1.8332
 IR Inten    --     15.8231                 4.6364                 4.9296

                     31                     32                     33
                      A                      A                      A
 Frequencies --   1295.6967              1326.1036              1365.7954
 Red. masses --      1.7811                 1.4354                 1.4826
 Frc consts  --      1.7618                 1.4873                 1.6295
 IR Inten    --      3.6525                13.4191                 7.1898

                     34                     35                     36
                      A                      A                      A
 Frequencies --   1383.6853              1410.2726              1438.1214
 Red. masses --      2.2506                 1.2342                 1.3416
 Frc consts  --      2.5388                 1.4463                 1.6348
 IR Inten    --     49.4795                 3.3746                 3.1226

                     37                     38                     39
                      A                      A                      A
 Frequencies --   1479.8279              1498.2580              1504.4169
 Red. masses --      1.0757                 1.0450                 1.0644
 Frc consts  --      1.3880                 1.3821                 1.4194
 IR Inten    --      1.7628                 3.9107                 3.0438

                     40                     41                     42
                      A                      A                      A
 Frequencies --   1512.1602              1791.6924              2879.6012
 Red. masses --      1.0995                10.1302                 1.0827
 Frc consts  --      1.4812                19.1599                 5.2896
 IR Inten    --      0.9888               166.6348               114.5134

                     43                     44                     45
                      A                      A                      A
 Frequencies --   3028.2507              3037.2198              3037.3964
 Red. masses --      1.0706                 1.0551                 1.0356
 Frc consts  --      5.7842                 5.7345                 5.6294
 IR Inten    --     24.8714                51.1466                27.2402

                     46                     47                     48
                      A                      A                      A
 Frequencies --   3087.1358              3091.5093              3110.1881
 Red. masses --      1.1104                 1.0942                 1.0976
 Frc consts  --      6.2352                 6.1618                 6.2556
 IR Inten    --     28.8307                 1.2252                39.2539

                     49                     50                     51
                      A                      A                      A
 Frequencies --   3117.3537              3196.2466              3221.6914
 Red. masses --      1.1021                 1.0915                 1.0965
 Frc consts  --      6.3104                 6.5696                 6.7052
 IR Inten    --     25.6668                 7.3534                 1.7534

 - Thermochemistry -
 -------------------
 Temperature   298.150 Kelvin.  Pressure   1.00000 Atm.
 Atom     1 has atomic number  6 and mass  12.00000

 Molecular mass:   126.06808 amu.
 Principal axes and moments of inertia in atomic units:
                           1         2         3
     Eigenvalues --   889.768591054.361531613.82419
           X            0.96406   0.26497   0.01949
           Y           -0.26505   0.96423   0.00139
           Z           -0.01842  -0.00650   0.99981
 This molecule is an asymmetric top.
 Rotational symmetry number  1.
 Warning -- assumption of classical behavior for rotation
           may cause significant error
 Rotational temperatures (Kelvin)      0.09734     0.08215     0.05367
 Rotational constants (GHZ):           2.02833     1.71169     1.11830
 Zero-point vibrational energy     413375.4 (Joules/Mol)
                                   98.79910 (Kcal/Mol)
 Warning -- explicit consideration of  10 degrees of freedom as
           vibrations may cause significant error
 Vibrational temperatures:     83.94   159.04   235.28   301.01   304.06
          (Kelvin)            338.56   423.82   494.13   647.60   700.46
                              940.74   982.84  1082.22  1110.11  1224.05
                             1275.82  1351.51  1370.92  1400.37  1431.12
                             1460.56  1505.70  1522.05  1558.74  1576.88
                             1600.12  1663.26  1742.65  1773.94  1820.80
                             1864.22  1907.96  1965.07  1990.81  2029.07
                             2069.13  2129.14  2155.66  2164.52  2175.66
                             2577.84  4143.10  4356.97  4369.88  4370.13
                             4441.69  4447.99  4474.86  4485.17  4598.68
                             4635.29

 Zero-point correction=                           0.157446 (Hartree/Particle)
 Thermal correction to Energy=                    0.166352
 Thermal correction to Enthalpy=                  0.167296
 Thermal correction to Gibbs Free Energy=         0.123474
 Sum of electronic and zero-point Energies=           -422.992063
 Sum of electronic and thermal Energies=              -422.983158
 Sum of electronic and thermal Enthalpies=            -422.982213
 Sum of electronic and thermal Free Energies=         -423.026035

                     E (Thermal)             CV                S
                      KCal/Mol        Cal/Mol-Kelvin    Cal/Mol-Kelvin
 Total                  104.387             32.766             92.231
 Electronic               0.000              0.000              0.000
 Translational            0.889              2.981             40.409
 Rotational               0.889              2.981             28.806
 Vibrational            102.610             26.804             23.017
 Vibration     1          0.596              1.974              4.513
 Vibration     2          0.606              1.941              3.259
 Vibration     3          0.623              1.887              2.509
 Vibration     4          0.642              1.827              2.051
 Vibration     5          0.643              1.824              2.032
 Vibration     6          0.655              1.787              1.838
 Vibration     7          0.689              1.684              1.448
 Vibration     8          0.722              1.589              1.196
 Vibration     9          0.809              1.361              0.795
 Vibration    10          0.843              1.279              0.692

 Optimization completed.
    -- Stationary point found.
 Normal termination of Gaussian 09 at Tue Jan 28 09:42:23 2020.
