 Gaussian 09, Revision D.01,
 Gaussian 09:  ES64L-G09RevD.01 24-Apr-2013

 -----------------------------
 # b3lyp 6-31G(2df,p) opt Freq
 -----------------------------

 -----
 titel
 -----
 Symbolic Z-matrix:
 Charge =  0 Multiplicity = 1

 SCF Done:  E(RB3LYP) =  -423.182545485     A.U. after   14 cycles
 Optimization completed.
    -- Stationary point found.
 Normal termination of Gaussian 09 at Mon Jan 27 13:26:45 2020.

 ----------------------------------------------------------------------
 #N Geom=AllCheck Guess=TCheck SCRF=Check GenChk RB3LYP/6-31G(2df,p) Fr
 eq
 ----------------------------------------------------------------------

 Structure from the checkpoint file:  "/scratch/puck/g09_01368cb5-7370-4f3c-b77f-63db11e68394/Gau-55481.chk"
 -----
 titel
 -----
 Charge =  0 Multiplicity = 1

                         Standard orientation:
 ---------------------------------------------------------------------
 Center     Atomic      Atomic             Coordinates (Angstroms)
 Number     Number       Type             X           Y           Z
 ---------------------------------------------------------------------
      1          8           0       -2.374335   -1.359934   -0.163518
      2          6           0       -2.048121   -0.225233   -0.397174
      3          6           0       -1.141675    0.616932    0.499313
      4          6           0       -0.023417   -0.203726    1.157628
      5          6           0        1.094519   -0.031990    0.141972
      6          6           0        2.444197   -0.670253    0.259204
      7          6           0        1.473163   -1.150678   -0.797394
      8          6           0        0.891818    1.381274   -0.369559
      9          8           0       -0.519082    1.620156   -0.305353
     10          1           0       -2.390830    0.318254   -1.305521
     11          1           0       -1.789691    1.110099    1.239074
     12          1           0        0.251433    0.227874    2.125962
     13          1           0       -0.334117   -1.239423    1.308451
     14          1           0        3.309999   -0.101689   -0.065769
     15          1           0        2.633194   -1.313621    1.112203
     16          1           0        1.685010   -0.901699   -1.832317
     17          1           0        1.000496   -2.116859   -0.656988
     18          1           0        1.412180    2.115074    0.264854
     19          1           0        1.226763    1.522255   -1.402914
 ---------------------------------------------------------------------

 SCF Done:  E(RB3LYP) =  -423.182545485     A.U. after    1 cycles

 The electronic state is 1-A.
 Alpha  occ. eigenvalues --  -19.14523 -19.14500 -10.26963 -10.24242 -10.23371
 Alpha  occ. eigenvalues --  -10.20555 -10.19397 -10.19354 -10.19135  -1.05401
 Alpha  occ. eigenvalues --   -1.03825  -0.87061  -0.77208  -0.72617  -0.64463
 Alpha  occ. eigenvalues --   -0.61023  -0.56754  -0.56012  -0.50394  -0.50203
 Alpha  occ. eigenvalues --   -0.47944  -0.46129  -0.43830  -0.42599  -0.42162
 Alpha  occ. eigenvalues --   -0.39602  -0.37451  -0.36986  -0.35828  -0.32039
 Alpha  occ. eigenvalues --   -0.29919  -0.29278  -0.27653  -0.23985
 Alpha virt. eigenvalues --   -0.02638   0.08672   0.09343   0.10028   0.10688
 Alpha virt. eigenvalues --    0.12694   0.13885   0.14984   0.15694   0.16422
 Alpha virt. eigenvalues --    0.18102   0.18550   0.19373   0.22358   0.22557

 Mulliken charges:
               1
     1  O   -0.244072
     2  C    0.143769
     3  C    0.030306
     4  C   -0.331473
     5  C    0.347818
     6  C   -0.342650
     7  C   -0.304250
     8  C   -0.130644
     9  O   -0.280984
    10  H    0.091542
    11  H    0.103203
    12  H    0.105872
    13  H    0.132206
    14  H    0.115481
    15  H    0.118266
    16  H    0.115073
    17  H    0.126315
    18  H    0.096425
    19  H    0.107797
 Sum of Mulliken charges =   0.00000

 Dipole moment (field-independent basis, Debye):
    X=              1.9052    Y=              0.8559    Z=              0.5287  Tot=              2.1545
 Quadrupole moment (field-independent basis, Debye-Ang):
   XX=            -54.6038   YY=            -58.1536   ZZ=            -50.9164
   XY=             -3.1450   XZ=             -1.0473   YZ=              0.1295

  Exact polarizability:  82.370   1.421  73.590   0.549  -0.638  69.300
 Approx polarizability: 108.246   4.969 114.765   0.612  -2.436 103.534

                      1                      2                      3
                      A                      A                      A
 Frequencies --     45.9680                96.0140               102.7108
 Red. masses --      5.6562                 2.6692                 3.1265
 Frc consts  --      0.0070                 0.0145                 0.0194
 IR Inten    --      2.3652                 5.6932                 5.1258

                      4                      5                      6
                      A                      A                      A
 Frequencies --    221.0902               283.3847               340.2042
 Red. masses --      3.1871                 2.7811                 2.2272
 Frc consts  --      0.0918                 0.1316                 0.1519
 IR Inten    --      4.9791                 4.6575                 1.5627

                      7                      8                      9
                      A                      A                      A
 Frequencies --    365.7427               391.2096               516.6815
 Red. masses --      2.7597                 2.0739                 4.4227
 Frc consts  --      0.2175                 0.1870                 0.6956
 IR Inten    --      6.6145                 0.1767                 2.3554

                     10                     11                     12
                      A                      A                      A
 Frequencies --    579.7654               702.1932               773.4114
 Red. masses --      3.7859                 4.4315                 3.2069
 Frc consts  --      0.7498                 1.2874                 1.1302
 IR Inten    --      4.4017                 8.8647                 0.9399

                     13                     14                     15
                      A                      A                      A
 Frequencies --    783.3171               832.6424               878.5518
 Red. masses --      1.0514                 3.1985                 1.5221
 Frc consts  --      0.3801                 1.3065                 0.6922
 IR Inten    --      0.1465                 9.9927                 5.7803

                     16                     17                     18
                      A                      A                      A
 Frequencies --    906.9619               943.1018               949.8531
 Red. masses --      3.4952                 2.4044                 1.3778
 Frc consts  --      1.6939                 1.2600                 0.7324
 IR Inten    --      8.1363                33.4429                 0.2578

                     19                     20                     21
                      A                      A                      A
 Frequencies --    973.4914               987.3128              1042.6467
 Red. masses --      1.7992                 2.8219                 1.6826
 Frc consts  --      1.0046                 1.6207                 1.0777
 IR Inten    --      3.2053                 8.5717                 5.5537

                     22                     23                     24
                      A                      A                      A
 Frequencies --   1049.8882              1056.8542              1082.7513
 Red. masses --      1.7812                 1.4148                 1.4468
 Frc consts  --      1.1568                 0.9310                 0.9994
 IR Inten    --      4.9739                 3.2450                 2.0954

                     25                     26                     27
                      A                      A                      A
 Frequencies --   1094.7549              1114.0035              1184.9314
 Red. masses --      5.8396                 2.1853                 1.2784
 Frc consts  --      4.1235                 1.5978                 1.0576
 IR Inten    --    122.1016                 5.6901                 7.7582

                     28                     29                     30
                      A                      A                      A
 Frequencies --   1187.7334              1213.8107              1266.5184
 Red. masses --      1.3137                 1.2300                 1.9494
 Frc consts  --      1.0919                 1.0677                 1.8424
 IR Inten    --      3.7847                 2.2289                 4.0861

                     31                     32                     33
                      A                      A                      A
 Frequencies --   1291.8420              1316.8218              1344.3348
 Red. masses --      1.6774                 1.6694                 1.4157
 Frc consts  --      1.6493                 1.7055                 1.5074
 IR Inten    --      0.5452                 2.9845                 4.8292

                     34                     35                     36
                      A                      A                      A
 Frequencies --   1352.3547              1392.4923              1413.4777
 Red. masses --      1.5379                 1.2762                 1.7591
 Frc consts  --      1.6571                 1.4580                 2.0707
 IR Inten    --      2.8545                 6.1912                 4.5901

                     37                     38                     39
                      A                      A                      A
 Frequencies --   1468.7135              1487.9015              1507.9221
 Red. masses --      1.0863                 1.1061                 1.4583
 Frc consts  --      1.3806                 1.4427                 1.9537
 IR Inten    --      2.3786                 7.2141                 0.1685

                     40                     41                     42
                      A                      A                      A
 Frequencies --   1525.4112              1831.4316              2896.0613
 Red. masses --      1.1101                10.8270                 1.0847
 Frc consts  --      1.5219                21.3964                 5.3602
 IR Inten    --      0.4006               118.4357                93.5758

                     43                     44                     45
                      A                      A                      A
 Frequencies --   2984.4473              2997.4287              3049.8261
 Red. masses --      1.0685                 1.0823                 1.0659
 Frc consts  --      5.6072                 5.7293                 5.8413
 IR Inten    --     75.6361                28.9673                31.0249

                     46                     47                     48
                      A                      A                      A
 Frequencies --   3061.9943              3120.0734              3125.2478
 Red. masses --      1.0956                 1.0990                 1.0512
 Frc consts  --      6.0524                 6.3034                 6.0495
 IR Inten    --     30.9599                 4.0460                17.5230

                     49                     50                     51
                      A                      A                      A
 Frequencies --   3129.9415              3204.1553              3219.5975
 Red. masses --      1.0578                 1.1177                 1.1158
 Frc consts  --      6.1058                 6.7611                 6.8145
 IR Inten    --      9.5272                 0.6377                13.7988

 - Thermochemistry -
 -------------------
 Temperature   298.150 Kelvin.  Pressure   1.00000 Atm.
 Atom     1 has atomic number  8 and mass  15.99491

 Molecular mass:   126.06808 amu.
 Principal axes and moments of inertia in atomic units:
                           1         2         3
     Eigenvalues --   671.465151308.169771623.52848
           X            0.99962  -0.02709  -0.00494
           Y            0.02708   0.99963  -0.00161
           Z            0.00498   0.00148   0.99999
 This molecule is an asymmetric top.
 Rotational symmetry number  1.
 Warning -- assumption of classical behavior for rotation
           may cause significant error
 Rotational temperatures (Kelvin)      0.12899     0.06621     0.05335
 Rotational constants (GHZ):           2.68777     1.37959     1.11162
 Zero-point vibrational energy     416832.6 (Joules/Mol)
                                   99.62539 (Kcal/Mol)
 Warning -- explicit consideration of  10 degrees of freedom as
           vibrations may cause significant error
 Vibrational temperatures:     66.14   138.14   147.78   318.10   407.73
          (Kelvin)            489.48   526.22   562.86   743.39   834.15
                             1010.30  1112.77  1127.02  1197.99  1264.04
                             1304.91  1356.91  1366.63  1400.64  1420.52
                             1500.13  1510.55  1520.58  1557.84  1575.11
                             1602.80  1704.85  1708.88  1746.40  1822.24
                             1858.67  1894.61  1934.20  1945.73  2003.48
                             2033.68  2113.15  2140.76  2169.56  2194.72
                             2635.02  4166.78  4293.95  4312.63  4388.01
                             4405.52  4489.08  4496.53  4503.28  4610.06
                             4632.28

 Zero-point correction=                           0.158763 (Hartree/Particle)
 Thermal correction to Energy=                    0.167238
 Thermal correction to Enthalpy=                  0.168182
 Thermal correction to Gibbs Free Energy=         0.124771
 Sum of electronic and zero-point Energies=           -423.023782
 Sum of electronic and thermal Energies=              -423.015308
 Sum of electronic and thermal Enthalpies=            -423.014363
 Sum of electronic and thermal Free Energies=         -423.057775

                     E (Thermal)             CV                S
                      KCal/Mol        Cal/Mol-Kelvin    Cal/Mol-Kelvin
 Total                  104.943             31.460             91.367
 Electronic               0.000              0.000              0.000
 Translational            0.889              2.981             40.409
 Rotational               0.889              2.981             28.746
 Vibrational            103.166             25.498             22.212
 Vibration     1          0.595              1.979              4.984
 Vibration     2          0.603              1.952              3.534
 Vibration     3          0.605              1.947              3.402
 Vibration     4          0.648              1.809              1.950
 Vibration     5          0.682              1.704              1.513
 Vibration     6          0.720              1.595              1.211
 Vibration     7          0.739              1.543              1.098
 Vibration     8          0.759              1.489              0.996
 Vibration     9          0.872              1.213              0.618
 Vibration    10          0.936              1.075              0.486

 Normal termination of Gaussian 09 at Mon Jan 27 14:12:54 2020.
