 Gaussian 09, Revision D.01,
 Gaussian 09:  ES64L-G09RevD.01 24-Apr-2013

 -----------------------------
 # b3lyp 6-31G(2df,p) opt Freq
 -----------------------------

 -----
 titel
 -----
 Symbolic Z-matrix:
 Charge =  0 Multiplicity = 1

 SCF Done:  E(RB3LYP) =  -423.202144845     A.U. after   14 cycles
 Optimization completed.
    -- Stationary point found.
 Normal termination of Gaussian 09 at Tue Jan 28 14:14:29 2020.

 ----------------------------------------------------------------------
 #N Geom=AllCheck Guess=TCheck SCRF=Check GenChk RB3LYP/6-31G(2df,p) Fr
 eq
 ----------------------------------------------------------------------

 Structure from the checkpoint file:  "/scratch/puck/g09_0b48c89a-1f76-4f98-9638-2e77d6dbfbd8/Gau-98583.chk"
 -----
 titel
 -----
 Charge =  0 Multiplicity = 1

                         Standard orientation:
 ---------------------------------------------------------------------
 Center     Atomic      Atomic             Coordinates (Angstroms)
 Number     Number       Type             X           Y           Z
 ---------------------------------------------------------------------
      1          6           0       -3.435122    0.002857    0.289124
      2          8           0       -2.205884   -0.320811   -0.317527
      3          6           0       -1.127078    0.426748    0.199605
      4          6           0        0.147147   -0.025438   -0.514712
      5          6           0        0.594823   -1.433885   -0.223209
      6          6           0        1.857153   -1.496571    0.204453
      7          6           0        2.508388   -0.142029    0.288819
      8          6           0        1.369318    0.814987   -0.094407
      9          8           0        1.406244    2.017118   -0.050680
     10          1           0       -3.696260    1.062447    0.141704
     11          1           0       -4.203352   -0.618948   -0.176762
     12          1           0       -3.421809   -0.198973    1.371896
     13          1           0       -1.272696    1.505422    0.033579
     14          1           0       -1.032274    0.267147    1.287329
     15          1           0       -0.024767    0.126430   -1.590721
     16          1           0       -0.066643   -2.280389   -0.360140
     17          1           0        2.380013   -2.409673    0.464764
     18          1           0        2.897650    0.111878    1.282622
     19          1           0        3.349485   -0.015821   -0.406658
 ---------------------------------------------------------------------

 SCF Done:  E(RB3LYP) =  -423.202144845     A.U. after    1 cycles

 The electronic state is 1-A.
 Alpha  occ. eigenvalues --  -19.14391 -19.13447 -10.27167 -10.23261 -10.22635
 Alpha  occ. eigenvalues --  -10.19696 -10.19631 -10.19171 -10.18788  -1.04534
 Alpha  occ. eigenvalues --   -1.03657  -0.84952  -0.76177  -0.69975  -0.68155
 Alpha  occ. eigenvalues --   -0.62542  -0.55269  -0.53949  -0.48880  -0.48492
 Alpha  occ. eigenvalues --   -0.47551  -0.46173  -0.44091  -0.41722  -0.41118
 Alpha  occ. eigenvalues --   -0.40227  -0.38261  -0.37901  -0.35648  -0.34863
 Alpha  occ. eigenvalues --   -0.32215  -0.25965  -0.25443  -0.24304
 Alpha virt. eigenvalues --   -0.01988   0.01100   0.09422   0.11011   0.12868
 Alpha virt. eigenvalues --    0.13533   0.14153   0.14815   0.16081   0.16822
 Alpha virt. eigenvalues --    0.17390   0.17719   0.18812   0.19677   0.22996

 Mulliken charges:
               1
     1  C   -0.229661
     2  O   -0.238759
     3  C   -0.057728
     4  C   -0.173831
     5  C   -0.067013
     6  C   -0.081751
     7  C   -0.369412
     8  C    0.384603
     9  O   -0.312735
    10  H    0.107867
    11  H    0.127791
    12  H    0.105566
    13  H    0.109599
    14  H    0.087254
    15  H    0.118125
    16  H    0.112933
    17  H    0.101994
    18  H    0.137190
    19  H    0.137970
 Sum of Mulliken charges =   0.00000

 Dipole moment (field-independent basis, Debye):
    X=             -0.3369    Y=             -1.8006    Z=              0.6346  Tot=              1.9386
 Quadrupole moment (field-independent basis, Debye-Ang):
   XX=            -46.8703   YY=            -58.6809   ZZ=            -52.5535
   XY=             -5.0730   XZ=             -1.1808   YZ=             -0.3959

  Exact polarizability: 100.645  -1.273  76.529   5.672  -0.868  57.677
 Approx polarizability: 131.496   0.096 115.786  12.083   0.015  91.514

                      1                      2                      3
                      A                      A                      A
 Frequencies --     54.8741                86.3475                98.5861
 Red. masses --      3.0969                 2.6588                 2.1740
 Frc consts  --      0.0055                 0.0117                 0.0124
 IR Inten    --      2.5451                 2.1398                 4.4180

                      4                      5                      6
                      A                      A                      A
 Frequencies --    131.2293               220.6229               259.6934
 Red. masses --      4.0475                 1.4317                 2.1584
 Frc consts  --      0.0411                 0.0411                 0.0858
 IR Inten    --      4.9674                 3.3864                 0.4668

                      7                      8                      9
                      A                      A                      A
 Frequencies --    291.8862               363.9980               451.1399
 Red. masses --      4.8271                 3.3784                 2.1161
 Frc consts  --      0.2423                 0.2637                 0.2538
 IR Inten    --      0.6318                 1.5770                 1.2406

                     10                     11                     12
                      A                      A                      A
 Frequencies --    528.3757               584.9355               632.1180
 Red. masses --      3.5313                 3.3601                 4.1642
 Frc consts  --      0.5809                 0.6774                 0.9804
 IR Inten    --      7.2816                 2.0190                 2.5698

                     13                     14                     15
                      A                      A                      A
 Frequencies --    728.4323               762.4028               805.6242
 Red. masses --      1.3092                 4.9737                 2.8398
 Frc consts  --      0.4093                 1.7033                 1.0859
 IR Inten    --     35.8239                11.6260                 0.9090

                     16                     17                     18
                      A                      A                      A
 Frequencies --    900.6588               925.3958               971.4056
 Red. masses --      2.0073                 2.3627                 2.0862
 Frc consts  --      0.9593                 1.1921                 1.1599
 IR Inten    --      8.2546                 7.4584                10.7070

                     19                     20                     21
                      A                      A                      A
 Frequencies --    989.4106              1003.0714              1072.4679
 Red. masses --      1.2577                 3.4984                 2.2158
 Frc consts  --      0.7254                 2.0739                 1.5016
 IR Inten    --      0.2881                16.0191                22.3154

                     22                     23                     24
                      A                      A                      A
 Frequencies --   1091.2896              1128.9248              1146.1800
 Red. masses --      1.5579                 1.3639                 2.0989
 Frc consts  --      1.0931                 1.0241                 1.6246
 IR Inten    --      0.8174                34.7347                 6.5743

                     25                     26                     27
                      A                      A                      A
 Frequencies --   1153.0104              1165.7600              1183.8211
 Red. masses --      2.0243                 2.3860                 1.2959
 Frc consts  --      1.5856                 1.9104                 1.0701
 IR Inten    --    119.4777                66.8263                 4.0318

                     28                     29                     30
                      A                      A                      A
 Frequencies --   1221.5934              1241.6112              1254.8617
 Red. masses --      1.6933                 1.2421                 1.7944
 Frc consts  --      1.4888                 1.1282                 1.6648
 IR Inten    --     13.3616                 4.4841                31.8929

                     31                     32                     33
                      A                      A                      A
 Frequencies --   1282.7975              1323.3453              1380.4053
 Red. masses --      1.6809                 1.3599                 1.8365
 Frc consts  --      1.6297                 1.4031                 2.0619
 IR Inten    --      9.1036                 1.3891                 4.1280

                     34                     35                     36
                      A                      A                      A
 Frequencies --   1409.0520              1442.5063              1479.4033
 Red. masses --      1.3401                 1.0903                 1.1522
 Frc consts  --      1.5676                 1.3367                 1.4857
 IR Inten    --     42.0331                 5.7094                 1.0291

                     37                     38                     39
                      A                      A                      A
 Frequencies --   1484.4602              1503.6165              1528.6198
 Red. masses --      1.0471                 1.0593                 1.0902
 Frc consts  --      1.3595                 1.4110                 1.5010
 IR Inten    --      5.1391                10.2681                 1.6075

                     40                     41                     42
                      A                      A                      A
 Frequencies --   1677.8608              1845.8572              2956.0625
 Red. masses --      6.4705                12.8359                 1.0572
 Frc consts  --     10.7324                25.7675                 5.4428
 IR Inten    --      0.0634               176.7467                25.5738

                     43                     44                     45
                      A                      A                      A
 Frequencies --   2973.8504              2999.0429              3011.7463
 Red. masses --      1.0404                 1.0853                 1.0933
 Frc consts  --      5.4211                 5.7513                 5.8430
 IR Inten    --     73.3407                11.0290                64.0166

                     46                     47                     48
                      A                      A                      A
 Frequencies --   3017.6321              3023.2655              3055.2648
 Red. masses --      1.1034                 1.0630                 1.0970
 Frc consts  --      5.9199                 5.7246                 6.0331
 IR Inten    --     35.1469                15.2649                 7.8764

                     49                     50                     51
                      A                      A                      A
 Frequencies --   3115.2586              3193.0063              3220.1448
 Red. masses --      1.0962                 1.0866                 1.1017
 Frc consts  --      6.2681                 6.5269                 6.7305
 IR Inten    --     29.2714                 5.6452                11.7294

 - Thermochemistry -
 -------------------
 Temperature   298.150 Kelvin.  Pressure   1.00000 Atm.
 Atom     1 has atomic number  6 and mass  12.00000

 Molecular mass:   126.06808 amu.
 Principal axes and moments of inertia in atomic units:
                           1         2         3
     Eigenvalues --   572.467011780.481692232.81980
           X            0.99971  -0.02357  -0.00513
           Y            0.02357   0.99972   0.00026
           Z            0.00512  -0.00038   0.99999
 This molecule is an asymmetric top.
 Rotational symmetry number  1.
 Warning -- assumption of classical behavior for rotation
           may cause significant error
 Rotational temperatures (Kelvin)      0.15130     0.04865     0.03879
 Rotational constants (GHZ):           3.15257     1.01363     0.80828
 Zero-point vibrational energy     414942.2 (Joules/Mol)
                                   99.17358 (Kcal/Mol)
 Warning -- explicit consideration of  11 degrees of freedom as
           vibrations may cause significant error
 Vibrational temperatures:     78.95   124.23   141.84   188.81   317.43
          (Kelvin)            373.64   419.96   523.71   649.09   760.21
                              841.59   909.48  1048.05  1096.93  1159.11
                             1295.85  1331.44  1397.63  1423.54  1443.19
                             1543.04  1570.12  1624.27  1649.10  1658.92
                             1677.27  1703.25  1757.60  1786.40  1805.46
                             1845.66  1904.00  1986.09  2027.31  2075.44
                             2128.53  2135.80  2163.37  2199.34  2414.06
                             2655.77  4253.11  4278.70  4314.95  4333.23
                             4341.69  4349.80  4395.84  4482.16  4594.02
                             4633.06

 Zero-point correction=                           0.158043 (Hartree/Particle)
 Thermal correction to Energy=                    0.167184
 Thermal correction to Enthalpy=                  0.168128
 Thermal correction to Gibbs Free Energy=         0.123097
 Sum of electronic and zero-point Energies=           -423.044102
 Sum of electronic and thermal Energies=              -423.034961
 Sum of electronic and thermal Enthalpies=            -423.034017
 Sum of electronic and thermal Free Energies=         -423.079048

                     E (Thermal)             CV                S
                      KCal/Mol        Cal/Mol-Kelvin    Cal/Mol-Kelvin
 Total                  104.909             32.683             94.775
 Electronic               0.000              0.000              0.000
 Translational            0.889              2.981             40.409
 Rotational               0.889              2.981             29.211
 Vibrational            103.132             26.721             25.156
 Vibration     1          0.596              1.976              4.634
 Vibration     2          0.601              1.959              3.741
 Vibration     3          0.604              1.950              3.482
 Vibration     4          0.612              1.922              2.928
 Vibration     5          0.647              1.810              1.954
 Vibration     6          0.668              1.746              1.664
 Vibration     7          0.687              1.689              1.463
 Vibration     8          0.738              1.546              1.105
 Vibration     9          0.810              1.358              0.792
 Vibration    10          0.883              1.187              0.591
 Vibration    11          0.942              1.064              0.476

 Optimization completed.
    -- Stationary point found.
 Normal termination of Gaussian 09 at Tue Jan 28 14:56:42 2020.
