 Gaussian 09, Revision D.01,
 Gaussian 09:  ES64L-G09RevD.01 24-Apr-2013

 -----------------------------
 # b3lyp 6-31G(2df,p) opt Freq
 -----------------------------

 -----
 titel
 -----
 Symbolic Z-matrix:
 Charge =  0 Multiplicity = 1

 SCF Done:  E(RB3LYP) =  -423.126884744     A.U. after   14 cycles
 Optimization completed.
    -- Stationary point found.
 Normal termination of Gaussian 09 at Mon Jan 27 22:06:12 2020.

 ----------------------------------------------------------------------
 #N Geom=AllCheck Guess=TCheck SCRF=Check GenChk RB3LYP/6-31G(2df,p) Fr
 eq
 ----------------------------------------------------------------------

 Structure from the checkpoint file:  "/scratch/puck/g09_24000d3a-9903-463f-b5a7-c8ce86c8e9e3/Gau-111372.chk"
 -----
 titel
 -----
 Charge =  0 Multiplicity = 1

                         Standard orientation:
 ---------------------------------------------------------------------
 Center     Atomic      Atomic             Coordinates (Angstroms)
 Number     Number       Type             X           Y           Z
 ---------------------------------------------------------------------
      1          6           0        1.144045    1.813601    0.002728
      2          6           0        0.402296    0.520688   -0.215120
      3          6           0        1.108755   -0.803253   -0.321637
      4          8           0        2.485209   -0.745918   -0.071164
      5          6           0        0.186917   -0.548226    0.858834
      6          6           0       -1.334372   -0.722953    0.702574
      7          6           0       -1.587590   -0.853119   -0.815850
      8          6           0       -1.065740    0.596120   -0.704311
      9          8           0       -1.784676    0.676896    0.579251
     10          1           0        1.369783    2.307208   -0.950141
     11          1           0        0.538759    2.498253    0.605692
     12          1           0        2.090121    1.635297    0.516636
     13          1           0        0.838624   -1.522899   -1.091653
     14          1           0        2.740754   -1.567994    0.360171
     15          1           0        0.625786   -0.450788    1.845213
     16          1           0       -1.876926   -1.294102    1.455268
     17          1           0       -1.072455   -1.602779   -1.417562
     18          1           0       -2.656532   -0.855530   -1.025837
     19          1           0       -1.328048    1.388371   -1.405792
 ---------------------------------------------------------------------

 SCF Done:  E(RB3LYP) =  -423.126884744     A.U. after    1 cycles

 The electronic state is 1-A.
 Alpha  occ. eigenvalues --  -19.14784 -19.12598 -10.24120 -10.24047 -10.23883
 Alpha  occ. eigenvalues --  -10.19372 -10.18863 -10.18452 -10.16987  -1.04326
 Alpha  occ. eigenvalues --   -1.03100  -0.85682  -0.74028  -0.71740  -0.67357
 Alpha  occ. eigenvalues --   -0.62454  -0.55578  -0.53749  -0.52369  -0.50309
 Alpha  occ. eigenvalues --   -0.47799  -0.43568  -0.41831  -0.40176  -0.39803
 Alpha  occ. eigenvalues --   -0.38833  -0.37048  -0.35154  -0.33037  -0.32363
 Alpha  occ. eigenvalues --   -0.31049  -0.27197  -0.25015  -0.24102
 Alpha virt. eigenvalues --    0.07381   0.09132   0.10200   0.11077   0.11848
 Alpha virt. eigenvalues --    0.12563   0.14840   0.15600   0.16848   0.17645
 Alpha virt. eigenvalues --    0.17806   0.18219   0.19018   0.21634   0.22852

 Mulliken charges:
               1
     1  C   -0.483719
     2  C    0.333043
     3  C    0.013028
     4  O   -0.433962
     5  C   -0.151994
     6  C    0.057846
     7  C   -0.247312
     8  C    0.000531
     9  O   -0.298160
    10  H    0.112963
    11  H    0.127073
    12  H    0.135309
    13  H    0.084405
    14  H    0.288546
    15  H    0.095122
    16  H    0.079052
    17  H    0.097644
    18  H    0.113654
    19  H    0.076930
 Sum of Mulliken charges =   0.00000

 Dipole moment (field-independent basis, Debye):
    X=              0.4505    Y=             -2.0670    Z=             -0.3167  Tot=              2.1391
 Quadrupole moment (field-independent basis, Debye-Ang):
   XX=            -56.4935   YY=            -49.7573   ZZ=            -51.7253
   XY=             -0.5256   XZ=              3.9326   YZ=             -2.5682

  Exact polarizability:  81.341   1.132  74.562   1.401  -2.588  66.577
 Approx polarizability: 113.095  -3.536 111.332  -2.615  -4.873 106.186

                      1                      2                      3
                      A                      A                      A
 Frequencies --    190.2251               197.0345               247.0521
 Red. masses --      2.5687                 1.0865                 2.0855
 Frc consts  --      0.0548                 0.0249                 0.0750
 IR Inten    --      1.1223                 2.2707                23.7652

                      4                      5                      6
                      A                      A                      A
 Frequencies --    260.6020               277.2385               336.3868
 Red. masses --      4.0669                 1.5418                 3.1288
 Frc consts  --      0.1627                 0.0698                 0.2086
 IR Inten    --     27.2269                44.8091                 9.5422

                      7                      8                      9
                      A                      A                      A
 Frequencies --    386.3916               464.4877               520.5963
 Red. masses --      2.4217                 4.7856                 2.9588
 Frc consts  --      0.2130                 0.6083                 0.4725
 IR Inten    --      4.9509                 6.4511                 0.5638

                     10                     11                     12
                      A                      A                      A
 Frequencies --    619.5706               637.3106               716.1097
 Red. masses --      3.6168                 3.7846                 3.2608
 Frc consts  --      0.8180                 0.9057                 0.9852
 IR Inten    --     16.3840                 3.5476                 5.1580

                     13                     14                     15
                      A                      A                      A
 Frequencies --    810.2647               828.1544               845.6602
 Red. masses --      3.7874                 3.7547                 3.6618
 Frc consts  --      1.4650                 1.5172                 1.5429
 IR Inten    --     12.2763                 8.5224                14.5051

                     16                     17                     18
                      A                      A                      A
 Frequencies --    882.3550               905.0014               931.2059
 Red. masses --      3.1543                 2.7171                 1.8955
 Frc consts  --      1.4469                 1.3112                 0.9684
 IR Inten    --     17.9420                11.8070                15.4274

                     19                     20                     21
                      A                      A                      A
 Frequencies --    951.9563               972.8234              1016.9505
 Red. masses --      1.7223                 1.9680                 1.9776
 Frc consts  --      0.9196                 1.0974                 1.2050
 IR Inten    --     21.1140                19.0130                 1.9411

                     22                     23                     24
                      A                      A                      A
 Frequencies --   1035.5306              1059.8805              1065.2251
 Red. masses --      1.4904                 1.2980                 2.8385
 Frc consts  --      0.9416                 0.8591                 1.8977
 IR Inten    --      4.2085                10.5731                11.3477

                     25                     26                     27
                      A                      A                      A
 Frequencies --   1095.7924              1125.8918              1146.4094
 Red. masses --      1.3454                 1.7179                 3.6332
 Frc consts  --      0.9518                 1.2830                 2.8133
 IR Inten    --      2.6043                11.8132                59.4059

                     28                     29                     30
                      A                      A                      A
 Frequencies --   1176.7746              1213.5144              1228.0126
 Red. masses --      1.5641                 1.6274                 1.5782
 Frc consts  --      1.2762                 1.4120                 1.4022
 IR Inten    --      6.6445                 3.1808                 1.4170

                     31                     32                     33
                      A                      A                      A
 Frequencies --   1259.8846              1266.9508              1277.9710
 Red. masses --      1.6569                 1.5337                 1.6675
 Frc consts  --      1.5496                 1.4504                 1.6046
 IR Inten    --      9.9372                84.4476                 4.8464

                     34                     35                     36
                      A                      A                      A
 Frequencies --   1289.0943              1309.5110              1364.2631
 Red. masses --      1.4413                 1.5448                 1.5504
 Frc consts  --      1.4112                 1.5608                 1.7001
 IR Inten    --      2.5730                 9.9236                 4.7801

                     37                     38                     39
                      A                      A                      A
 Frequencies --   1409.8663              1458.7702              1496.1049
 Red. masses --      1.3811                 2.1118                 1.0524
 Frc consts  --      1.6174                 2.6478                 1.3879
 IR Inten    --      2.2851                 5.2769                 4.2274

                     40                     41                     42
                      A                      A                      A
 Frequencies --   1498.7769              1507.7910              3029.8809
 Red. masses --      1.0795                 1.1271                 1.0401
 Frc consts  --      1.4287                 1.5097                 5.6258
 IR Inten    --      6.2568                 2.8988                34.9589

                     43                     44                     45
                      A                      A                      A
 Frequencies --   3082.4695              3089.8942              3112.6216
 Red. masses --      1.0619                 1.0983                 1.0848
 Frc consts  --      5.9447                 6.1780                 6.1925
 IR Inten    --     14.9105                18.3623                47.8833

                     46                     47                     48
                      A                      A                      A
 Frequencies --   3121.6986              3127.9653              3136.9200
 Red. masses --      1.0893                 1.0921                 1.0980
 Frc consts  --      6.2542                 6.2957                 6.3656
 IR Inten    --     57.4627                28.3286                 9.1225

                     49                     50                     51
                      A                      A                      A
 Frequencies --   3151.7681              3181.7171              3809.9276
 Red. masses --      1.1068                 1.0911                 1.0662
 Frc consts  --      6.4778                 6.5079                 9.1188
 IR Inten    --     24.5096                 9.7881                28.2320

 - Thermochemistry -
 -------------------
 Temperature   298.150 Kelvin.  Pressure   1.00000 Atm.
 Atom     1 has atomic number  6 and mass  12.00000

 Molecular mass:   126.06808 amu.
 Principal axes and moments of inertia in atomic units:
                           1         2         3
     Eigenvalues --   589.240031165.538201402.11765
           X            0.99896   0.04087   0.02044
           Y           -0.04084   0.99916  -0.00179
           Z           -0.02050   0.00096   0.99979
 This molecule is an asymmetric top.
 Rotational symmetry number  1.
 Warning -- assumption of classical behavior for rotation
           may cause significant error
 Rotational temperatures (Kelvin)      0.14699     0.07431     0.06177
 Rotational constants (GHZ):           3.06283     1.54842     1.28715
 Zero-point vibrational energy     419460.1 (Joules/Mol)
                                  100.25337 (Kcal/Mol)
 Warning -- explicit consideration of  10 degrees of freedom as
           vibrations may cause significant error
 Vibrational temperatures:    273.69   283.49   355.45   374.95   398.88
          (Kelvin)            483.99   555.93   668.29   749.02   891.42
                              916.95  1030.32  1165.79  1191.53  1216.71
                             1269.51  1302.09  1339.80  1369.65  1399.67
                             1463.16  1489.90  1524.93  1532.62  1576.60
                             1619.91  1649.43  1693.11  1745.97  1766.83
                             1812.69  1822.86  1838.71  1854.72  1884.09
                             1962.87  2028.48  2098.84  2152.56  2156.40
                             2169.37  4359.32  4434.98  4445.66  4478.36
                             4491.42  4500.44  4513.32  4534.69  4577.78
                             5481.63

 Zero-point correction=                           0.159764 (Hartree/Particle)
 Thermal correction to Energy=                    0.167502
 Thermal correction to Enthalpy=                  0.168446
 Thermal correction to Gibbs Free Energy=         0.128137
 Sum of electronic and zero-point Energies=           -422.967121
 Sum of electronic and thermal Energies=              -422.959383
 Sum of electronic and thermal Enthalpies=            -422.958438
 Sum of electronic and thermal Free Energies=         -422.998748

                     E (Thermal)             CV                S
                      KCal/Mol        Cal/Mol-Kelvin    Cal/Mol-Kelvin
 Total                  105.109             31.439             84.838
 Electronic               0.000              0.000              0.000
 Translational            0.889              2.981             40.409
 Rotational               0.889              2.981             28.356
 Vibrational            103.332             25.477             16.073
 Vibration     1          0.634              1.853              2.226
 Vibration     2          0.636              1.844              2.161
 Vibration     3          0.661              1.768              1.752
 Vibration     4          0.669              1.745              1.658
 Vibration     5          0.678              1.716              1.551
 Vibration     6          0.717              1.603              1.229
 Vibration     7          0.755              1.499              1.014
 Vibration     8          0.822              1.329              0.753
 Vibration     9          0.876              1.204              0.609
 Vibration    10          0.980              0.991              0.417

 Optimization completed.
    -- Stationary point found.
 Normal termination of Gaussian 09 at Mon Jan 27 23:04:26 2020.
