 Gaussian 09, Revision D.01,
 Gaussian 09:  ES64L-G09RevD.01 24-Apr-2013

 -----------------------------
 # b3lyp 6-31G(2df,p) opt Freq
 -----------------------------

 -----
 titel
 -----
 Symbolic Z-matrix:
 Charge =  0 Multiplicity = 1

 SCF Done:  E(RB3LYP) =  -423.178401942     A.U. after   13 cycles
 Optimization completed.
    -- Stationary point found.
 Normal termination of Gaussian 09 at Tue Jan 28 13:53:21 2020.

 ----------------------------------------------------------------------
 #N Geom=AllCheck Guess=TCheck SCRF=Check GenChk RB3LYP/6-31G(2df,p) Fr
 eq
 ----------------------------------------------------------------------

 Structure from the checkpoint file:  "/scratch/puck/g09_583dbbdc-27c7-407d-a638-a5d049db69b1/Gau-33103.chk"
 -----
 titel
 -----
 Charge =  0 Multiplicity = 1

                         Standard orientation:
 ---------------------------------------------------------------------
 Center     Atomic      Atomic             Coordinates (Angstroms)
 Number     Number       Type             X           Y           Z
 ---------------------------------------------------------------------
      1          6           0        2.803735   -0.055370   -0.271150
      2          8           0        1.623782    0.578930    0.185269
      3          6           0        0.619618   -0.312029    0.554491
      4          8           0        0.137016   -1.084394   -0.545567
      5          6           0       -1.286947   -0.759021   -0.671548
      6          6           0       -1.691297   -0.657240    0.808109
      7          6           0       -0.639365    0.456179    1.053976
      8          6           0       -0.993577    1.422882   -0.065739
      9          6           0       -1.396072    0.691414   -1.109888
     10          1           0        2.619701   -0.630651   -1.185825
     11          1           0        3.531430    0.732845   -0.476504
     12          1           0        3.216862   -0.731709    0.493413
     13          1           0        1.006820   -1.013291    1.312949
     14          1           0       -1.744833   -1.522640   -1.297422
     15          1           0       -2.713852   -0.312315    0.967504
     16          1           0       -1.506281   -1.583109    1.360602
     17          1           0       -0.538558    0.865060    2.057849
     18          1           0       -0.826451    2.490729   -0.028064
     19          1           0       -1.627786    1.027903   -2.111626
 ---------------------------------------------------------------------

 SCF Done:  E(RB3LYP) =  -423.178401942     A.U. after    1 cycles

 The electronic state is 1-A.
 Alpha  occ. eigenvalues --  -19.13797 -19.13136 -10.26942 -10.23339 -10.21763
 Alpha  occ. eigenvalues --  -10.19490 -10.18575 -10.18297 -10.17642  -1.06065
 Alpha  occ. eigenvalues --   -1.00276  -0.84012  -0.74234  -0.71208  -0.67301
 Alpha  occ. eigenvalues --   -0.59668  -0.58437  -0.53123  -0.51706  -0.49601
 Alpha  occ. eigenvalues --   -0.48050  -0.45570  -0.42928  -0.41077  -0.38571
 Alpha  occ. eigenvalues --   -0.38532  -0.36492  -0.35248  -0.34393  -0.33560
 Alpha  occ. eigenvalues --   -0.30654  -0.26603  -0.25279  -0.24065
 Alpha virt. eigenvalues --    0.01033   0.10144   0.11699   0.12780   0.13368
 Alpha virt. eigenvalues --    0.14505   0.16226   0.16356   0.16820   0.17515
 Alpha virt. eigenvalues --    0.17695   0.17978   0.19488   0.20103   0.21525

 Mulliken charges:
               1
     1  C   -0.242558
     2  O   -0.244266
     3  C    0.256436
     4  O   -0.305544
     5  C    0.062754
     6  C   -0.221661
     7  C   -0.145995
     8  C   -0.055119
     9  C   -0.079064
    10  H    0.128363
    11  H    0.123200
    12  H    0.101909
    13  H    0.063435
    14  H    0.074893
    15  H    0.105197
    16  H    0.100932
    17  H    0.073088
    18  H    0.104791
    19  H    0.099208
 Sum of Mulliken charges =   0.00000

 Dipole moment (field-independent basis, Debye):
    X=             -0.5606    Y=             -0.0355    Z=              0.5599  Tot=              0.7931
 Quadrupole moment (field-independent basis, Debye-Ang):
   XX=            -49.4191   YY=            -53.6137   ZZ=            -51.1670
   XY=             -0.1775   XZ=              0.5092   YZ=             -1.0064

  Exact polarizability:  81.462   1.285  71.586   3.985  -0.419  72.580
 Approx polarizability: 106.701   2.250 112.416   9.087   7.451 114.551

                      1                      2                      3
                      A                      A                      A
 Frequencies --    101.7916               152.3247               190.3015
 Red. masses --      2.9781                 2.0059                 1.5681
 Frc consts  --      0.0182                 0.0274                 0.0335
 IR Inten    --      3.5095                 2.0097                 3.4439

                      4                      5                      6
                      A                      A                      A
 Frequencies --    255.8397               366.0967               471.0475
 Red. masses --      3.1007                 3.3849                 3.2460
 Frc consts  --      0.1196                 0.2673                 0.4244
 IR Inten    --      0.9967                 3.2662                 7.0463

                      7                      8                      9
                      A                      A                      A
 Frequencies --    483.0594               511.0764               556.7233
 Red. masses --      2.4544                 2.5096                 5.4145
 Frc consts  --      0.3374                 0.3862                 0.9888
 IR Inten    --      3.4522                 0.3579                 4.1864

                     10                     11                     12
                      A                      A                      A
 Frequencies --    689.8441               755.1265               799.9245
 Red. masses --      4.1467                 1.8783                 6.0216
 Frc consts  --      1.1627                 0.6311                 2.2702
 IR Inten    --      3.5349                 9.3859                16.8046

                     13                     14                     15
                      A                      A                      A
 Frequencies --    845.4378               861.4973               879.2723
 Red. masses --      3.3835                 2.3447                 4.0941
 Frc consts  --      1.4249                 1.0253                 1.8649
 IR Inten    --     12.5280                 5.6980                92.3736

                     16                     17                     18
                      A                      A                      A
 Frequencies --    919.8168               940.6696               942.4034
 Red. masses --      2.4593                 1.4159                 3.5746
 Frc consts  --      1.2259                 0.7381                 1.8705
 IR Inten    --      5.8158                 2.6806                34.5101

                     19                     20                     21
                      A                      A                      A
 Frequencies --    963.4686               980.5296              1000.5535
 Red. masses --      1.8427                 1.8884                 2.2649
 Frc consts  --      1.0078                 1.0697                 1.3359
 IR Inten    --      5.3767                 4.0377                40.0628

                     22                     23                     24
                      A                      A                      A
 Frequencies --   1029.3136              1049.2081              1127.7773
 Red. masses --      3.6074                 1.8702                 1.3043
 Frc consts  --      2.2518                 1.2130                 0.9774
 IR Inten    --     29.7204                22.4493                 3.8608

                     25                     26                     27
                      A                      A                      A
 Frequencies --   1140.6080              1153.2081              1180.0947
 Red. masses --      1.1456                 2.9463                 1.2953
 Frc consts  --      0.8781                 2.3086                 1.0628
 IR Inten    --      5.5574               145.1812                 4.1822

                     28                     29                     30
                      A                      A                      A
 Frequencies --   1193.9672              1227.4465              1274.2405
 Red. masses --      1.9438                 1.8886                 1.3651
 Frc consts  --      1.6326                 1.6764                 1.3059
 IR Inten    --      3.6774                93.5677                 6.3546

                     31                     32                     33
                      A                      A                      A
 Frequencies --   1275.3626              1287.5926              1296.2998
 Red. masses --      1.6184                 1.7126                 1.2793
 Frc consts  --      1.5509                 1.6729                 1.2666
 IR Inten    --     13.3863                 4.6187                 0.4165

                     34                     35                     36
                      A                      A                      A
 Frequencies --   1344.9692              1364.4825              1397.6230
 Red. masses --      1.5023                 1.5973                 1.1953
 Frc consts  --      1.6011                 1.7522                 1.3756
 IR Inten    --     23.0886                 5.5026                41.2622

                     37                     38                     39
                      A                      A                      A
 Frequencies --   1479.2428              1484.2443              1492.5947
 Red. masses --      1.1748                 1.0476                 1.1207
 Frc consts  --      1.5146                 1.3597                 1.4711
 IR Inten    --      2.1108                 3.6639                 4.7149

                     40                     41                     42
                      A                      A                      A
 Frequencies --   1512.8827              1638.8516              2956.1467
 Red. masses --      1.0533                 5.7029                 1.0827
 Frc consts  --      1.4205                 9.0246                 5.5744
 IR Inten    --      4.6171                 1.3288                54.4102

                     43                     44                     45
                      A                      A                      A
 Frequencies --   2986.4882              3064.1710              3064.4937
 Red. masses --      1.0454                 1.0897                 1.0607
 Frc consts  --      5.4934                 6.0284                 5.8690
 IR Inten    --     72.4365                38.9034                27.3716

                     46                     47                     48
                      A                      A                      A
 Frequencies --   3122.8730              3132.3111              3134.1845
 Red. masses --      1.1011                 1.1009                 1.0932
 Frc consts  --      6.3267                 6.3642                 6.3268
 IR Inten    --     27.1004                26.1395                32.6646

                     49                     50                     51
                      A                      A                      A
 Frequencies --   3140.8046              3210.4080              3235.4829
 Red. masses --      1.0914                 1.0864                 1.1072
 Frc consts  --      6.3433                 6.5974                 6.8289
 IR Inten    --     24.6173                 5.6797                11.5161

 - Thermochemistry -
 -------------------
 Temperature   298.150 Kelvin.  Pressure   1.00000 Atm.
 Atom     1 has atomic number  6 and mass  12.00000

 Molecular mass:   126.06808 amu.
 Principal axes and moments of inertia in atomic units:
                           1         2         3
     Eigenvalues --   548.898301253.475011317.51051
           X            0.99995  -0.00495  -0.00838
           Y            0.00387   0.99224  -0.12431
           Z            0.00893   0.12427   0.99221
 This molecule is an asymmetric top.
 Rotational symmetry number  1.
 Warning -- assumption of classical behavior for rotation
           may cause significant error
 Rotational temperatures (Kelvin)      0.15780     0.06910     0.06574
 Rotational constants (GHZ):           3.28793     1.43979     1.36981
 Zero-point vibrational energy     422665.6 (Joules/Mol)
                                  101.01951 (Kcal/Mol)
 Warning -- explicit consideration of   9 degrees of freedom as
           vibrations may cause significant error
 Vibrational temperatures:    146.46   219.16   273.80   368.10   526.73
          (Kelvin)            677.73   695.01   735.32   801.00   992.53
                             1086.46  1150.91  1216.39  1239.50  1265.08
                             1323.41  1353.41  1355.91  1386.21  1410.76
                             1439.57  1480.95  1509.57  1622.62  1641.08
                             1659.21  1697.89  1717.85  1766.02  1833.35
                             1834.96  1852.56  1865.08  1935.11  1963.18
                             2010.87  2128.30  2135.49  2147.51  2176.70
                             2357.94  4253.23  4296.88  4408.65  4409.12
                             4493.11  4506.69  4509.39  4518.91  4619.06
                             4655.13

 Zero-point correction=                           0.160985 (Hartree/Particle)
 Thermal correction to Energy=                    0.168481
 Thermal correction to Enthalpy=                  0.169425
 Thermal correction to Gibbs Free Energy=         0.129047
 Sum of electronic and zero-point Energies=           -423.017417
 Sum of electronic and thermal Energies=              -423.009921
 Sum of electronic and thermal Enthalpies=            -423.008977
 Sum of electronic and thermal Free Energies=         -423.049355

                     E (Thermal)             CV                S
                      KCal/Mol        Cal/Mol-Kelvin    Cal/Mol-Kelvin
 Total                  105.723             29.723             84.982
 Electronic               0.000              0.000              0.000
 Translational            0.889              2.981             40.409
 Rotational               0.889              2.981             28.296
 Vibrational            103.946             23.761             16.277
 Vibration     1          0.604              1.948              3.420
 Vibration     2          0.619              1.900              2.643
 Vibration     3          0.634              1.853              2.225
 Vibration     4          0.666              1.753              1.690
 Vibration     5          0.739              1.542              1.096
 Vibration     6          0.828              1.314              0.735
 Vibration     7          0.839              1.288              0.702
 Vibration     8          0.866              1.225              0.631
 Vibration     9          0.912              1.125              0.530

 Optimization completed.
    -- Stationary point found.
 Normal termination of Gaussian 09 at Tue Jan 28 14:37:13 2020.
