 Gaussian 09, Revision D.01,
 Gaussian 09:  ES64L-G09RevD.01 24-Apr-2013

 -----------------------------
 # b3lyp 6-31G(2df,p) opt Freq
 -----------------------------

 -----
 titel
 -----
 Symbolic Z-matrix:
 Charge =  0 Multiplicity = 1

 SCF Done:  E(RB3LYP) =  -423.124626992     A.U. after   14 cycles
 Optimization completed.
    -- Stationary point found.
 Normal termination of Gaussian 09 at Mon Jan 27 15:47:56 2020.

 ----------------------------------------------------------------------
 #N Geom=AllCheck Guess=TCheck SCRF=Check GenChk RB3LYP/6-31G(2df,p) Fr
 eq
 ----------------------------------------------------------------------

 Structure from the checkpoint file:  "/scratch/puck/g09_9baab8bb-31be-4586-9040-a32485884477/Gau-58686.chk"
 -----
 titel
 -----
 Charge =  0 Multiplicity = 1

                         Standard orientation:
 ---------------------------------------------------------------------
 Center     Atomic      Atomic             Coordinates (Angstroms)
 Number     Number       Type             X           Y           Z
 ---------------------------------------------------------------------
      1          6           0        3.234475    0.603658    0.738168
      2          6           0        2.090951   -0.340833    0.475700
      3          8           0        2.083773   -1.007532   -0.793288
      4          6           0        1.041488   -0.065924   -0.517284
      5          6           0       -0.354455   -0.630947   -0.397872
      6          6           0       -1.333193    0.383735    0.228062
      7          8           0       -1.385597    1.596847   -0.521728
      8          6           0       -2.664573   -0.201919    0.402915
      9          6           0       -3.759245   -0.689834    0.496627
     10          1           0        3.420815    1.237973   -0.132561
     11          1           0        3.014099    1.245615    1.597903
     12          1           0        4.151707    0.047784    0.959220
     13          1           0        1.825502   -0.995269    1.309220
     14          1           0        1.115876    0.862203   -1.083064
     15          1           0       -0.728135   -0.913351   -1.390481
     16          1           0       -0.335566   -1.543885    0.206137
     17          1           0       -0.944313    0.684404    1.208981
     18          1           0       -1.909733    1.425031   -1.312251
     19          1           0       -4.728353   -1.112642    0.599133
 ---------------------------------------------------------------------

 SCF Done:  E(RB3LYP) =  -423.124626992     A.U. after    1 cycles

 The electronic state is 1-A.
 Alpha  occ. eigenvalues --  -19.14974 -19.14379 -10.26511 -10.23577 -10.23250
 Alpha  occ. eigenvalues --  -10.19377 -10.18950 -10.18544 -10.18222  -1.06469
 Alpha  occ. eigenvalues --   -1.03259  -0.79672  -0.74650  -0.74328  -0.67491
 Alpha  occ. eigenvalues --   -0.61503  -0.58753  -0.55668  -0.51134  -0.49085
 Alpha  occ. eigenvalues --   -0.47304  -0.46745  -0.43762  -0.41953  -0.39769
 Alpha  occ. eigenvalues --   -0.38420  -0.37514  -0.36266  -0.34951  -0.30154
 Alpha  occ. eigenvalues --   -0.28724  -0.27964  -0.27503  -0.25815
 Alpha virt. eigenvalues --    0.02599   0.04614   0.08710   0.10528   0.11099
 Alpha virt. eigenvalues --    0.11355   0.12033   0.12812   0.14134   0.15157
 Alpha virt. eigenvalues --    0.16210   0.17488   0.18028   0.18661   0.22629

 Mulliken charges:
               1
     1  C   -0.414734
     2  C    0.079798
     3  O   -0.268486
     4  C    0.060472
     5  C   -0.246978
     6  C   -0.056564
     7  O   -0.419762
     8  C    0.292200
     9  C   -0.430409
    10  H    0.128964
    11  H    0.122206
    12  H    0.128759
    13  H    0.084806
    14  H    0.101562
    15  H    0.108783
    16  H    0.118714
    17  H    0.121615
    18  H    0.286975
    19  H    0.202079
 Sum of Mulliken charges =   0.00000

 Dipole moment (field-independent basis, Debye):
    X=             -1.0780    Y=              0.0637    Z=              0.5949  Tot=              1.2330
 Quadrupole moment (field-independent basis, Debye-Ang):
   XX=            -48.7234   YY=            -57.2112   ZZ=            -51.1623
   XY=              5.5271   XZ=              5.3525   YZ=             -2.9012

  Exact polarizability: 105.718   9.930  65.326   2.615  -2.662  64.139
 Approx polarizability: 137.125  15.260 101.226   1.840  -3.274  99.048

                      1                      2                      3
                      A                      A                      A
 Frequencies --     50.8095                69.1588               105.2375
 Red. masses --      4.1177                 3.3888                 3.8629
 Frc consts  --      0.0063                 0.0095                 0.0252
 IR Inten    --      2.0577                 1.3204                 2.3467

                      4                      5                      6
                      A                      A                      A
 Frequencies --    176.1481               199.9024               223.5809
 Red. masses --      3.6052                 1.1481                 2.6982
 Frc consts  --      0.0659                 0.0270                 0.0795
 IR Inten    --      0.7071                 0.4382                 7.1115

                      7                      8                      9
                      A                      A                      A
 Frequencies --    264.9707               300.6560               322.8220
 Red. masses --      3.0964                 1.3163                 2.1959
 Frc consts  --      0.1281                 0.0701                 0.1348
 IR Inten    --      0.9016                92.9621                 9.7202

                     10                     11                     12
                      A                      A                      A
 Frequencies --    398.6567               426.2572               495.7745
 Red. masses --      4.3961                 3.4988                 3.9027
 Frc consts  --      0.4116                 0.3745                 0.5652
 IR Inten    --      2.7129                 7.1551                10.2955

                     13                     14                     15
                      A                      A                      A
 Frequencies --    565.5212               571.1574               635.6862
 Red. masses --      3.3192                 4.5601                 1.2221
 Frc consts  --      0.6254                 0.8765                 0.2910
 IR Inten    --     18.6458                10.2303                46.1048

                     16                     17                     18
                      A                      A                      A
 Frequencies --    676.3081               793.1208               811.6607
 Red. masses --      1.2487                 4.5628                 2.2331
 Frc consts  --      0.3365                 1.6911                 0.8668
 IR Inten    --     34.7663                14.5535                 4.4518

                     19                     20                     21
                      A                      A                      A
 Frequencies --    873.6024               944.5111               967.0207
 Red. masses --      3.5780                 1.7964                 3.0728
 Frc consts  --      1.6088                 0.9442                 1.6930
 IR Inten    --     27.3571                19.1878                18.5933

                     22                     23                     24
                      A                      A                      A
 Frequencies --   1010.9482              1039.2990              1077.5698
 Red. masses --      1.7392                 1.6360                 4.6839
 Frc consts  --      1.0473                 1.0411                 3.2044
 IR Inten    --      3.7833                14.4224                86.2837

                     25                     26                     27
                      A                      A                      A
 Frequencies --   1095.3711              1119.1620              1163.6826
 Red. masses --      1.9535                 2.4936                 1.5423
 Frc consts  --      1.3810                 1.8402                 1.2305
 IR Inten    --      3.2851                40.2071                13.5085

                     28                     29                     30
                      A                      A                      A
 Frequencies --   1184.3964              1208.3918              1270.3257
 Red. masses --      1.6707                 1.2979                 1.2918
 Frc consts  --      1.3808                 1.1167                 1.2283
 IR Inten    --      0.4337                 4.9136                 5.2957

                     31                     32                     33
                      A                      A                      A
 Frequencies --   1287.5477              1296.7437              1360.2792
 Red. masses --      1.3433                 1.3763                 1.2483
 Frc consts  --      1.3121                 1.3636                 1.3609
 IR Inten    --      6.4239                 4.9518                 3.5429

                     34                     35                     36
                      A                      A                      A
 Frequencies --   1373.9894              1411.4918              1420.6094
 Red. masses --      1.3137                 1.2699                 1.2396
 Frc consts  --      1.4612                 1.4907                 1.4739
 IR Inten    --     10.2028                 4.6209                63.9105

                     37                     38                     39
                      A                      A                      A
 Frequencies --   1474.2894              1478.0261              1490.9201
 Red. masses --      1.2425                 1.1054                 1.1024
 Frc consts  --      1.5912                 1.4228                 1.4438
 IR Inten    --      5.5264                 1.1977                 8.0009

                     40                     41                     42
                      A                      A                      A
 Frequencies --   1510.1013              2233.5399              3027.4776
 Red. masses --      1.9057                 5.9006                 1.0706
 Frc consts  --      2.5604                17.3433                 5.7814
 IR Inten    --      7.9076                 1.1088                 2.9548

                     43                     44                     45
                      A                      A                      A
 Frequencies --   3036.1955              3040.7075              3079.5691
 Red. masses --      1.0358                 1.0756                 1.0871
 Frc consts  --      5.6257                 5.8593                 6.0746
 IR Inten    --     20.9873                27.5191                15.1627

                     46                     47                     48
                      A                      A                      A
 Frequencies --   3087.0572              3100.7840              3119.8330
 Red. masses --      1.0974                 1.1008                 1.0934
 Frc consts  --      6.1619                 6.2359                 6.2701
 IR Inten    --     14.5402                18.8301                 4.8369

                     49                     50                     51
                      A                      A                      A
 Frequencies --   3124.9491              3501.6009              3803.9050
 Red. masses --      1.0960                 1.1628                 1.0662
 Frc consts  --      6.3056                 8.4000                 9.0893
 IR Inten    --     43.8047                67.4910                25.8340

 - Thermochemistry -
 -------------------
 Temperature   298.150 Kelvin.  Pressure   1.00000 Atm.
 Atom     1 has atomic number  6 and mass  12.00000

 Molecular mass:   126.06808 amu.
 Principal axes and moments of inertia in atomic units:
                           1         2         3
     Eigenvalues --   476.348082448.869872595.83817
           X            0.99971   0.01909   0.01477
           Y           -0.01875   0.99956  -0.02289
           Z           -0.01520   0.02261   0.99963
 This molecule is an asymmetric top.
 Rotational symmetry number  1.
 Warning -- assumption of classical behavior for rotation
           may cause significant error
 Rotational temperatures (Kelvin)      0.18183     0.03537     0.03337
 Rotational constants (GHZ):           3.78870     0.73697     0.69524
 Zero-point vibrational energy     408532.7 (Joules/Mol)
                                   97.64165 (Kcal/Mol)
 Warning -- explicit consideration of  14 degrees of freedom as
           vibrations may cause significant error
 Vibrational temperatures:     73.10    99.50   151.41   253.44   287.61
          (Kelvin)            321.68   381.23   432.58   464.47   573.58
                              613.29   713.31   813.66   821.77   914.61
                              973.06  1141.12  1167.80  1256.92  1358.94
                             1391.33  1454.53  1495.32  1550.38  1575.99
                             1610.22  1674.28  1704.08  1738.60  1827.71
                             1852.49  1865.72  1957.14  1976.86  2030.82
                             2043.94  2121.17  2126.55  2145.10  2172.70
                             3213.56  4355.86  4368.40  4374.89  4430.81
                             4441.58  4461.33  4488.74  4496.10  5038.02
                             5472.96

 Zero-point correction=                           0.155602 (Hartree/Particle)
 Thermal correction to Energy=                    0.165779
 Thermal correction to Enthalpy=                  0.166723
 Thermal correction to Gibbs Free Energy=         0.119811
 Sum of electronic and zero-point Energies=           -422.969025
 Sum of electronic and thermal Energies=              -422.958848
 Sum of electronic and thermal Enthalpies=            -422.957904
 Sum of electronic and thermal Free Energies=         -423.004816

                     E (Thermal)             CV                S
                      KCal/Mol        Cal/Mol-Kelvin    Cal/Mol-Kelvin
 Total                  104.028             36.691             98.734
 Electronic               0.000              0.000              0.000
 Translational            0.889              2.981             40.409
 Rotational               0.889              2.981             29.494
 Vibrational            102.250             30.729             28.831
 Vibration     1          0.595              1.977              4.786
 Vibration     2          0.598              1.969              4.177
 Vibration     3          0.605              1.945              3.355
 Vibration     4          0.628              1.872              2.369
 Vibration     5          0.638              1.840              2.134
 Vibration     6          0.649              1.805              1.930
 Vibration     7          0.671              1.737              1.629
 Vibration     8          0.693              1.672              1.413
 Vibration     9          0.708              1.630              1.296
 Vibration    10          0.765              1.473              0.968
 Vibration    11          0.788              1.413              0.871
 Vibration    12          0.851              1.259              0.669
 Vibration    13          0.921              1.106              0.513
 Vibration    14          0.927              1.094              0.502

 Optimization completed.
    -- Stationary point found.
 Normal termination of Gaussian 09 at Mon Jan 27 16:21:23 2020.
