 Gaussian 09, Revision D.01,
 Gaussian 09:  ES64L-G09RevD.01 24-Apr-2013

 -----------------------------
 # b3lyp 6-31G(2df,p) opt Freq
 -----------------------------

 -----
 titel
 -----
 Symbolic Z-matrix:
 Charge =  0 Multiplicity = 1

 SCF Done:  E(RB3LYP) =  -423.225697821     A.U. after   14 cycles
 Optimization completed.
    -- Stationary point found.
 Normal termination of Gaussian 09 at Tue Jan 28 13:20:46 2020.

 ----------------------------------------------------------------------
 #N Geom=AllCheck Guess=TCheck SCRF=Check GenChk RB3LYP/6-31G(2df,p) Fr
 eq
 ----------------------------------------------------------------------

 Structure from the checkpoint file:  "/scratch/puck/g09_3cd7c0e6-1805-48cd-9476-7e47beff874b/Gau-144495.chk"
 -----
 titel
 -----
 Charge =  0 Multiplicity = 1

                         Standard orientation:
 ---------------------------------------------------------------------
 Center     Atomic      Atomic             Coordinates (Angstroms)
 Number     Number       Type             X           Y           Z
 ---------------------------------------------------------------------
      1          6           0       -0.348628    2.568153    0.070736
      2          6           0        0.219884    1.185291    0.092163
      3          6           0        1.482230    0.834848   -0.199671
      4          6           0        1.688556   -0.618476   -0.039249
      5          8           0        2.709748   -1.238646   -0.229730
      6          6           0        0.351892   -1.206077    0.436635
      7          6           0       -0.631089   -0.019538    0.472043
      8          6           0       -1.833160   -0.213989   -0.472545
      9          8           0       -2.572368   -1.385385   -0.179045
     10          1           0       -0.816757    2.810755    1.032968
     11          1           0        0.418882    3.316538   -0.139215
     12          1           0       -1.134202    2.664485   -0.688481
     13          1           0        2.278223    1.503425   -0.504880
     14          1           0        0.020891   -2.002193   -0.235627
     15          1           0        0.495474   -1.668229    1.417859
     16          1           0       -1.035599    0.135526    1.484167
     17          1           0       -2.478302    0.677450   -0.457261
     18          1           0       -1.471780   -0.340326   -1.499354
     19          1           0       -2.953978   -1.286456    0.699352
 ---------------------------------------------------------------------

 SCF Done:  E(RB3LYP) =  -423.225697821     A.U. after    1 cycles

 The electronic state is 1-A.
 Alpha  occ. eigenvalues --  -19.14694 -19.11177 -10.25483 -10.24019 -10.21982
 Alpha  occ. eigenvalues --  -10.20564 -10.20240 -10.18551 -10.18388  -1.02848
 Alpha  occ. eigenvalues --   -1.02214  -0.86121  -0.76124  -0.73659  -0.68538
 Alpha  occ. eigenvalues --   -0.63286  -0.55491  -0.53598  -0.50837  -0.48572
 Alpha  occ. eigenvalues --   -0.45917  -0.44588  -0.43013  -0.42530  -0.40191
 Alpha  occ. eigenvalues --   -0.39811  -0.38989  -0.37148  -0.35879  -0.34706
 Alpha  occ. eigenvalues --   -0.33156  -0.28719  -0.25950  -0.23199
 Alpha virt. eigenvalues --   -0.03989   0.05591   0.06674   0.08412   0.11586
 Alpha virt. eigenvalues --    0.12658   0.12723   0.14318   0.15691   0.16675
 Alpha virt. eigenvalues --    0.17146   0.18104   0.20237   0.21359   0.23941

 Mulliken charges:
               1
     1  C   -0.495417
     2  C    0.328893
     3  C   -0.296059
     4  C    0.390692
     5  O   -0.336589
     6  C   -0.348437
     7  C   -0.126232
     8  C   -0.073258
     9  O   -0.408757
    10  H    0.135252
    11  H    0.136671
    12  H    0.143524
    13  H    0.108488
    14  H    0.144168
    15  H    0.128268
    16  H    0.074823
    17  H    0.090418
    18  H    0.119596
    19  H    0.283956
 Sum of Mulliken charges =   0.00000

 Dipole moment (field-independent basis, Debye):
    X=             -3.2590    Y=              3.2089    Z=              1.5522  Tot=              4.8299
 Quadrupole moment (field-independent basis, Debye-Ang):
   XX=            -62.0804   YY=            -53.9304   ZZ=            -51.0617
   XY=              3.0882   XZ=             -2.8859   YZ=             -2.6204

  Exact polarizability:  95.354  -8.153  86.565  -6.358  -1.722  57.770
 Approx polarizability: 149.150 -21.903 123.765 -14.171   1.157  91.942

                      1                      2                      3
                      A                      A                      A
 Frequencies --     51.2633               113.1620               134.3472
 Red. masses --      3.1043                 2.4305                 1.6607
 Frc consts  --      0.0048                 0.0183                 0.0177
 IR Inten    --      1.7435                 1.6282                 0.5411

                      4                      5                      6
                      A                      A                      A
 Frequencies --    180.9347               182.4528               272.4536
 Red. masses --      2.8229                 2.0231                 3.0264
 Frc consts  --      0.0544                 0.0397                 0.1324
 IR Inten    --      0.8926                 1.8768                 1.8925

                      7                      8                      9
                      A                      A                      A
 Frequencies --    298.2427               338.2046               429.9088
 Red. masses --      1.3096                 1.9213                 4.2229
 Frc consts  --      0.0686                 0.1295                 0.4598
 IR Inten    --     85.8711                25.9208                18.7851

                     10                     11                     12
                      A                      A                      A
 Frequencies --    502.2975               534.4578               566.8655
 Red. masses --      2.4469                 3.3339                 3.6677
 Frc consts  --      0.3637                 0.5611                 0.6944
 IR Inten    --      8.1021                 1.5626                 2.8389

                     13                     14                     15
                      A                      A                      A
 Frequencies --    579.4671               639.6760               836.5094
 Red. masses --      3.3827                 3.7766                 4.4987
 Frc consts  --      0.6692                 0.9105                 1.8547
 IR Inten    --      3.2266                 2.2929                 5.7480

                     16                     17                     18
                      A                      A                      A
 Frequencies --    856.6712               877.8561               911.4813
 Red. masses --      2.3111                 1.3826                 1.5873
 Frc consts  --      0.9993                 0.6278                 0.7770
 IR Inten    --      6.6941                 3.4550                12.5990

                     19                     20                     21
                      A                      A                      A
 Frequencies --    946.6172              1005.2331              1021.5212
 Red. masses --      2.5795                 1.5694                 2.2647
 Frc consts  --      1.3619                 0.9344                 1.3924
 IR Inten    --      3.8964                 0.8948                34.6511

                     22                     23                     24
                      A                      A                      A
 Frequencies --   1058.3294              1091.3867              1092.9495
 Red. masses --      1.5826                 3.9475                 1.9666
 Frc consts  --      1.0444                 2.7703                 1.3841
 IR Inten    --     10.5856                89.7451                 3.7394

                     25                     26                     27
                      A                      A                      A
 Frequencies --   1143.3236              1157.9517              1189.3115
 Red. masses --      1.2923                 2.1116                 2.0272
 Frc consts  --      0.9953                 1.6681                 1.6894
 IR Inten    --      5.2536                13.6652                53.5518

                     28                     29                     30
                      A                      A                      A
 Frequencies --   1231.0763              1252.9313              1283.2502
 Red. masses --      1.4457                 1.5760                 1.7180
 Frc consts  --      1.2910                 1.4576                 1.6668
 IR Inten    --      5.2129                 0.3266                30.1573

                     31                     32                     33
                      A                      A                      A
 Frequencies --   1331.5087              1347.7844              1387.7582
 Red. masses --      2.1989                 1.3945                 1.2928
 Frc consts  --      2.2969                 1.4925                 1.4669
 IR Inten    --     14.9518                 1.8988                 4.3795

                     34                     35                     36
                      A                      A                      A
 Frequencies --   1410.6485              1413.2823              1457.2341
 Red. masses --      1.2846                 1.2255                 1.0822
 Frc consts  --      1.5061                 1.4421                 1.3540
 IR Inten    --      4.6020                48.4059                 5.1039

                     37                     38                     39
                      A                      A                      A
 Frequencies --   1478.3446              1479.4421              1508.1849
 Red. masses --      1.0465                 1.0685                 1.0876
 Frc consts  --      1.3475                 1.3779                 1.4575
 IR Inten    --      8.3996                10.9833                 0.6952

                     40                     41                     42
                      A                      A                      A
 Frequencies --   1678.9257              1812.2188              2981.8971
 Red. masses --      7.0973                12.4094                 1.0807
 Frc consts  --     11.7871                24.0116                 5.6615
 IR Inten    --     70.0982               317.0777                27.0672

                     43                     44                     45
                      A                      A                      A
 Frequencies --   2989.5093              3024.7531              3067.8221
 Red. masses --      1.0682                 1.0387                 1.0624
 Frc consts  --      5.6249                 5.5990                 5.8911
 IR Inten    --     52.5670                20.2348                 7.9694

                     46                     47                     48
                      A                      A                      A
 Frequencies --   3070.3633              3073.5675              3108.9748
 Red. masses --      1.0957                 1.0978                 1.1011
 Frc consts  --      6.0859                 6.1105                 6.2708
 IR Inten    --     32.4011                 6.0348                 5.0245

                     49                     50                     51
                      A                      A                      A
 Frequencies --   3122.5493              3210.3948              3811.6647
 Red. masses --      1.0995                 1.0956                 1.0661
 Frc consts  --      6.3161                 6.6529                 9.1262
 IR Inten    --     14.8684                 5.3447                20.9622

 - Thermochemistry -
 -------------------
 Temperature   298.150 Kelvin.  Pressure   1.00000 Atm.
 Atom     1 has atomic number  6 and mass  12.00000

 Molecular mass:   126.06808 amu.
 Principal axes and moments of inertia in atomic units:
                           1         2         3
     Eigenvalues --   850.900701345.367512062.59963
           X            0.99998   0.00570  -0.00265
           Y           -0.00573   0.99991  -0.01231
           Z            0.00258   0.01233   0.99992
 This molecule is an asymmetric top.
 Rotational symmetry number  1.
 Warning -- assumption of classical behavior for rotation
           may cause significant error
 Rotational temperatures (Kelvin)      0.10179     0.06438     0.04199
 Rotational constants (GHZ):           2.12098     1.34145     0.87498
 Zero-point vibrational energy     415983.2 (Joules/Mol)
                                   99.42237 (Kcal/Mol)
 Warning -- explicit consideration of  13 degrees of freedom as
           vibrations may cause significant error
 Vibrational temperatures:     73.76   162.81   193.30   260.32   262.51
          (Kelvin)            392.00   429.10   486.60   618.54   722.69
                              768.96   815.59   833.72   920.35  1203.55
                             1232.56  1263.04  1311.42  1361.97  1446.30
                             1469.74  1522.70  1570.26  1572.51  1644.99
                             1666.03  1711.15  1771.24  1802.69  1846.31
                             1915.74  1939.16  1996.67  2029.61  2033.40
                             2096.63  2127.01  2128.58  2169.94  2415.60
                             2607.38  4290.28  4301.23  4351.94  4413.91
                             4417.56  4422.17  4473.12  4492.65  4619.04
                             5484.13

 Zero-point correction=                           0.158440 (Hartree/Particle)
 Thermal correction to Energy=                    0.167715
 Thermal correction to Enthalpy=                  0.168659
 Thermal correction to Gibbs Free Energy=         0.123820
 Sum of electronic and zero-point Energies=           -423.067258
 Sum of electronic and thermal Energies=              -423.057983
 Sum of electronic and thermal Enthalpies=            -423.057039
 Sum of electronic and thermal Free Energies=         -423.101878

                     E (Thermal)             CV                S
                      KCal/Mol        Cal/Mol-Kelvin    Cal/Mol-Kelvin
 Total                  105.243             33.868             94.372
 Electronic               0.000              0.000              0.000
 Translational            0.889              2.981             40.409
 Rotational               0.889              2.981             29.247
 Vibrational            103.465             27.907             24.716
 Vibration     1          0.596              1.977              4.768
 Vibration     2          0.607              1.939              3.214
 Vibration     3          0.613              1.919              2.883
 Vibration     4          0.630              1.866              2.319
 Vibration     5          0.630              1.864              2.303
 Vibration     6          0.675              1.724              1.581
 Vibration     7          0.691              1.677              1.427
 Vibration     8          0.719              1.599              1.221
 Vibration     9          0.791              1.405              0.859
 Vibration    10          0.858              1.245              0.652
 Vibration    11          0.889              1.174              0.577
 Vibration    12          0.923              1.103              0.510
 Vibration    13          0.936              1.076              0.486

 Normal termination of Gaussian 09 at Tue Jan 28 14:02:32 2020.
