 Gaussian 09, Revision D.01,
 Gaussian 09:  ES64L-G09RevD.01 24-Apr-2013

 -----------------------------
 # b3lyp 6-31G(2df,p) opt Freq
 -----------------------------

 -----
 titel
 -----
 Symbolic Z-matrix:
 Charge =  0 Multiplicity = 1

 SCF Done:  E(RB3LYP) =  -423.200278896     A.U. after   14 cycles
 Optimization completed.
    -- Stationary point found.
 Normal termination of Gaussian 09 at Tue Jan 28 09:16:35 2020.

 ----------------------------------------------------------------------
 #N Geom=AllCheck Guess=TCheck SCRF=Check GenChk RB3LYP/6-31G(2df,p) Fr
 eq
 ----------------------------------------------------------------------

 Structure from the checkpoint file:  "/scratch/puck/g09_6994ef26-e1a5-4c75-bc0e-89ea79b0b76b/Gau-17483.chk"
 -----
 titel
 -----
 Charge =  0 Multiplicity = 1

                         Standard orientation:
 ---------------------------------------------------------------------
 Center     Atomic      Atomic             Coordinates (Angstroms)
 Number     Number       Type             X           Y           Z
 ---------------------------------------------------------------------
      1          6           0        3.007010   -0.314856   -0.099392
      2          6           0        1.759103    0.380391   -0.661805
      3          6           0        0.526464    0.069348    0.122399
      4          6           0        0.007940    0.675844    1.377430
      5          6           0       -0.890341    0.608470    0.124042
      6          6           0       -1.567106    1.787882   -0.508197
      7          6           0       -1.273168   -0.840735   -0.039171
      8          8           0       -2.254569   -1.475910   -0.253540
      9          8           0        0.029377   -1.310814    0.067500
     10          1           0        3.886137   -0.080173   -0.705974
     11          1           0        3.206411    0.004658    0.928177
     12          1           0        2.874726   -1.400327   -0.095449
     13          1           0        1.898517    1.467905   -0.661901
     14          1           0        1.599594    0.078524   -1.703556
     15          1           0       -0.195210    0.050730    2.241250
     16          1           0        0.350854    1.681979    1.604819
     17          1           0       -0.942123    2.683258   -0.435907
     18          1           0       -1.779520    1.604680   -1.565853
     19          1           0       -2.517267    2.004491   -0.009120
 ---------------------------------------------------------------------

 SCF Done:  E(RB3LYP) =  -423.200278896     A.U. after    1 cycles

 The electronic state is 1-A.
 Alpha  occ. eigenvalues --  -19.17072 -19.13166 -10.30450 -10.26226 -10.21964
 Alpha  occ. eigenvalues --  -10.21255 -10.20616 -10.19823 -10.18610  -1.10293
 Alpha  occ. eigenvalues --   -1.03123  -0.86535  -0.78839  -0.73404  -0.66338
 Alpha  occ. eigenvalues --   -0.64635  -0.58390  -0.52497  -0.49821  -0.48808
 Alpha  occ. eigenvalues --   -0.46695  -0.45166  -0.43203  -0.42216  -0.41425
 Alpha  occ. eigenvalues --   -0.40413  -0.39564  -0.38185  -0.36968  -0.35627
 Alpha  occ. eigenvalues --   -0.33776  -0.29518  -0.27187  -0.26417
 Alpha virt. eigenvalues --    0.00815   0.07466   0.09200   0.09774   0.11657
 Alpha virt. eigenvalues --    0.13271   0.14102   0.14229   0.14802   0.16101
 Alpha virt. eigenvalues --    0.16306   0.17855   0.18329   0.19630   0.21318

 Mulliken charges:
               1
     1  C   -0.377957
     2  C   -0.291243
     3  C    0.450984
     4  C   -0.372734
     5  C    0.012596
     6  C   -0.493783
     7  C    0.437709
     8  O   -0.331724
     9  O   -0.307119
    10  H    0.117794
    11  H    0.122002
    12  H    0.142850
    13  H    0.109737
    14  H    0.118858
    15  H    0.132923
    16  H    0.124821
    17  H    0.124045
    18  H    0.137358
    19  H    0.142882
 Sum of Mulliken charges =   0.00000

 Dipole moment (field-independent basis, Debye):
    X=              2.4441    Y=              3.6309    Z=              0.3270  Tot=              4.3891
 Quadrupole moment (field-independent basis, Debye-Ang):
   XX=            -56.9207   YY=            -56.1989   ZZ=            -51.0463
   XY=             -4.4225   XZ=             -1.2758   YZ=             -0.4743

  Exact polarizability:  89.846   1.632  73.163   2.538   1.750  66.165
 Approx polarizability: 125.956   7.552 109.282   6.113   5.455  99.379

                      1                      2                      3
                      A                      A                      A
 Frequencies --     78.1046               117.8200               141.4663
 Red. masses --      2.5959                 3.8735                 2.1020
 Frc consts  --      0.0093                 0.0317                 0.0248
 IR Inten    --      0.6350                 0.2210                 0.6401

                      4                      5                      6
                      A                      A                      A
 Frequencies --    158.5350               210.2836               241.8229
 Red. masses --      1.1620                 1.7168                 1.7495
 Frc consts  --      0.0172                 0.0447                 0.0603
 IR Inten    --      0.1620                 0.8266                 0.4969

                      7                      8                      9
                      A                      A                      A
 Frequencies --    269.2180               358.2541               407.7805
 Red. masses --      3.0855                 2.2184                 3.8139
 Frc consts  --      0.1318                 0.1678                 0.3737
 IR Inten    --      1.0837                 0.4301                 1.9293

                     10                     11                     12
                      A                      A                      A
 Frequencies --    473.8862               530.0535               633.9942
 Red. masses --      3.0065                 3.4982                 4.6995
 Frc consts  --      0.3978                 0.5791                 1.1129
 IR Inten    --      3.6610                 1.2445                 1.3683

                     13                     14                     15
                      A                      A                      A
 Frequencies --    689.4229               725.3321               771.2134
 Red. masses --      4.1403                 3.7049                 3.4444
 Frc consts  --      1.1594                 1.1484                 1.2070
 IR Inten    --      3.0539                 0.0718                12.6957

                     16                     17                     18
                      A                      A                      A
 Frequencies --    789.2790               841.3519               894.7639
 Red. masses --      1.4555                 5.3077                 2.9064
 Frc consts  --      0.5342                 2.2136                 1.3710
 IR Inten    --      3.7798                27.8778                48.9245

                     19                     20                     21
                      A                      A                      A
 Frequencies --    950.9607               979.0551               997.9097
 Red. masses --      1.7266                 1.6256                 1.7047
 Frc consts  --      0.9200                 0.9181                 1.0002
 IR Inten    --      7.6937                35.1612                10.7434

                     22                     23                     24
                      A                      A                      A
 Frequencies --   1001.5686              1054.2827              1082.7549
 Red. masses --      1.8051                 1.9916                 1.6060
 Frc consts  --      1.0669                 1.3043                 1.1093
 IR Inten    --      4.7715                31.2064                10.6112

                     25                     26                     27
                      A                      A                      A
 Frequencies --   1104.1924              1108.5699              1175.5470
 Red. masses --      1.9841                 1.9044                 2.4215
 Frc consts  --      1.4253                 1.3789                 1.9716
 IR Inten    --     22.0660                24.6915                 1.6271

                     28                     29                     30
                      A                      A                      A
 Frequencies --   1204.0729              1303.7153              1336.9461
 Red. masses --      2.6668                 1.3433                 2.1692
 Frc consts  --      2.2779                 1.3452                 2.2844
 IR Inten    --     28.6411                10.0913                 3.5249

                     31                     32                     33
                      A                      A                      A
 Frequencies --   1364.5567              1409.2452              1414.6047
 Red. masses --      1.9869                 1.2767                 1.2925
 Frc consts  --      2.1798                 1.4939                 1.5239
 IR Inten    --      5.4809                 0.5035                 0.7183

                     34                     35                     36
                      A                      A                      A
 Frequencies --   1431.1496              1471.1936              1483.7105
 Red. masses --      1.5507                 1.0860                 1.0517
 Frc consts  --      1.8713                 1.3849                 1.3641
 IR Inten    --      1.7270                 2.2756                 2.4570

                     37                     38                     39
                      A                      A                      A
 Frequencies --   1496.6383              1497.8050              1504.0741
 Red. masses --      1.0815                 1.0569                 1.1882
 Frc consts  --      1.4273                 1.3970                 1.5837
 IR Inten    --      9.1701                 3.4232                 1.2793

                     40                     41                     42
                      A                      A                      A
 Frequencies --   1515.8155              1935.3030              3033.4976
 Red. masses --      1.6702                12.9110                 1.0580
 Frc consts  --      2.2611                28.4910                 5.7364
 IR Inten    --     16.4935               476.6199                10.1210

                     43                     44                     45
                      A                      A                      A
 Frequencies --   3037.2578              3043.6754              3071.7888
 Red. masses --      1.0362                 1.0349                 1.1022
 Frc consts  --      5.6317                 5.6488                 6.1275
 IR Inten    --     28.2630                23.6483                 8.4528

                     46                     47                     48
                      A                      A                      A
 Frequencies --   3102.5321              3109.4397              3115.1351
 Red. masses --      1.1010                 1.1010                 1.1007
 Frc consts  --      6.2441                 6.2720                 6.2934
 IR Inten    --     13.0764                10.9725                25.3222

                     49                     50                     51
                      A                      A                      A
 Frequencies --   3116.9699              3123.2267              3208.3922
 Red. masses --      1.0559                 1.1022                 1.1175
 Frc consts  --      6.0444                 6.3345                 6.7775
 IR Inten    --     14.5594                21.4792                 4.3480

 - Thermochemistry -
 -------------------
 Temperature   298.150 Kelvin.  Pressure   1.00000 Atm.
 Atom     1 has atomic number  6 and mass  12.00000

 Molecular mass:   126.06808 amu.
 Principal axes and moments of inertia in atomic units:
                           1         2         3
     Eigenvalues --   677.408081382.917781719.25052
           X            0.99854  -0.05392  -0.00170
           Y            0.05388   0.99837  -0.01890
           Z            0.00272   0.01878   0.99982
 This molecule is an asymmetric top.
 Rotational symmetry number  1.
 Warning -- assumption of classical behavior for rotation
           may cause significant error
 Rotational temperatures (Kelvin)      0.12786     0.06263     0.05038
 Rotational constants (GHZ):           2.66419     1.30502     1.04973
 Zero-point vibrational energy     413418.5 (Joules/Mol)
                                   98.80938 (Kcal/Mol)
 Warning -- explicit consideration of  11 degrees of freedom as
           vibrations may cause significant error
 Vibrational temperatures:    112.37   169.52   203.54   228.10   302.55
          (Kelvin)            347.93   387.34   515.45   586.70   681.82
                              762.63   912.18   991.92  1043.59  1109.60
                             1135.60  1210.52  1287.36  1368.22  1408.64
                             1435.77  1441.03  1516.88  1557.84  1588.68
                             1594.98  1691.35  1732.39  1875.75  1923.56
                             1963.29  2027.59  2035.30  2059.10  2116.72
                             2134.73  2153.33  2155.00  2164.02  2180.92
                             2784.47  4364.52  4369.93  4379.16  4419.61
                             4463.85  4473.78  4481.98  4484.62  4493.62
                             4616.15

 Zero-point correction=                           0.157463 (Hartree/Particle)
 Thermal correction to Energy=                    0.166697
 Thermal correction to Enthalpy=                  0.167641
 Thermal correction to Gibbs Free Energy=         0.123351
 Sum of electronic and zero-point Energies=           -423.042816
 Sum of electronic and thermal Energies=              -423.033582
 Sum of electronic and thermal Enthalpies=            -423.032638
 Sum of electronic and thermal Free Energies=         -423.076928

                     E (Thermal)             CV                S
                      KCal/Mol        Cal/Mol-Kelvin    Cal/Mol-Kelvin
 Total                  104.604             33.900             93.217
 Electronic               0.000              0.000              0.000
 Translational            0.889              2.981             40.409
 Rotational               0.889              2.981             28.867
 Vibrational            102.827             27.938             23.941
 Vibration     1          0.599              1.964              3.938
 Vibration     2          0.608              1.935              3.136
 Vibration     3          0.615              1.912              2.784
 Vibration     4          0.621              1.893              2.567
 Vibration     5          0.642              1.825              2.041
 Vibration     6          0.658              1.776              1.789
 Vibration     7          0.674              1.730              1.601
 Vibration     8          0.733              1.558              1.130
 Vibration     9          0.772              1.453              0.934
 Vibration    10          0.831              1.308              0.727
 Vibration    11          0.885              1.184              0.587

 Optimization completed.
    -- Stationary point found.
 Normal termination of Gaussian 09 at Tue Jan 28 10:00:27 2020.
