 Gaussian 09, Revision D.01,
 Gaussian 09:  ES64L-G09RevD.01 24-Apr-2013

 -----------------------------
 # b3lyp 6-31G(2df,p) opt Freq
 -----------------------------

 -----
 titel
 -----
 Symbolic Z-matrix:
 Charge =  0 Multiplicity = 1

 SCF Done:  E(RB3LYP) =  -423.124862860     A.U. after   13 cycles
 Optimization completed.
    -- Stationary point found.
 Normal termination of Gaussian 09 at Mon Jan 27 22:03:18 2020.

 ----------------------------------------------------------------------
 #N Geom=AllCheck Guess=TCheck SCRF=Check GenChk RB3LYP/6-31G(2df,p) Fr
 eq
 ----------------------------------------------------------------------

 Structure from the checkpoint file:  "/scratch/puck/g09_f9fa429d-78b4-4377-a9bf-7e9fa7bd0dcc/Gau-176399.chk"
 -----
 titel
 -----
 Charge =  0 Multiplicity = 1

                         Standard orientation:
 ---------------------------------------------------------------------
 Center     Atomic      Atomic             Coordinates (Angstroms)
 Number     Number       Type             X           Y           Z
 ---------------------------------------------------------------------
      1          6           0       -1.652535    1.416543    0.558289
      2          6           0       -1.124473    0.116180   -0.033352
      3          8           0       -2.161563   -0.556403   -0.741954
      4          6           0       -0.454918   -0.927802    0.857909
      5          6           0        1.035581   -0.586359    0.961508
      6          6           0        0.490191   -1.337273   -0.239623
      7          6           0        0.208282    0.101086   -0.848751
      8          6           0        1.300614    0.654655    0.108344
      9          8           0        2.599927    0.692944   -0.443010
     10          1           0       -1.917220    2.127813   -0.234755
     11          1           0       -2.555387    1.212328    1.142044
     12          1           0       -0.924690    1.902545    1.212085
     13          1           0       -2.498757    0.051938   -1.408603
     14          1           0       -0.939094   -1.565607    1.587366
     15          1           0        1.641605   -0.968017    1.774521
     16          1           0        0.705989   -2.306655   -0.661742
     17          1           0        0.212573    0.380340   -1.901907
     18          1           0        1.146454    1.647720    0.540059
     19          1           0        2.805163   -0.196908   -0.755305
 ---------------------------------------------------------------------

 SCF Done:  E(RB3LYP) =  -423.124862860     A.U. after    1 cycles

 The electronic state is 1-A.
 Alpha  occ. eigenvalues --  -19.13311 -19.13273 -10.24058 -10.23209 -10.19505
 Alpha  occ. eigenvalues --  -10.19388 -10.19279 -10.18937 -10.17577  -1.02334
 Alpha  occ. eigenvalues --   -1.01606  -0.91942  -0.74302  -0.70304  -0.67362
 Alpha  occ. eigenvalues --   -0.61877  -0.56027  -0.53793  -0.52176  -0.48854
 Alpha  occ. eigenvalues --   -0.46690  -0.45286  -0.43273  -0.41665  -0.39852
 Alpha  occ. eigenvalues --   -0.37312  -0.36054  -0.35190  -0.32487  -0.31714
 Alpha  occ. eigenvalues --   -0.28590  -0.27540  -0.25975  -0.23995
 Alpha virt. eigenvalues --    0.07139   0.08760   0.10513   0.11072   0.11583
 Alpha virt. eigenvalues --    0.12568   0.13771   0.15788   0.16496   0.17439
 Alpha virt. eigenvalues --    0.17846   0.18422   0.21131   0.21401   0.22018

 Mulliken charges:
               1
     1  C   -0.471932
     2  C    0.422880
     3  O   -0.483855
     4  C   -0.091764
     5  C   -0.126918
     6  C   -0.104872
     7  C   -0.169599
     8  C    0.143883
     9  O   -0.448514
    10  H    0.106875
    11  H    0.126092
    12  H    0.126538
    13  H    0.273595
    14  H    0.091431
    15  H    0.090586
    16  H    0.095593
    17  H    0.065401
    18  H    0.077031
    19  H    0.277548
 Sum of Mulliken charges =   0.00000

 Dipole moment (field-independent basis, Debye):
    X=             -0.5803    Y=             -0.2230    Z=             -0.2123  Tot=              0.6569
 Quadrupole moment (field-independent basis, Debye-Ang):
   XX=            -56.7784   YY=            -53.0651   ZZ=            -49.9813
   XY=             -7.9740   XZ=              1.3057   YZ=             -0.9178

  Exact polarizability:  81.846  -3.004  71.925   0.391  -1.107  68.655
 Approx polarizability: 114.168   0.362 107.754   0.391  -0.178 107.842

                      1                      2                      3
                      A                      A                      A
 Frequencies --    179.8485               199.2521               228.7942
 Red. masses --      3.0077                 2.3308                 1.4243
 Frc consts  --      0.0573                 0.0545                 0.0439
 IR Inten    --      3.3399                 1.7558                 1.3403

                      4                      5                      6
                      A                      A                      A
 Frequencies --    256.9437               292.9255               308.2091
 Red. masses --      2.0000                 1.2859                 2.5198
 Frc consts  --      0.0778                 0.0650                 0.1410
 IR Inten    --     23.5935                63.2452                 3.7138

                      7                      8                      9
                      A                      A                      A
 Frequencies --    371.5367               384.3713               445.5860
 Red. masses --      1.3347                 3.7883                 2.9748
 Frc consts  --      0.1085                 0.3298                 0.3480
 IR Inten    --     78.3318                 9.9423                 4.0120

                     10                     11                     12
                      A                      A                      A
 Frequencies --    492.6266               570.6065               625.1051
 Red. masses --      4.3366                 3.9797                 3.8374
 Frc consts  --      0.6201                 0.7634                 0.8835
 IR Inten    --      2.0177                 6.5821                 2.6005

                     13                     14                     15
                      A                      A                      A
 Frequencies --    786.4325               792.0814               831.3320
 Red. masses --      1.9785                 1.3797                 2.0460
 Frc consts  --      0.7210                 0.5100                 0.8331
 IR Inten    --     11.5641                 5.2180                10.7334

                     16                     17                     18
                      A                      A                      A
 Frequencies --    837.7906               878.6779               903.8382
 Red. masses --      2.5079                 2.5116                 2.1323
 Frc consts  --      1.0371                 1.1425                 1.0263
 IR Inten    --     12.5944                 9.6371                 1.6781

                     19                     20                     21
                      A                      A                      A
 Frequencies --    928.5028               941.5817               962.0463
 Red. masses --      2.3752                 1.9405                 2.0006
 Frc consts  --      1.2065                 1.0136                 1.0910
 IR Inten    --     12.1948                 7.9557                23.1507

                     22                     23                     24
                      A                      A                      A
 Frequencies --   1007.3793              1031.0395              1037.1955
 Red. masses --      2.1680                 1.7537                 1.3606
 Frc consts  --      1.2962                 1.0984                 0.8624
 IR Inten    --      2.1458                 7.8568                 2.0447

                     25                     26                     27
                      A                      A                      A
 Frequencies --   1038.9608              1075.0585              1120.7351
 Red. masses --      2.1722                 2.2504                 1.7050
 Frc consts  --      1.3815                 1.5324                 1.2618
 IR Inten    --      2.8236               127.2125                20.3427

                     28                     29                     30
                      A                      A                      A
 Frequencies --   1148.4341              1154.8856              1179.3239
 Red. masses --      1.9458                 1.4988                 1.9686
 Frc consts  --      1.5120                 1.1778                 1.6132
 IR Inten    --     39.1856                12.4407                 3.7891

                     31                     32                     33
                      A                      A                      A
 Frequencies --   1200.1491              1203.8174              1252.7750
 Red. masses --      3.0233                 2.8244                 1.4310
 Frc consts  --      2.5657                 2.4116                 1.3232
 IR Inten    --     58.3338                17.9803                25.5192

                     34                     35                     36
                      A                      A                      A
 Frequencies --   1281.0692              1294.5466              1356.7248
 Red. masses --      1.4931                 1.6917                 3.0415
 Frc consts  --      1.4438                 1.6704                 3.2986
 IR Inten    --     17.3144                22.0495                 1.9222

                     37                     38                     39
                      A                      A                      A
 Frequencies --   1396.9440              1406.7637              1442.8864
 Red. masses --      1.9000                 1.3260                 1.2515
 Frc consts  --      2.1846                 1.5461                 1.5352
 IR Inten    --     23.1285                21.6367                71.4415

                     40                     41                     42
                      A                      A                      A
 Frequencies --   1488.4889              1498.8424              3025.2970
 Red. masses --      1.0528                 1.0815                 1.0418
 Frc consts  --      1.3744                 1.4315                 5.6177
 IR Inten    --      1.3960                12.3616                20.2662

                     43                     44                     45
                      A                      A                      A
 Frequencies --   3071.0361              3094.4163              3125.2666
 Red. masses --      1.0852                 1.0946                 1.0977
 Frc consts  --      6.0300                 6.1752                 6.3170
 IR Inten    --     49.0265                18.8112                19.9168

                     46                     47                     48
                      A                      A                      A
 Frequencies --   3125.8241              3185.9936              3194.2659
 Red. masses --      1.0931                 1.0914                 1.0922
 Frc consts  --      6.2930                 6.5273                 6.5656
 IR Inten    --     29.1276                 7.7329                19.8936

                     49                     50                     51
                      A                      A                      A
 Frequencies --   3235.0118              3779.6050              3800.6983
 Red. masses --      1.0993                 1.0650                 1.0659
 Frc consts  --      6.7784                 8.9635                 9.0721
 IR Inten    --      6.6660                 9.1241                13.3707

 - Thermochemistry -
 -------------------
 Temperature   298.150 Kelvin.  Pressure   1.00000 Atm.
 Atom     1 has atomic number  6 and mass  12.00000

 Molecular mass:   126.06808 amu.
 Principal axes and moments of inertia in atomic units:
                           1         2         3
     Eigenvalues --   569.846161291.578961428.73448
           X            0.99892  -0.04619  -0.00512
           Y            0.04629   0.99870   0.02117
           Z            0.00413  -0.02138   0.99976
 This molecule is an asymmetric top.
 Rotational symmetry number  1.
 Warning -- assumption of classical behavior for rotation
           may cause significant error
 Rotational temperatures (Kelvin)      0.15200     0.06706     0.06062
 Rotational constants (GHZ):           3.16707     1.39731     1.26317
 Zero-point vibrational energy     415532.0 (Joules/Mol)
                                   99.31453 (Kcal/Mol)
 Warning -- explicit consideration of  11 degrees of freedom as
           vibrations may cause significant error
 Vibrational temperatures:    258.76   286.68   329.18   369.68   421.45
          (Kelvin)            443.44   534.56   553.02   641.10   708.78
                              820.97   899.39  1131.50  1139.63  1196.10
                             1205.39  1264.22  1300.42  1335.91  1354.72
                             1384.17  1449.39  1483.43  1492.29  1494.83
                             1546.77  1612.49  1652.34  1661.62  1696.78
                             1726.74  1732.02  1802.46  1843.17  1862.56
                             1952.02  2009.89  2024.02  2075.99  2141.60
                             2156.50  4352.72  4418.53  4452.17  4496.56
                             4497.36  4583.93  4595.83  4654.45  5438.00
                             5468.35

 Zero-point correction=                           0.158268 (Hartree/Particle)
 Thermal correction to Energy=                    0.166474
 Thermal correction to Enthalpy=                  0.167418
 Thermal correction to Gibbs Free Energy=         0.126307
 Sum of electronic and zero-point Energies=           -422.966595
 Sum of electronic and thermal Energies=              -422.958389
 Sum of electronic and thermal Enthalpies=            -422.957445
 Sum of electronic and thermal Free Energies=         -422.998556

                     E (Thermal)             CV                S
                      KCal/Mol        Cal/Mol-Kelvin    Cal/Mol-Kelvin
 Total                  104.464             33.305             86.526
 Electronic               0.000              0.000              0.000
 Translational            0.889              2.981             40.409
 Rotational               0.889              2.981             28.444
 Vibrational            102.686             27.343             17.674
 Vibration     1          0.629              1.867              2.330
 Vibration     2          0.637              1.841              2.140
 Vibration     3          0.651              1.797              1.888
 Vibration     4          0.667              1.751              1.682
 Vibration     5          0.688              1.687              1.457
 Vibration     6          0.698              1.658              1.372
 Vibration     7          0.743              1.531              1.073
 Vibration     8          0.753              1.504              1.022
 Vibration     9          0.805              1.371              0.809
 Vibration    10          0.848              1.266              0.677
 Vibration    11          0.927              1.095              0.503

 Optimization completed.
    -- Stationary point found.
 Normal termination of Gaussian 09 at Mon Jan 27 22:55:59 2020.
