 Gaussian 09, Revision D.01,
 Gaussian 09:  ES64L-G09RevD.01 24-Apr-2013

 -----------------------------
 # b3lyp 6-31G(2df,p) opt Freq
 -----------------------------

 -----
 titel
 -----
 Symbolic Z-matrix:
 Charge =  0 Multiplicity = 1

 SCF Done:  E(RB3LYP) =  -423.135718795     A.U. after   13 cycles
 Optimization completed.
    -- Stationary point found.
 Normal termination of Gaussian 09 at Tue Jan 28 08:14:06 2020.

 ----------------------------------------------------------------------
 #N Geom=AllCheck Guess=TCheck SCRF=Check GenChk RB3LYP/6-31G(2df,p) Fr
 eq
 ----------------------------------------------------------------------

 Structure from the checkpoint file:  "/scratch/puck/g09_218b5ecb-b929-4c15-b130-b6213c88f1ac/Gau-106386.chk"
 -----
 titel
 -----
 Charge =  0 Multiplicity = 1

                         Standard orientation:
 ---------------------------------------------------------------------
 Center     Atomic      Atomic             Coordinates (Angstroms)
 Number     Number       Type             X           Y           Z
 ---------------------------------------------------------------------
      1          8           0       -1.671560    1.412673   -0.315332
      2          6           0       -1.235831    0.368196    0.546033
      3          6           0       -1.505199   -0.985130   -0.181734
      4          8           0       -0.305424   -1.378357   -0.868972
      5          6           0        0.752380   -0.731143   -0.237948
      6          6           0        0.959682   -0.889581    1.237568
      7          6           0        0.276951    0.354429    0.698370
      8          6           0        1.305917    1.329582    0.081483
      9          6           0        1.749760    0.206464   -0.923331
     10          1           0       -1.540823    2.247765    0.145042
     11          1           0       -1.792682    0.400033    1.493624
     12          1           0       -1.789856   -1.755723    0.546606
     13          1           0       -2.309194   -0.879457   -0.914313
     14          1           0        0.325280   -1.618305    1.729717
     15          1           0        1.950632   -0.796274    1.673832
     16          1           0        0.836815    2.172844   -0.426917
     17          1           0        2.069503    1.705970    0.769184
     18          1           0        1.444570    0.432371   -1.946175
     19          1           0        2.799663   -0.100648   -0.918820
 ---------------------------------------------------------------------

 SCF Done:  E(RB3LYP) =  -423.135718795     A.U. after    1 cycles

 The electronic state is 1-A.
 Alpha  occ. eigenvalues --  -19.14272 -19.14191 -10.24273 -10.22744 -10.22725
 Alpha  occ. eigenvalues --  -10.19151 -10.19150 -10.18680 -10.18318  -1.04760
 Alpha  occ. eigenvalues --   -1.01983  -0.88545  -0.75486  -0.72724  -0.64031
 Alpha  occ. eigenvalues --   -0.63896  -0.57285  -0.53370  -0.51790  -0.49573
 Alpha  occ. eigenvalues --   -0.46667  -0.43540  -0.42867  -0.42238  -0.40447
 Alpha  occ. eigenvalues --   -0.39214  -0.37009  -0.35187  -0.34227  -0.31684
 Alpha  occ. eigenvalues --   -0.31207  -0.27995  -0.26033  -0.21313
 Alpha virt. eigenvalues --    0.06480   0.08675   0.10132   0.11271   0.12029
 Alpha virt. eigenvalues --    0.12482   0.14988   0.15736   0.16570   0.17204
 Alpha virt. eigenvalues --    0.17922   0.18637   0.19638   0.20573   0.23411

 Mulliken charges:
               1
     1  O   -0.427816
     2  C    0.010610
     3  C   -0.107850
     4  O   -0.293669
     5  C    0.390370
     6  C   -0.404993
     7  C    0.171783
     8  C   -0.284096
     9  C   -0.287535
    10  H    0.286455
    11  H    0.068727
    12  H    0.099682
    13  H    0.126558
    14  H    0.119590
    15  H    0.110896
    16  H    0.105364
    17  H    0.097238
    18  H    0.121250
    19  H    0.097436
 Sum of Mulliken charges =   0.00000

 Dipole moment (field-independent basis, Debye):
    X=              0.1375    Y=              1.3196    Z=              1.8362  Tot=              2.2653
 Quadrupole moment (field-independent basis, Debye-Ang):
   XX=            -51.6809   YY=            -51.7565   ZZ=            -54.2260
   XY=              0.7360   XZ=             -2.1627   YZ=             -1.0154

  Exact polarizability:  81.411   2.623  72.321   0.060  -3.135  67.476
 Approx polarizability: 111.104   0.235 108.215   0.954  -0.377 106.172

                      1                      2                      3
                      A                      A                      A
 Frequencies --    118.3989               180.8432               252.9080
 Red. masses --      3.2097                 3.0186                 2.4146
 Frc consts  --      0.0265                 0.0582                 0.0910
 IR Inten    --      0.1432                 2.4448                 2.9159

                      4                      5                      6
                      A                      A                      A
 Frequencies --    302.6104               340.1991               388.1443
 Red. masses --      1.0697                 2.9833                 2.8060
 Frc consts  --      0.0577                 0.2034                 0.2491
 IR Inten    --    121.7596                 3.2029                 3.3815

                      7                      8                      9
                      A                      A                      A
 Frequencies --    428.8488               465.7802               550.7104
 Red. masses --      2.2885                 3.9970                 3.6791
 Frc consts  --      0.2480                 0.5109                 0.6574
 IR Inten    --      6.6081                 9.7302                16.3547

                     10                     11                     12
                      A                      A                      A
 Frequencies --    648.7481               678.8658               764.3171
 Red. masses --      3.5607                 4.7237                 1.8468
 Frc consts  --      0.8830                 1.2826                 0.6356
 IR Inten    --      1.9594                 3.7980                 1.7083

                     13                     14                     15
                      A                      A                      A
 Frequencies --    769.6324               813.9415               843.2170
 Red. masses --      1.8243                 3.7794                 4.1531
 Frc consts  --      0.6367                 1.4752                 1.7398
 IR Inten    --      3.2704                15.5870                 3.3655

                     16                     17                     18
                      A                      A                      A
 Frequencies --    867.5876               914.4422               927.1092
 Red. masses --      2.9486                 1.5594                 1.9427
 Frc consts  --      1.3076                 0.7683                 0.9838
 IR Inten    --     17.4518                 3.4570                 4.6005

                     19                     20                     21
                      A                      A                      A
 Frequencies --    952.8838               964.7119               977.2116
 Red. masses --      2.1111                 2.2348                 2.6376
 Frc consts  --      1.1294                 1.2254                 1.4840
 IR Inten    --     25.3032                17.0814                10.9218

                     22                     23                     24
                      A                      A                      A
 Frequencies --   1018.9124              1059.3466              1099.2503
 Red. masses --      3.5470                 1.3385                 1.3827
 Frc consts  --      2.1697                 0.8850                 0.9844
 IR Inten    --     73.9665                 2.6401                 3.2909

                     25                     26                     27
                      A                      A                      A
 Frequencies --   1115.5322              1165.8442              1215.3736
 Red. masses --      3.2234                 2.9371                 1.3792
 Frc consts  --      2.3634                 2.3521                 1.2003
 IR Inten    --     14.2662                 9.9012                 9.2562

                     28                     29                     30
                      A                      A                      A
 Frequencies --   1225.3915              1238.2030              1239.2470
 Red. masses --      1.1886                 1.2176                 1.3613
 Frc consts  --      1.0515                 1.0999                 1.2317
 IR Inten    --     38.8955                 3.6978                 1.8435

                     31                     32                     33
                      A                      A                      A
 Frequencies --   1245.6424              1283.6679              1299.6454
 Red. masses --      1.3046                 2.1534                 2.8243
 Frc consts  --      1.1926                 2.0907                 2.8107
 IR Inten    --      5.1534                 6.3870                32.5232

                     34                     35                     36
                      A                      A                      A
 Frequencies --   1316.3080              1360.5775              1389.1338
 Red. masses --      1.5096                 2.8785                 1.5497
 Frc consts  --      1.5411                 3.1395                 1.7619
 IR Inten    --     66.9632                 4.1531                15.4450

                     37                     38                     39
                      A                      A                      A
 Frequencies --   1416.2237              1466.5402              1473.9040
 Red. masses --      1.3795                 1.0887                 1.1950
 Frc consts  --      1.6301                 1.3795                 1.5296
 IR Inten    --      7.5790                 0.1247                 7.9806

                     40                     41                     42
                      A                      A                      A
 Frequencies --   1495.9744              1509.9271              2989.4819
 Red. masses --      1.2344                 1.0927                 1.0829
 Frc consts  --      1.6277                 1.4678                 5.7020
 IR Inten    --      7.7959                 2.4495                43.9785

                     43                     44                     45
                      A                      A                      A
 Frequencies --   3021.2633              3048.9893              3058.3161
 Red. masses --      1.0690                 1.0625                 1.0635
 Frc consts  --      5.7491                 5.8193                 5.8608
 IR Inten    --     78.3607                45.7117                60.1847

                     46                     47                     48
                      A                      A                      A
 Frequencies --   3103.7219              3115.7860              3117.4812
 Red. masses --      1.0980                 1.1024                 1.0580
 Frc consts  --      6.2317                 6.3055                 6.0583
 IR Inten    --     17.1375                 1.5153                15.9911

                     49                     50                     51
                      A                      A                      A
 Frequencies --   3133.1578              3212.8873              3820.2941
 Red. masses --      1.1031                 1.1138                 1.0662
 Frc consts  --      6.3802                 6.7739                 9.1683
 IR Inten    --     27.3704                 7.0823                23.1612

 - Thermochemistry -
 -------------------
 Temperature   298.150 Kelvin.  Pressure   1.00000 Atm.
 Atom     1 has atomic number  8 and mass  15.99491

 Molecular mass:   126.06808 amu.
 Principal axes and moments of inertia in atomic units:
                           1         2         3
     Eigenvalues --   722.04411 958.725121200.17263
           X            0.99757   0.06756  -0.01712
           Y           -0.06841   0.99613  -0.05519
           Z            0.01332   0.05623   0.99833
 This molecule is an asymmetric top.
 Rotational symmetry number  1.
 Warning -- assumption of classical behavior for rotation
           may cause significant error
 Rotational temperatures (Kelvin)      0.11996     0.09034     0.07217
 Rotational constants (GHZ):           2.49949     1.88244     1.50373
 Zero-point vibrational energy     421128.2 (Joules/Mol)
                                  100.65205 (Kcal/Mol)
 Warning -- explicit consideration of   9 degrees of freedom as
           vibrations may cause significant error
 Vibrational temperatures:    170.35   260.19   363.88   435.39   489.47
          (Kelvin)            558.45   617.02   670.15   792.35   933.40
                              976.74  1099.68  1107.33  1171.08  1213.20
                             1248.26  1315.68  1333.90  1370.99  1388.00
                             1405.99  1465.99  1524.16  1581.57  1605.00
                             1677.39  1748.65  1763.06  1781.50  1783.00
                             1792.20  1846.91  1869.90  1893.87  1957.57
                             1998.65  2037.63  2110.02  2120.62  2152.37
                             2172.45  4301.19  4346.92  4386.81  4400.23
                             4465.56  4482.92  4485.35  4507.91  4622.62
                             5496.54

 Zero-point correction=                           0.160399 (Hartree/Particle)
 Thermal correction to Energy=                    0.167983
 Thermal correction to Enthalpy=                  0.168927
 Thermal correction to Gibbs Free Energy=         0.128761
 Sum of electronic and zero-point Energies=           -422.975320
 Sum of electronic and thermal Energies=              -422.967736
 Sum of electronic and thermal Enthalpies=            -422.966792
 Sum of electronic and thermal Free Energies=         -423.006957

                     E (Thermal)             CV                S
                      KCal/Mol        Cal/Mol-Kelvin    Cal/Mol-Kelvin
 Total                  105.411             30.781             84.536
 Electronic               0.000              0.000              0.000
 Translational            0.889              2.981             40.409
 Rotational               0.889              2.981             28.209
 Vibrational            103.633             24.819             15.918
 Vibration     1          0.609              1.934              3.126
 Vibration     2          0.630              1.866              2.320
 Vibration     3          0.664              1.758              1.710
 Vibration     4          0.694              1.669              1.402
 Vibration     5          0.720              1.595              1.211
 Vibration     6          0.756              1.496              1.007
 Vibration     7          0.790              1.407              0.862
 Vibration     8          0.823              1.326              0.749
 Vibration     9          0.906              1.138              0.543

 Optimization completed.
    -- Stationary point found.
 Normal termination of Gaussian 09 at Tue Jan 28 09:06:28 2020.
