 Gaussian 09, Revision D.01,
 Gaussian 09:  ES64L-G09RevD.01 24-Apr-2013

 -----------------------------
 # b3lyp 6-31G(2df,p) opt Freq
 -----------------------------

 -----
 titel
 -----
 Symbolic Z-matrix:
 Charge =  0 Multiplicity = 1

 SCF Done:  E(RB3LYP) =  -423.152322840     A.U. after   14 cycles
 Optimization completed.
    -- Stationary point found.
 Normal termination of Gaussian 09 at Mon Jan 27 18:18:56 2020.

 ----------------------------------------------------------------------
 #N Geom=AllCheck Guess=TCheck SCRF=Check GenChk RB3LYP/6-31G(2df,p) Fr
 eq
 ----------------------------------------------------------------------

 Structure from the checkpoint file:  "/scratch/puck/g09_9eb08f56-cd15-4074-b421-dddda4867de5/Gau-17554.chk"
 -----
 titel
 -----
 Charge =  0 Multiplicity = 1

                         Standard orientation:
 ---------------------------------------------------------------------
 Center     Atomic      Atomic             Coordinates (Angstroms)
 Number     Number       Type             X           Y           Z
 ---------------------------------------------------------------------
      1          6           0       -2.365739    0.125011   -0.461837
      2          6           0       -0.930647    0.036035   -0.005467
      3          6           0       -0.564426   -0.685527    1.329716
      4          6           0        0.723008   -1.155352    0.631487
      5          6           0        1.602389    0.024999    0.078570
      6          6           0        0.979141    1.372241    0.407508
      7          8           0       -0.384246    1.350005   -0.014741
      8          8           0        1.213726   -0.274987   -1.294920
      9          6           0        0.080374   -0.956405   -0.753049
     10          1           0       -2.814628   -0.871186   -0.518180
     11          1           0       -2.955656    0.732990    0.231300
     12          1           0       -2.417337    0.588451   -1.451834
     13          1           0       -0.502643   -0.062135    2.225690
     14          1           0       -1.227919   -1.532466    1.528834
     15          1           0        1.259279   -2.052448    0.939590
     16          1           0        2.684094   -0.011717    0.228947
     17          1           0        1.061129    1.593561    1.483228
     18          1           0        1.474216    2.174538   -0.148545
     19          1           0       -0.340967   -1.725734   -1.403322
 ---------------------------------------------------------------------

 SCF Done:  E(RB3LYP) =  -423.152322840     A.U. after    1 cycles

 The electronic state is 1-A.
 Alpha  occ. eigenvalues --  -19.13783 -19.13348 -10.24032 -10.23759 -10.23042
 Alpha  occ. eigenvalues --  -10.22783 -10.19433 -10.18411 -10.17523  -1.06423
 Alpha  occ. eigenvalues --   -1.01278  -0.82878  -0.76675  -0.70598  -0.64800
 Alpha  occ. eigenvalues --   -0.63587  -0.59756  -0.52821  -0.50289  -0.48812
 Alpha  occ. eigenvalues --   -0.46887  -0.44533  -0.42267  -0.41532  -0.40017
 Alpha  occ. eigenvalues --   -0.39855  -0.37892  -0.36705  -0.35025  -0.31808
 Alpha  occ. eigenvalues --   -0.30147  -0.29595  -0.25686  -0.22444
 Alpha virt. eigenvalues --    0.07510   0.09024   0.10609   0.11841   0.12870
 Alpha virt. eigenvalues --    0.13938   0.14672   0.15584   0.16053   0.16436
 Alpha virt. eigenvalues --    0.17470   0.17800   0.19574   0.20557   0.21431

 Mulliken charges:
               1
     1  C   -0.473676
     2  C    0.383290
     3  C   -0.297917
     4  C   -0.100033
     5  C    0.065265
     6  C   -0.091019
     7  O   -0.295321
     8  O   -0.292011
     9  C    0.083948
    10  H    0.111777
    11  H    0.125497
    12  H    0.132511
    13  H    0.103748
    14  H    0.103257
    15  H    0.075373
    16  H    0.082318
    17  H    0.090916
    18  H    0.116970
    19  H    0.075107
 Sum of Mulliken charges =   0.00000

 Dipole moment (field-independent basis, Debye):
    X=             -0.0213    Y=             -1.1674    Z=              1.7178  Tot=              2.0771
 Quadrupole moment (field-independent basis, Debye-Ang):
   XX=            -50.6907   YY=            -52.9497   ZZ=            -55.0696
   XY=              2.8014   XZ=              3.2016   YZ=              0.6040

  Exact polarizability:  81.549   3.573  71.596   2.228   0.697  68.140
 Approx polarizability: 111.386   4.480 105.656   1.198   1.120 106.099

                      1                      2                      3
                      A                      A                      A
 Frequencies --    205.0599               233.6128               279.7671
 Red. masses --      1.0880                 2.6891                 2.3964
 Frc consts  --      0.0270                 0.0865                 0.1105
 IR Inten    --      0.2264                 2.5475                 0.8300

                      4                      5                      6
                      A                      A                      A
 Frequencies --    303.1252               402.0878               408.0075
 Red. masses --      2.6005                 2.4357                 3.4005
 Frc consts  --      0.1408                 0.2320                 0.3335
 IR Inten    --      2.3747                 0.2582                 1.7026

                      7                      8                      9
                      A                      A                      A
 Frequencies --    454.4209               552.3298               639.6967
 Red. masses --      2.9410                 4.0146                 4.8436
 Frc consts  --      0.3578                 0.7216                 1.1678
 IR Inten    --      2.1515                 2.5034                 7.1293

                     10                     11                     12
                      A                      A                      A
 Frequencies --    683.3685               749.7850               777.1838
 Red. masses --      4.5675                 3.9742                 2.6323
 Frc consts  --      1.2567                 1.3164                 0.9368
 IR Inten    --      7.5968                 2.9921                 2.0061

                     13                     14                     15
                      A                      A                      A
 Frequencies --    821.2748               850.7175               888.5006
 Red. masses --      2.4267                 1.7316                 2.4960
 Frc consts  --      0.9644                 0.7383                 1.1609
 IR Inten    --      1.7703                 8.0592                18.3406

                     16                     17                     18
                      A                      A                      A
 Frequencies --    896.3844               920.1151               976.1414
 Red. masses --      3.2314                 2.0272                 1.6966
 Frc consts  --      1.5298                 1.0112                 0.9525
 IR Inten    --     24.6235                 8.5132                 9.3781

                     19                     20                     21
                      A                      A                      A
 Frequencies --    979.3468              1011.3780              1024.3204
 Red. masses --      2.1740                 3.0477                 1.6746
 Frc consts  --      1.2285                 1.8368                 1.0352
 IR Inten    --      3.2240                12.5511                33.3668

                     22                     23                     24
                      A                      A                      A
 Frequencies --   1055.0600              1065.9618              1111.7620
 Red. masses --      2.3121                 1.8273                 3.1496
 Frc consts  --      1.5164                 1.2233                 2.2937
 IR Inten    --     40.3703                15.5162                37.3341

                     25                     26                     27
                      A                      A                      A
 Frequencies --   1131.3373              1165.5919              1205.0590
 Red. masses --      2.1757                 1.7289                 1.8961
 Frc consts  --      1.6407                 1.3839                 1.6223
 IR Inten    --     12.0249                 4.7629                17.6752

                     28                     29                     30
                      A                      A                      A
 Frequencies --   1213.5317              1216.0727              1223.5582
 Red. masses --      1.4820                 1.4492                 1.8690
 Frc consts  --      1.2859                 1.2627                 1.6486
 IR Inten    --     10.0048                 9.4331                 5.1268

                     31                     32                     33
                      A                      A                      A
 Frequencies --   1258.3945              1280.6476              1322.3005
 Red. masses --      1.3502                 1.7695                 1.8290
 Frc consts  --      1.2597                 1.7098                 1.8842
 IR Inten    --      3.1949                11.9979                 7.3741

                     34                     35                     36
                      A                      A                      A
 Frequencies --   1329.5275              1352.9680              1393.8914
 Red. masses --      1.9031                 1.7607                 1.4039
 Frc consts  --      1.9820                 1.8989                 1.6071
 IR Inten    --      8.1977                 7.8719                 1.0288

                     37                     38                     39
                      A                      A                      A
 Frequencies --   1411.9252              1477.5833              1479.4525
 Red. masses --      1.4009                 1.1148                 1.0501
 Frc consts  --      1.6454                 1.4340                 1.3542
 IR Inten    --      9.4307                 3.7345                 2.4105

                     40                     41                     42
                      A                      A                      A
 Frequencies --   1493.2581              1505.9696              2982.7060
 Red. masses --      1.0531                 1.0933                 1.0694
 Frc consts  --      1.3836                 1.4609                 5.6053
 IR Inten    --      2.4589                 1.9471                58.3750

                     43                     44                     45
                      A                      A                      A
 Frequencies --   3037.4042              3052.9791              3074.5785
 Red. masses --      1.0350                 1.0576                 1.0930
 Frc consts  --      5.6261                 5.8077                 6.0878
 IR Inten    --     16.6208                29.8583                16.6886

                     46                     47                     48
                      A                      A                      A
 Frequencies --   3084.5595              3092.5229              3105.1381
 Red. masses --      1.0898                 1.0890                 1.1075
 Frc consts  --      6.1094                 6.1361                 6.2918
 IR Inten    --     54.5248                43.7163                11.1257

                     49                     50                     51
                      A                      A                      A
 Frequencies --   3110.4838              3115.0845              3116.8040
 Red. masses --      1.1016                 1.1003                 1.0934
 Frc consts  --      6.2796                 6.2904                 6.2579
 IR Inten    --     21.2751                 9.6850                58.1600

 - Thermochemistry -
 -------------------
 Temperature   298.150 Kelvin.  Pressure   1.00000 Atm.
 Atom     1 has atomic number  6 and mass  12.00000

 Molecular mass:   126.06808 amu.
 Principal axes and moments of inertia in atomic units:
                           1         2         3
     Eigenvalues --   654.16322 970.997291061.32017
           X            0.99827   0.04125   0.04196
           Y           -0.04120   0.99915  -0.00217
           Z           -0.04201   0.00044   0.99912
 This molecule is an asymmetric top.
 Rotational symmetry number  1.
 Warning -- assumption of classical behavior for rotation
           may cause significant error
 Rotational temperatures (Kelvin)      0.13240     0.08920     0.08161
 Rotational constants (GHZ):           2.75885     1.85865     1.70047
 Zero-point vibrational energy     421819.6 (Joules/Mol)
                                  100.81731 (Kcal/Mol)
 Warning -- explicit consideration of   8 degrees of freedom as
           vibrations may cause significant error
 Vibrational temperatures:    295.04   336.12   402.52   436.13   578.51
          (Kelvin)            587.03   653.81   794.68   920.38   983.21
                             1078.77  1118.19  1181.63  1223.99  1278.35
                             1289.70  1323.84  1404.45  1409.06  1455.15
                             1473.77  1517.99  1533.68  1599.58  1627.74
                             1677.02  1733.81  1746.00  1749.66  1760.43
                             1810.55  1842.56  1902.49  1912.89  1946.62
                             2005.50  2031.44  2125.91  2128.60  2148.46
                             2166.75  4291.44  4370.14  4392.55  4423.63
                             4437.99  4449.45  4467.60  4475.29  4481.91
                             4484.38

 Zero-point correction=                           0.160663 (Hartree/Particle)
 Thermal correction to Energy=                    0.167640
 Thermal correction to Enthalpy=                  0.168584
 Thermal correction to Gibbs Free Energy=         0.129850
 Sum of electronic and zero-point Energies=           -422.991660
 Sum of electronic and thermal Energies=              -422.984683
 Sum of electronic and thermal Enthalpies=            -422.983739
 Sum of electronic and thermal Free Energies=         -423.022473

                     E (Thermal)             CV                S
                      KCal/Mol        Cal/Mol-Kelvin    Cal/Mol-Kelvin
 Total                  105.196             29.217             81.524
 Electronic               0.000              0.000              0.000
 Translational            0.889              2.981             40.409
 Rotational               0.889              2.981             28.002
 Vibrational            103.418             23.256             13.113
 Vibration     1          0.640              1.833              2.087
 Vibration     2          0.654              1.789              1.851
 Vibration     3          0.680              1.711              1.535
 Vibration     4          0.695              1.668              1.400
 Vibration     5          0.768              1.466              0.955
 Vibration     6          0.773              1.453              0.934
 Vibration     7          0.813              1.351              0.783
 Vibration     8          0.908              1.135              0.539

 Optimization completed.
    -- Stationary point found.
 Normal termination of Gaussian 09 at Mon Jan 27 20:15:16 2020.
