 Gaussian 09, Revision D.01,
 Gaussian 09:  ES64L-G09RevD.01 24-Apr-2013

 -----------------------------
 # b3lyp 6-31G(2df,p) opt Freq
 -----------------------------

 -----
 titel
 -----
 Symbolic Z-matrix:
 Charge =  0 Multiplicity = 1

 SCF Done:  E(RB3LYP) =  -423.170471640     A.U. after   14 cycles
 Optimization completed.
    -- Stationary point found.
 Normal termination of Gaussian 09 at Mon Jan 27 18:36:56 2020.

 ----------------------------------------------------------------------
 #N Geom=AllCheck Guess=TCheck SCRF=Check GenChk RB3LYP/6-31G(2df,p) Fr
 eq
 ----------------------------------------------------------------------

 Structure from the checkpoint file:  "/scratch/puck/g09_535c2563-80f2-4b3b-9238-a9f8e5c899b2/Gau-169924.chk"
 -----
 titel
 -----
 Charge =  0 Multiplicity = 1

                         Standard orientation:
 ---------------------------------------------------------------------
 Center     Atomic      Atomic             Coordinates (Angstroms)
 Number     Number       Type             X           Y           Z
 ---------------------------------------------------------------------
      1          8           0       -0.772019   -1.397684   -1.098635
      2          6           0       -0.541138   -0.587599    0.045599
      3          6           0       -1.907925   -0.224632    0.689798
      4          6           0       -1.847771    1.168642   -0.036596
      5          6           0       -0.375567    0.894070   -0.252594
      6          6           0        0.792347    1.518791   -0.230315
      7          6           0        2.045772    0.695550   -0.044123
      8          8           0        1.814355   -0.706870    0.023799
      9          6           0        0.677954   -1.070763    0.815926
     10          1           0        0.066304   -1.421799   -1.577188
     11          1           0       -2.729620   -0.889665    0.420046
     12          1           0       -1.847840   -0.128248    1.776269
     13          1           0       -2.426351    1.159016   -0.965189
     14          1           0       -2.117679    2.057383    0.539263
     15          1           0        0.901475    2.600793   -0.247974
     16          1           0        2.751491    0.837583   -0.871284
     17          1           0        2.559692    1.036048    0.873619
     18          1           0        0.732064   -0.618961    1.817654
     19          1           0        0.709751   -2.160076    0.907303
 ---------------------------------------------------------------------

 SCF Done:  E(RB3LYP) =  -423.170471640     A.U. after    1 cycles

 The electronic state is 1-A.
 Alpha  occ. eigenvalues --  -19.14593 -19.13075 -10.23583 -10.22966 -10.22477
 Alpha  occ. eigenvalues --  -10.18990 -10.18621 -10.18298 -10.18156  -1.04001
 Alpha  occ. eigenvalues --   -1.00966  -0.84530  -0.76810  -0.71900  -0.66411
 Alpha  occ. eigenvalues --   -0.61305  -0.59121  -0.53316  -0.50023  -0.48569
 Alpha  occ. eigenvalues --   -0.47965  -0.45671  -0.43986  -0.41934  -0.39351
 Alpha  occ. eigenvalues --   -0.38009  -0.36338  -0.36105  -0.33741  -0.31933
 Alpha  occ. eigenvalues --   -0.30875  -0.27664  -0.24413  -0.24004
 Alpha virt. eigenvalues --    0.01270   0.08739   0.10404   0.11761   0.12795
 Alpha virt. eigenvalues --    0.13259   0.14445   0.15271   0.15736   0.16507
 Alpha virt. eigenvalues --    0.17503   0.18119   0.19191   0.21621   0.22446

 Mulliken charges:
               1
     1  O   -0.493212
     2  C    0.381154
     3  C   -0.280597
     4  C   -0.328695
     5  C    0.298050
     6  C   -0.266638
     7  C   -0.111510
     8  O   -0.271554
     9  C   -0.170598
    10  H    0.279155
    11  H    0.114693
    12  H    0.105705
    13  H    0.123639
    14  H    0.108054
    15  H    0.091875
    16  H    0.120628
    17  H    0.100990
    18  H    0.088027
    19  H    0.110833
 Sum of Mulliken charges =   0.00000

 Dipole moment (field-independent basis, Debye):
    X=              0.2727    Y=              1.4776    Z=              0.9118  Tot=              1.7576
 Quadrupole moment (field-independent basis, Debye-Ang):
   XX=            -53.5855   YY=            -53.0846   ZZ=            -51.9502
   XY=              0.5476   XZ=             -1.9207   YZ=             -0.8766

  Exact polarizability:  93.545   6.346  77.803  -1.313  -0.984  62.360
 Approx polarizability: 134.243  14.124 113.880  -1.030   1.992  95.907

                      1                      2                      3
                      A                      A                      A
 Frequencies --    121.9872               207.2419               227.2640
 Red. masses --      2.5861                 2.9528                 4.0651
 Frc consts  --      0.0227                 0.0747                 0.1237
 IR Inten    --      0.7001                 0.0589                 2.9013

                      4                      5                      6
                      A                      A                      A
 Frequencies --    274.3923               323.5841               389.5360
 Red. masses --      2.1333                 2.5684                 2.0498
 Frc consts  --      0.0946                 0.1584                 0.1833
 IR Inten    --      7.5430                 3.5854                 0.7856

                      7                      8                      9
                      A                      A                      A
 Frequencies --    433.7175               451.8302               488.9548
 Red. masses --      1.2773                 4.2705                 3.3519
 Frc consts  --      0.1416                 0.5137                 0.4721
 IR Inten    --     58.1121                17.2079                10.9885

                     10                     11                     12
                      A                      A                      A
 Frequencies --    545.7073               635.3685               708.2337
 Red. masses --      3.4942                 3.8626                 1.5680
 Frc consts  --      0.6131                 0.9187                 0.4634
 IR Inten    --      8.8076                 2.6817                 6.2258

                     13                     14                     15
                      A                      A                      A
 Frequencies --    755.5167               805.2853               822.9701
 Red. masses --      3.6337                 2.7477                 1.2446
 Frc consts  --      1.2220                 1.0498                 0.4966
 IR Inten    --      8.6131                11.9181                10.7661

                     16                     17                     18
                      A                      A                      A
 Frequencies --    882.9844               908.0517               942.0295
 Red. masses --      3.0765                 2.8356                 2.1158
 Frc consts  --      1.4132                 1.3776                 1.1063
 IR Inten    --      9.0212                 3.3736                12.5542

                     19                     20                     21
                      A                      A                      A
 Frequencies --    962.9458               972.1894              1028.3699
 Red. masses --      2.0330                 2.3577                 2.0371
 Frc consts  --      1.1107                 1.3129                 1.2693
 IR Inten    --      4.8209                24.4966                 1.3950

                     22                     23                     24
                      A                      A                      A
 Frequencies --   1041.7047              1082.3188              1097.9689
 Red. masses --      2.3617                 1.8245                 2.8872
 Frc consts  --      1.5100                 1.2592                 2.0507
 IR Inten    --     55.4815                26.2092                19.7834

                     25                     26                     27
                      A                      A                      A
 Frequencies --   1131.5493              1168.9983              1193.3088
 Red. masses --      3.7999                 2.0192                 1.7068
 Frc consts  --      2.8666                 1.6258                 1.4320
 IR Inten    --     38.5327                 3.4493                 3.1111

                     28                     29                     30
                      A                      A                      A
 Frequencies --   1218.0867              1239.2577              1259.4878
 Red. masses --      1.6088                 1.2044                 1.3897
 Frc consts  --      1.4064                 1.0898                 1.2989
 IR Inten    --      9.7251                 7.4747                21.2125

                     31                     32                     33
                      A                      A                      A
 Frequencies --   1263.4471              1300.9153              1325.7615
 Red. masses --      1.5251                 1.2458                 1.4795
 Frc consts  --      1.4344                 1.2422                 1.5321
 IR Inten    --      7.5787                25.8160                39.4256

                     34                     35                     36
                      A                      A                      A
 Frequencies --   1350.7477              1386.3655              1406.1756
 Red. masses --      1.5956                 1.4045                 1.6262
 Frc consts  --      1.7152                 1.5905                 1.8946
 IR Inten    --      1.8249                27.7336                19.4403

                     37                     38                     39
                      A                      A                      A
 Frequencies --   1462.1113              1477.2342              1481.7920
 Red. masses --      1.0877                 1.1344                 1.0827
 Frc consts  --      1.3700                 1.4586                 1.4006
 IR Inten    --      1.7216                 1.1264                 0.4653

                     40                     41                     42
                      A                      A                      A
 Frequencies --   1489.6523              1769.6242              2938.9557
 Red. masses --      1.0933                 8.5963                 1.0725
 Frc consts  --      1.4294                15.8607                 5.4582
 IR Inten    --      4.6864                 2.4961                66.4724

                     43                     44                     45
                      A                      A                      A
 Frequencies --   2994.1890              3048.2465              3054.5358
 Red. masses --      1.0665                 1.0873                 1.0581
 Frc consts  --      5.6335                 5.9526                 5.8165
 IR Inten    --     45.4512                30.9751                32.5777

                     46                     47                     48
                      A                      A                      A
 Frequencies --   3072.9104              3092.6937              3104.7759
 Red. masses --      1.0592                 1.0979                 1.1059
 Frc consts  --      5.8929                 6.1869                 6.2812
 IR Inten    --     27.6214                28.0604                15.8253

                     49                     50                     51
                      A                      A                      A
 Frequencies --   3138.4590              3153.4604              3778.4141
 Red. masses --      1.1085                 1.0912                 1.0652
 Frc consts  --      6.4334                 6.3933                 8.9602
 IR Inten    --     21.5826                18.2366                18.9910

 - Thermochemistry -
 -------------------
 Temperature   298.150 Kelvin.  Pressure   1.00000 Atm.
 Atom     1 has atomic number  8 and mass  15.99491

 Molecular mass:   126.06808 amu.
 Principal axes and moments of inertia in atomic units:
                           1         2         3
     Eigenvalues --   666.322271071.511201400.55028
           X            0.99995   0.00571  -0.00860
           Y           -0.00588   0.99978  -0.02013
           Z            0.00848   0.02018   0.99976
 This molecule is an asymmetric top.
 Rotational symmetry number  1.
 Warning -- assumption of classical behavior for rotation
           may cause significant error
 Rotational temperatures (Kelvin)      0.12999     0.08083     0.06184
 Rotational constants (GHZ):           2.70851     1.68430     1.28859
 Zero-point vibrational energy     421153.1 (Joules/Mol)
                                  100.65802 (Kcal/Mol)
 Warning -- explicit consideration of  10 degrees of freedom as
           vibrations may cause significant error
 Vibrational temperatures:    175.51   298.17   326.98   394.79   465.56
          (Kelvin)            560.45   624.02   650.08   703.50   785.15
                              914.15  1018.99  1087.02  1158.62  1184.07
                             1270.42  1306.48  1355.37  1385.46  1398.76
                             1479.59  1498.78  1557.21  1579.73  1628.05
                             1681.93  1716.90  1752.55  1783.01  1812.12
                             1817.82  1871.72  1907.47  1943.42  1994.67
                             2023.17  2103.65  2125.41  2131.97  2143.27
                             2546.09  4228.50  4307.96  4385.74  4394.79
                             4421.23  4449.69  4467.07  4515.54  4537.12
                             5436.29

 Zero-point correction=                           0.160409 (Hartree/Particle)
 Thermal correction to Energy=                    0.168163
 Thermal correction to Enthalpy=                  0.169108
 Thermal correction to Gibbs Free Energy=         0.128597
 Sum of electronic and zero-point Energies=           -423.010063
 Sum of electronic and thermal Energies=              -423.002308
 Sum of electronic and thermal Enthalpies=            -423.001364
 Sum of electronic and thermal Free Energies=         -423.041875

                     E (Thermal)             CV                S
                      KCal/Mol        Cal/Mol-Kelvin    Cal/Mol-Kelvin
 Total                  105.524             31.215             85.262
 Electronic               0.000              0.000              0.000
 Translational            0.889              2.981             40.409
 Rotational               0.889              2.981             28.394
 Vibrational            103.747             25.253             16.460
 Vibration     1          0.609              1.931              3.069
 Vibration     2          0.641              1.830              2.068
 Vibration     3          0.651              1.799              1.900
 Vibration     4          0.677              1.721              1.568
 Vibration     5          0.708              1.628              1.292
 Vibration     6          0.757              1.493              1.002
 Vibration     7          0.794              1.397              0.847
 Vibration     8          0.810              1.357              0.790
 Vibration     9          0.845              1.275              0.686
 Vibration    10          0.901              1.149              0.553

 Optimization completed.
    -- Stationary point found.
 Normal termination of Gaussian 09 at Mon Jan 27 19:24:19 2020.
