 Gaussian 09, Revision D.01,
 Gaussian 09:  ES64L-G09RevD.01 24-Apr-2013

 -----------------------------
 # b3lyp 6-31G(2df,p) opt Freq
 -----------------------------

 -----
 titel
 -----
 Symbolic Z-matrix:
 Charge =  0 Multiplicity = 1

 SCF Done:  E(RB3LYP) =  -423.198420299     A.U. after   14 cycles
 Optimization completed.
    -- Stationary point found.
 Normal termination of Gaussian 09 at Mon Jan 27 13:11:03 2020.

 ----------------------------------------------------------------------
 #N Geom=AllCheck Guess=TCheck SCRF=Check GenChk RB3LYP/6-31G(2df,p) Fr
 eq
 ----------------------------------------------------------------------

 Structure from the checkpoint file:  "/scratch/puck/g09_b6626b80-8742-4795-a966-8956c57ec6cd/Gau-28057.chk"
 -----
 titel
 -----
 Charge =  0 Multiplicity = 1

                         Standard orientation:
 ---------------------------------------------------------------------
 Center     Atomic      Atomic             Coordinates (Angstroms)
 Number     Number       Type             X           Y           Z
 ---------------------------------------------------------------------
      1          8           0        2.323941   -1.018468    0.415990
      2          6           0        1.322571   -0.443232    0.057756
      3          6           0        1.361099    0.943530   -0.573567
      4          6           0        0.030691    1.719370   -0.484702
      5          6           0       -0.738607    1.378376    0.801530
      6          6           0       -1.137436   -0.099940    0.862251
      7          6           0       -1.978918   -0.594951   -0.331605
      8          8           0       -0.816790   -1.198068   -0.945389
      9          6           0       -0.054370   -1.055377    0.277331
     10          1           0        2.175328    1.480814   -0.075796
     11          1           0        1.671372    0.825366   -1.618677
     12          1           0        0.231922    2.794370   -0.524687
     13          1           0       -0.589600    1.489679   -1.356361
     14          1           0       -0.115588    1.619400    1.673225
     15          1           0       -1.638873    1.999190    0.882525
     16          1           0       -1.514161   -0.368939    1.850750
     17          1           0       -2.733984   -1.349485   -0.076178
     18          1           0       -2.437213    0.167380   -0.971975
     19          1           0        0.063413   -2.012142    0.798410
 ---------------------------------------------------------------------

 SCF Done:  E(RB3LYP) =  -423.198420299     A.U. after    1 cycles

 The electronic state is 1-A.
 Alpha  occ. eigenvalues --  -19.14606 -19.13114 -10.26609 -10.23849 -10.23822
 Alpha  occ. eigenvalues --  -10.20588 -10.19672 -10.19326 -10.19163  -1.05255
 Alpha  occ. eigenvalues --   -1.03679  -0.82386  -0.75846  -0.72311  -0.68763
 Alpha  occ. eigenvalues --   -0.61532  -0.58392  -0.53080  -0.49427  -0.48615
 Alpha  occ. eigenvalues --   -0.47051  -0.44914  -0.43881  -0.42607  -0.40926
 Alpha  occ. eigenvalues --   -0.40129  -0.37592  -0.37021  -0.34646  -0.33974
 Alpha  occ. eigenvalues --   -0.32276  -0.30757  -0.26984  -0.23483
 Alpha virt. eigenvalues --   -0.02986   0.07709   0.09564   0.10684   0.11715
 Alpha virt. eigenvalues --    0.13084   0.14368   0.14843   0.15017   0.16537
 Alpha virt. eigenvalues --    0.17392   0.18202   0.18531   0.20998   0.21349

 Mulliken charges:
               1
     1  O   -0.312645
     2  C    0.383819
     3  C   -0.295919
     4  C   -0.217850
     5  C   -0.227795
     6  C   -0.060419
     7  C   -0.082178
     8  O   -0.295749
     9  C    0.029604
    10  H    0.129173
    11  H    0.137870
    12  H    0.102453
    13  H    0.119142
    14  H    0.105842
    15  H    0.102843
    16  H    0.084205
    17  H    0.104961
    18  H    0.106388
    19  H    0.086255
 Sum of Mulliken charges =   0.00000

 Dipole moment (field-independent basis, Debye):
    X=             -2.5977    Y=              2.3103    Z=              0.6417  Tot=              3.5351
 Quadrupole moment (field-independent basis, Debye-Ang):
   XX=            -56.7379   YY=            -54.0137   ZZ=            -53.2245
   XY=              3.8074   XZ=             -2.9721   YZ=             -1.6048

  Exact polarizability:  83.834  -0.671  74.996   0.944  -3.687  64.039
 Approx polarizability: 119.724  -6.780 105.617   6.177  -4.513 100.714

                      1                      2                      3
                      A                      A                      A
 Frequencies --     44.0837               128.8338               216.9328
 Red. masses --      3.3453                 2.8675                 5.1855
 Frc consts  --      0.0038                 0.0280                 0.1438
 IR Inten    --      3.9703                 1.8041                 4.7751

                      4                      5                      6
                      A                      A                      A
 Frequencies --    259.1463               349.3342               421.5050
 Red. masses --      2.0218                 1.9737                 6.1763
 Frc consts  --      0.0800                 0.1419                 0.6465
 IR Inten    --      0.1335                 0.1457                 1.6529

                      7                      8                      9
                      A                      A                      A
 Frequencies --    449.5092               481.8983               559.8894
 Red. masses --      3.5262                 3.4496                 3.2254
 Frc consts  --      0.4198                 0.4720                 0.5957
 IR Inten    --     12.7414                 0.5641                 4.9444

                     10                     11                     12
                      A                      A                      A
 Frequencies --    599.3410               743.1497               795.8393
 Red. masses --      2.5189                 2.8660                 2.4313
 Frc consts  --      0.5331                 0.9326                 0.9073
 IR Inten    --      1.2497                 7.4798                 0.9750

                     13                     14                     15
                      A                      A                      A
 Frequencies --    834.8669               859.0580               885.0771
 Red. masses --      2.4135                 2.2727                 1.9755
 Frc consts  --      0.9911                 0.9882                 0.9118
 IR Inten    --     14.9159                 1.2989                12.4011

                     16                     17                     18
                      A                      A                      A
 Frequencies --    902.9677               950.5945               997.3302
 Red. masses --      2.1981                 2.1614                 3.0712
 Frc consts  --      1.0559                 1.1507                 1.7998
 IR Inten    --      1.5415                 6.5865                 8.5359

                     19                     20                     21
                      A                      A                      A
 Frequencies --   1015.2522              1025.3666              1046.1777
 Red. masses --      2.5808                 6.2557                 1.9989
 Frc consts  --      1.5673                 3.8751                 1.2890
 IR Inten    --      6.3794                79.1579                 3.3029

                     22                     23                     24
                      A                      A                      A
 Frequencies --   1096.0070              1110.5722              1150.2622
 Red. masses --      1.7881                 1.4314                 1.6740
 Frc consts  --      1.2656                 1.0401                 1.3050
 IR Inten    --      0.9919                 1.6779                 8.7261

                     25                     26                     27
                      A                      A                      A
 Frequencies --   1166.8463              1188.6425              1236.0067
 Red. masses --      1.2157                 1.6405                 1.4449
 Frc consts  --      0.9752                 1.3656                 1.3006
 IR Inten    --      0.5228                 6.4069                 3.6495

                     28                     29                     30
                      A                      A                      A
 Frequencies --   1254.7059              1272.0252              1294.6339
 Red. masses --      1.8346                 1.4110                 1.3525
 Frc consts  --      1.7017                 1.3452                 1.3356
 IR Inten    --     14.7071                10.0628                 0.8997

                     31                     32                     33
                      A                      A                      A
 Frequencies --   1321.2830              1336.8993              1346.2198
 Red. masses --      1.4079                 1.7440                 1.3342
 Frc consts  --      1.4481                 1.8366                 1.4246
 IR Inten    --      3.5773                 4.4322                 2.9710

                     34                     35                     36
                      A                      A                      A
 Frequencies --   1359.6170              1374.9086              1390.5475
 Red. masses --      1.4570                 1.4153                 1.4421
 Frc consts  --      1.5868                 1.5764                 1.6429
 IR Inten    --      0.9592                 5.0895                 0.6367

                     37                     38                     39
                      A                      A                      A
 Frequencies --   1445.9660              1485.5194              1499.5636
 Red. masses --      1.0762                 1.0872                 1.0909
 Frc consts  --      1.3258                 1.4135                 1.4454
 IR Inten    --      4.5419                 2.9790                 5.0780

                     40                     41                     42
                      A                      A                      A
 Frequencies --   1526.0988              1809.5477              3014.2105
 Red. masses --      1.0983                11.8647                 1.0573
 Frc consts  --      1.5070                22.8900                 5.6597
 IR Inten    --      0.7714               162.4840                72.4613

                     43                     44                     45
                      A                      A                      A
 Frequencies --   3018.3630              3040.7992              3047.4964
 Red. masses --      1.0621                 1.0615                 1.0864
 Frc consts  --      5.7011                 5.7829                 5.9447
 IR Inten    --     23.0001                10.4654                41.2930

                     46                     47                     48
                      A                      A                      A
 Frequencies --   3050.6018              3061.0131              3064.4884
 Red. masses --      1.0725                 1.1006                 1.0954
 Frc consts  --      5.8805                 6.0761                 6.0609
 IR Inten    --     11.8959                 6.5639                62.2631

                     49                     50                     51
                      A                      A                      A
 Frequencies --   3075.9985              3092.8227              3096.9930
 Red. masses --      1.1021                 1.0888                 1.1012
 Frc consts  --      6.1436                 6.1362                 6.2228
 IR Inten    --      1.6307                41.4297                35.1832

 - Thermochemistry -
 -------------------
 Temperature   298.150 Kelvin.  Pressure   1.00000 Atm.
 Atom     1 has atomic number  8 and mass  15.99491

 Molecular mass:   126.06808 amu.
 Principal axes and moments of inertia in atomic units:
                           1         2         3
     Eigenvalues --   749.484301042.974491392.44953
           X            0.99842   0.05124  -0.02287
           Y           -0.05190   0.99823  -0.02910
           Z            0.02134   0.03024   0.99931
 This molecule is an asymmetric top.
 Rotational symmetry number  1.
 Warning -- assumption of classical behavior for rotation
           may cause significant error
 Rotational temperatures (Kelvin)      0.11556     0.08304     0.06220
 Rotational constants (GHZ):           2.40798     1.73038     1.29609
 Zero-point vibrational energy     423447.0 (Joules/Mol)
                                  101.20626 (Kcal/Mol)
 Warning -- explicit consideration of  10 degrees of freedom as
           vibrations may cause significant error
 Vibrational temperatures:     63.43   185.36   312.12   372.85   502.61
          (Kelvin)            606.45   646.74   693.34   805.55   862.32
                             1069.23  1145.03  1201.19  1235.99  1273.43
                             1299.17  1367.69  1434.93  1460.72  1475.27
                             1505.21  1576.91  1597.86  1654.97  1678.83
                             1710.19  1778.34  1805.24  1830.16  1862.69
                             1901.03  1923.50  1936.91  1956.18  1978.18
                             2000.69  2080.42  2137.33  2157.53  2195.71
                             2603.53  4336.77  4342.75  4375.03  4384.66
                             4389.13  4404.11  4409.11  4425.67  4449.88
                             4455.88

 Zero-point correction=                           0.161282 (Hartree/Particle)
 Thermal correction to Energy=                    0.168982
 Thermal correction to Enthalpy=                  0.169926
 Thermal correction to Gibbs Free Energy=         0.128477
 Sum of electronic and zero-point Energies=           -423.037138
 Sum of electronic and thermal Energies=              -423.029438
 Sum of electronic and thermal Enthalpies=            -423.028494
 Sum of electronic and thermal Free Energies=         -423.069943

                     E (Thermal)             CV                S
                      KCal/Mol        Cal/Mol-Kelvin    Cal/Mol-Kelvin
 Total                  106.038             29.645             87.236
 Electronic               0.000              0.000              0.000
 Translational            0.889              2.981             40.409
 Rotational               0.889              2.981             28.478
 Vibrational            104.260             23.684             18.350
 Vibration     1          0.595              1.980              5.067
 Vibration     2          0.611              1.924              2.963
 Vibration     3          0.646              1.815              1.985
 Vibration     4          0.668              1.747              1.668
 Vibration     5          0.727              1.577              1.169
 Vibration     6          0.784              1.423              0.887
 Vibration     7          0.808              1.362              0.797
 Vibration     8          0.838              1.290              0.705
 Vibration     9          0.916              1.118              0.524
 Vibration    10          0.957              1.033              0.451

 Normal termination of Gaussian 09 at Mon Jan 27 14:34:38 2020.
