 Gaussian 09, Revision D.01,
 Gaussian 09:  ES64L-G09RevD.01 24-Apr-2013

 -----------------------------
 # b3lyp 6-31G(2df,p) opt Freq
 -----------------------------

 -----
 titel
 -----
 Symbolic Z-matrix:
 Charge =  0 Multiplicity = 1

 SCF Done:  E(RB3LYP) =  -423.124971753     A.U. after   12 cycles
 Optimization completed.
    -- Stationary point found.
 Normal termination of Gaussian 09 at Mon Jan 27 17:27:19 2020.

 ----------------------------------------------------------------------
 #N Geom=AllCheck Guess=TCheck SCRF=Check GenChk RB3LYP/6-31G(2df,p) Fr
 eq
 ----------------------------------------------------------------------

 Structure from the checkpoint file:  "/scratch/puck/g09_5130222b-2679-4912-9024-bf8988d80cee/Gau-32775.chk"
 -----
 titel
 -----
 Charge =  0 Multiplicity = 1

                         Standard orientation:
 ---------------------------------------------------------------------
 Center     Atomic      Atomic             Coordinates (Angstroms)
 Number     Number       Type             X           Y           Z
 ---------------------------------------------------------------------
      1          6           0        2.676430   -0.919490   -0.031429
      2          6           0        1.478632   -0.032213   -0.098808
      3          6           0        1.417266    1.446011    0.126385
      4          6           0        0.501033    0.522331    0.914517
      5          6           0       -0.573301   -0.007183   -0.017917
      6          6           0       -1.805742    0.779753   -0.493245
      7          8           0       -2.692715   -0.168094    0.139706
      8          6           0       -1.598586   -1.053967    0.454401
      9          8           0        0.411119   -0.420132   -0.988607
     10          1           0        3.204163   -0.923538   -0.991837
     11          1           0        3.372259   -0.565206    0.734379
     12          1           0        2.390263   -1.949376    0.203119
     13          1           0        2.231750    1.869775    0.706179
     14          1           0        1.015428    2.095497   -0.646828
     15          1           0        0.485289    0.472162    1.995255
     16          1           0       -1.928424    1.795379   -0.099379
     17          1           0       -1.916582    0.788961   -1.585126
     18          1           0       -1.577916   -1.328542    1.515970
     19          1           0       -1.597848   -1.960747   -0.163948
 ---------------------------------------------------------------------

 SCF Done:  E(RB3LYP) =  -423.124971753     A.U. after    1 cycles

 The electronic state is 1-A.
 Alpha  occ. eigenvalues --  -19.14188 -19.13184 -10.24937 -10.24641 -10.22681
 Alpha  occ. eigenvalues --  -10.22531 -10.19834 -10.19404 -10.18946  -1.06226
 Alpha  occ. eigenvalues --   -1.03117  -0.83892  -0.75342  -0.71263  -0.69256
 Alpha  occ. eigenvalues --   -0.62246  -0.56235  -0.53006  -0.51173  -0.50933
 Alpha  occ. eigenvalues --   -0.46560  -0.45567  -0.43380  -0.42410  -0.40465
 Alpha  occ. eigenvalues --   -0.40375  -0.39062  -0.36537  -0.34327  -0.33067
 Alpha  occ. eigenvalues --   -0.30270  -0.27049  -0.24930  -0.23804
 Alpha virt. eigenvalues --    0.07046   0.08399   0.09746   0.10772   0.11805
 Alpha virt. eigenvalues --    0.12511   0.13076   0.14743   0.16291   0.16666
 Alpha virt. eigenvalues --    0.17873   0.18641   0.18836   0.19752   0.20992

 Mulliken charges:
               1
     1  C   -0.487365
     2  C    0.463435
     3  C   -0.342641
     4  C   -0.260753
     5  C    0.374938
     6  C   -0.136091
     7  O   -0.275698
     8  C   -0.135823
     9  O   -0.351194
    10  H    0.135305
    11  H    0.125511
    12  H    0.129043
    13  H    0.115423
    14  H    0.115273
    15  H    0.103485
    16  H    0.105345
    17  H    0.110316
    18  H    0.102583
    19  H    0.108906
 Sum of Mulliken charges =   0.00000

 Dipole moment (field-independent basis, Debye):
    X=              2.2923    Y=              0.4666    Z=              1.2004  Tot=              2.6293
 Quadrupole moment (field-independent basis, Debye-Ang):
   XX=            -57.0044   YY=            -50.9983   ZZ=            -53.0931
   XY=             -0.3679   XZ=              2.0643   YZ=             -1.4840

  Exact polarizability:  85.624   0.358  75.497   0.253  -1.837  65.335
 Approx polarizability: 111.239   0.943 108.828  -2.667  -0.201 102.740

                      1                      2                      3
                      A                      A                      A
 Frequencies --     84.0996               110.3399               198.1870
 Red. masses --      3.9499                 3.7297                 1.0692
 Frc consts  --      0.0165                 0.0268                 0.0247
 IR Inten    --      4.2286                 0.1452                 0.1443

                      4                      5                      6
                      A                      A                      A
 Frequencies --    202.4059               295.7108               322.7235
 Red. masses --      2.1601                 2.2603                 2.7199
 Frc consts  --      0.0521                 0.1165                 0.1669
 IR Inten    --      0.9038                 1.9006                 1.3810

                      7                      8                      9
                      A                      A                      A
 Frequencies --    375.3325               446.9159               471.1148
 Red. masses --      2.3192                 4.2259                 2.7969
 Frc consts  --      0.1925                 0.4973                 0.3657
 IR Inten    --      1.9359                 1.6583                 2.3458

                     10                     11                     12
                      A                      A                      A
 Frequencies --    519.0819               664.6346               813.2319
 Red. masses --      3.2473                 2.9596                 3.5115
 Frc consts  --      0.5155                 0.7703                 1.3683
 IR Inten    --      3.6679                 6.4364                 6.0626

                     13                     14                     15
                      A                      A                      A
 Frequencies --    818.3608               837.0638               885.1425
 Red. masses --      2.7276                 2.1620                 2.7492
 Frc consts  --      1.0763                 0.8925                 1.2691
 IR Inten    --      4.3177                 3.3342                53.2103

                     16                     17                     18
                      A                      A                      A
 Frequencies --    920.9595               933.8476               970.0662
 Red. masses --      1.6347                 1.3956                 1.5995
 Frc consts  --      0.8169                 0.7171                 0.8868
 IR Inten    --      8.8884                 0.5792                 5.8376

                     19                     20                     21
                      A                      A                      A
 Frequencies --    974.5735               989.8932               993.9136
 Red. masses --      1.9503                 3.1508                 1.7263
 Frc consts  --      1.0914                 1.8191                 1.0048
 IR Inten    --     15.7318                 3.6556                10.3666

                     22                     23                     24
                      A                      A                      A
 Frequencies --   1026.4463              1056.9204              1072.6317
 Red. masses --     10.3248                 1.9751                 2.0506
 Frc consts  --      6.4092                 1.3000                 1.3900
 IR Inten    --     77.9296                 4.7889                10.0686

                     25                     26                     27
                      A                      A                      A
 Frequencies --   1112.0090              1129.3787              1147.5336
 Red. masses --      1.8441                 2.6637                 1.0776
 Frc consts  --      1.3435                 2.0018                 0.8361
 IR Inten    --     21.6903                36.2333                 0.1002

                     28                     29                     30
                      A                      A                      A
 Frequencies --   1153.5169              1160.3117              1193.2134
 Red. masses --      2.2764                 1.7414                 1.5809
 Frc consts  --      1.7846                 1.3813                 1.3261
 IR Inten    --     24.6231                64.7261                 5.4541

                     31                     32                     33
                      A                      A                      A
 Frequencies --   1257.8672              1295.1556              1322.0228
 Red. masses --      2.7323                 1.3440                 2.0633
 Frc consts  --      2.5471                 1.3283                 2.1247
 IR Inten    --     13.3957                 2.5586                10.7163

                     34                     35                     36
                      A                      A                      A
 Frequencies --   1382.4168              1388.2099              1428.6087
 Red. masses --      1.8023                 1.7128                 1.5699
 Frc consts  --      2.0294                 1.9447                 1.8877
 IR Inten    --     13.8101                 3.8129                 6.2798

                     37                     38                     39
                      A                      A                      A
 Frequencies --   1474.1312              1490.0492              1495.8602
 Red. masses --      1.0506                 1.3183                 1.0783
 Frc consts  --      1.3451                 1.7245                 1.4216
 IR Inten    --      2.8055                 7.7311                 0.2202

                     40                     41                     42
                      A                      A                      A
 Frequencies --   1503.0005              1522.7849              3008.0334
 Red. masses --      1.3620                 1.1162                 1.0524
 Frc consts  --      1.8127                 1.5249                 5.6106
 IR Inten    --      7.1470                 1.5252                89.3566

                     43                     44                     45
                      A                      A                      A
 Frequencies --   3020.1154              3034.3275              3063.8084
 Red. masses --      1.0579                 1.0358                 1.1109
 Frc consts  --      5.6853                 5.6189                 6.1438
 IR Inten    --      3.8534                24.3061                31.2714

                     46                     47                     48
                      A                      A                      A
 Frequencies --   3067.3401              3098.3803              3113.0932
 Red. masses --      1.1102                 1.1002                 1.0561
 Frc consts  --      6.1544                 6.2231                 6.0306
 IR Inten    --     32.2762                15.7867                 8.3371

                     49                     50                     51
                      A                      A                      A
 Frequencies --   3118.1109              3197.0960              3207.0817
 Red. masses --      1.0993                 1.0990                 1.1110
 Frc consts  --      6.2974                 6.6186                 6.7325
 IR Inten    --     18.3222                 4.1697                11.5517

 - Thermochemistry -
 -------------------
 Temperature   298.150 Kelvin.  Pressure   1.00000 Atm.
 Atom     1 has atomic number  6 and mass  12.00000

 Molecular mass:   126.06808 amu.
 Principal axes and moments of inertia in atomic units:
                           1         2         3
     Eigenvalues --   457.704181502.955811653.90452
           X            0.99992  -0.00875   0.00881
           Y            0.00918   0.99871  -0.04998
           Z           -0.00836   0.05005   0.99871
 This molecule is an asymmetric top.
 Rotational symmetry number  1.
 Warning -- assumption of classical behavior for rotation
           may cause significant error
 Rotational temperatures (Kelvin)      0.18924     0.05763     0.05237
 Rotational constants (GHZ):           3.94303     1.20079     1.09120
 Zero-point vibrational energy     414907.1 (Joules/Mol)
                                   99.16518 (Kcal/Mol)
 Warning -- explicit consideration of  10 degrees of freedom as
           vibrations may cause significant error
 Vibrational temperatures:    121.00   158.75   285.15   291.22   425.46
          (Kelvin)            464.33   540.02   643.01   677.83   746.84
                              956.26  1170.06  1177.44  1204.35  1273.52
                             1325.05  1343.60  1395.71  1402.19  1424.23
                             1430.02  1476.83  1520.67  1543.28  1599.93
                             1624.92  1651.04  1659.65  1669.43  1716.77
                             1809.79  1863.44  1902.09  1988.99  1997.32
                             2055.45  2120.94  2143.85  2152.21  2162.48
                             2190.95  4327.88  4345.27  4365.72  4408.13
                             4413.21  4457.87  4479.04  4486.26  4599.90
                             4614.27

 Zero-point correction=                           0.158030 (Hartree/Particle)
 Thermal correction to Energy=                    0.166292
 Thermal correction to Enthalpy=                  0.167236
 Thermal correction to Gibbs Free Energy=         0.125116
 Sum of electronic and zero-point Energies=           -422.966942
 Sum of electronic and thermal Energies=              -422.958680
 Sum of electronic and thermal Enthalpies=            -422.957736
 Sum of electronic and thermal Free Energies=         -422.999856

                     E (Thermal)             CV                S
                      KCal/Mol        Cal/Mol-Kelvin    Cal/Mol-Kelvin
 Total                  104.350             31.619             88.649
 Electronic               0.000              0.000              0.000
 Translational            0.889              2.981             40.409
 Rotational               0.889              2.981             28.522
 Vibrational            102.572             25.657             19.719
 Vibration     1          0.601              1.960              3.793
 Vibration     2          0.606              1.941              3.263
 Vibration     3          0.637              1.842              2.150
 Vibration     4          0.639              1.836              2.111
 Vibration     5          0.690              1.682              1.441
 Vibration     6          0.708              1.630              1.296
 Vibration     7          0.746              1.523              1.058
 Vibration     8          0.806              1.368              0.805
 Vibration     9          0.828              1.314              0.734
 Vibration    10          0.874              1.208              0.612

 Optimization completed.
    -- Stationary point found.
 Normal termination of Gaussian 09 at Mon Jan 27 18:12:49 2020.
