 Gaussian 09, Revision D.01,
 Gaussian 09:  ES64L-G09RevD.01 24-Apr-2013

 -----------------------------
 # b3lyp 6-31G(2df,p) opt Freq
 -----------------------------

 -----
 titel
 -----
 Symbolic Z-matrix:
 Charge =  0 Multiplicity = 1

 SCF Done:  E(RB3LYP) =  -423.231854932     A.U. after   14 cycles
 Optimization completed.
    -- Stationary point found.
 Normal termination of Gaussian 09 at Tue Jan 28 12:09:21 2020.

 ----------------------------------------------------------------------
 #N Geom=AllCheck Guess=TCheck SCRF=Check GenChk RB3LYP/6-31G(2df,p) Fr
 eq
 ----------------------------------------------------------------------

 Structure from the checkpoint file:  "/scratch/puck/g09_704997a9-a797-45f0-87c2-7b309e2f21dd/Gau-128745.chk"
 -----
 titel
 -----
 Charge =  0 Multiplicity = 1

                         Standard orientation:
 ---------------------------------------------------------------------
 Center     Atomic      Atomic             Coordinates (Angstroms)
 Number     Number       Type             X           Y           Z
 ---------------------------------------------------------------------
      1          6           0        1.237773    2.040734   -0.165139
      2          6           0        0.117617    1.055933   -0.073253
      3          6           0        0.193430   -0.287868   -0.159865
      4          6           0        1.399312   -1.168956   -0.351500
      5          8           0        2.541582   -0.780066    0.408421
      6          6           0       -1.156425   -0.884455   -0.023410
      7          8           0       -1.420976   -2.067292   -0.030452
      8          6           0       -2.161961    0.262311    0.136568
      9          6           0       -1.304883    1.538233    0.130484
     10          1           0        1.205398    2.741021    0.679042
     11          1           0        2.208943    1.546593   -0.177958
     12          1           0        1.129670    2.651425   -1.071373
     13          1           0        1.099152   -2.202973   -0.134729
     14          1           0        1.728626   -1.144777   -1.396529
     15          1           0        2.301609   -0.841457    1.338780
     16          1           0       -2.882692    0.226662   -0.685829
     17          1           0       -2.731433    0.123880    1.059899
     18          1           0       -1.588141    2.238390   -0.665498
     19          1           0       -1.385160    2.104516    1.067130
 ---------------------------------------------------------------------

 SCF Done:  E(RB3LYP) =  -423.231854932     A.U. after    1 cycles

 The electronic state is 1-A.
 Alpha  occ. eigenvalues --  -19.14063 -19.11610 -10.25639 -10.23049 -10.21646
 Alpha  occ. eigenvalues --  -10.19995 -10.18999 -10.18974 -10.18606  -1.02670
 Alpha  occ. eigenvalues --   -1.01856  -0.85707  -0.75667  -0.73880  -0.66018
 Alpha  occ. eigenvalues --   -0.65791  -0.55897  -0.52574  -0.48509  -0.47909
 Alpha  occ. eigenvalues --   -0.46004  -0.43600  -0.42350  -0.42167  -0.41343
 Alpha  occ. eigenvalues --   -0.38774  -0.38613  -0.38324  -0.35238  -0.34734
 Alpha  occ. eigenvalues --   -0.33282  -0.27987  -0.25356  -0.23444
 Alpha virt. eigenvalues --   -0.04004   0.04450   0.08292   0.09423   0.11956
 Alpha virt. eigenvalues --    0.13618   0.14317   0.15606   0.16057   0.16755
 Alpha virt. eigenvalues --    0.18271   0.19189   0.20737   0.21692   0.22335

 Mulliken charges:
               1
     1  C   -0.502679
     2  C    0.221623
     3  C    0.065262
     4  C   -0.190414
     5  O   -0.406343
     6  C    0.339230
     7  O   -0.342015
     8  C   -0.336855
     9  C   -0.304935
    10  H    0.129578
    11  H    0.161100
    12  H    0.134865
    13  H    0.124612
    14  H    0.123730
    15  H    0.282988
    16  H    0.133693
    17  H    0.131818
    18  H    0.117704
    19  H    0.117038
 Sum of Mulliken charges =   0.00000

 Dipole moment (field-independent basis, Debye):
    X=             -0.1384    Y=              3.3498    Z=              0.6441  Tot=              3.4139
 Quadrupole moment (field-independent basis, Debye-Ang):
   XX=            -57.8716   YY=            -57.0715   ZZ=            -48.9251
   XY=             -4.3764   XZ=              1.1105   YZ=             -0.7893

  Exact polarizability:  85.131   2.879  98.492  -1.694   1.235  57.665
 Approx polarizability: 113.392   9.922 163.411  -1.692   2.225  90.443

                      1                      2                      3
                      A                      A                      A
 Frequencies --     59.7753                90.8670               129.9175
 Red. masses --      2.7166                 2.7248                 2.0194
 Frc consts  --      0.0057                 0.0133                 0.0201
 IR Inten    --      2.7575                 4.3212                 0.1687

                      4                      5                      6
                      A                      A                      A
 Frequencies --    155.1375               200.1034               245.1381
 Red. masses --      1.1486                 3.4562                 2.4961
 Frc consts  --      0.0163                 0.0815                 0.0884
 IR Inten    --      0.5523                 1.7852                 7.9504

                      7                      8                      9
                      A                      A                      A
 Frequencies --    302.8882               338.8698               379.2980
 Red. masses --      3.4509                 1.2425                 3.3823
 Frc consts  --      0.1865                 0.0841                 0.2867
 IR Inten    --      3.6355               100.1031                13.6603

                     10                     11                     12
                      A                      A                      A
 Frequencies --    476.5401               521.7660               573.5187
 Red. masses --      2.8012                 4.1671                 3.2463
 Frc consts  --      0.3748                 0.6684                 0.6291
 IR Inten    --      3.9396                 2.6524                10.1442

                     13                     14                     15
                      A                      A                      A
 Frequencies --    617.7016               649.8273               731.9286
 Red. masses --      2.8767                 5.0562                 4.3697
 Frc consts  --      0.6467                 1.2580                 1.3792
 IR Inten    --      3.0364                 9.5021                 9.6461

                     16                     17                     18
                      A                      A                      A
 Frequencies --    827.1939               897.4708               955.5440
 Red. masses --      1.5142                 2.0788                 1.7247
 Frc consts  --      0.6105                 0.9865                 0.9278
 IR Inten    --      2.6451                 7.5927                 0.7393

                     19                     20                     21
                      A                      A                      A
 Frequencies --    966.7277              1000.9233              1014.8177
 Red. masses --      2.1455                 2.7680                 2.1520
 Frc consts  --      1.1814                 1.6339                 1.3058
 IR Inten    --      8.4526                91.9441                 1.8472

                     22                     23                     24
                      A                      A                      A
 Frequencies --   1063.7629              1081.4720              1096.1077
 Red. masses --      1.6884                 4.2266                 3.0210
 Frc consts  --      1.1257                 2.9125                 2.1385
 IR Inten    --      1.0286                13.5024                 3.7498

                     25                     26                     27
                      A                      A                      A
 Frequencies --   1159.9920              1188.9278              1210.0750
 Red. masses --      1.3157                 2.6498                 1.1712
 Frc consts  --      1.0431                 2.2068                 1.0104
 IR Inten    --      0.2983                23.7441                 9.2261

                     28                     29                     30
                      A                      A                      A
 Frequencies --   1234.1608              1268.7042              1301.5138
 Red. masses --      1.1290                 1.6392                 2.5702
 Frc consts  --      1.0132                 1.5545                 2.5652
 IR Inten    --      0.2560                 0.4339                78.3644

                     31                     32                     33
                      A                      A                      A
 Frequencies --   1335.0169              1392.9484              1406.5303
 Red. masses --      1.9159                 1.2947                 1.3214
 Frc consts  --      2.0118                 1.4801                 1.5402
 IR Inten    --      7.7646                 4.2168                12.2219

                     34                     35                     36
                      A                      A                      A
 Frequencies --   1417.1662              1452.9156              1472.9215
 Red. masses --      1.4280                 1.0754                 1.0614
 Frc consts  --      1.6898                 1.3376                 1.3567
 IR Inten    --     65.7528                 2.5732                 5.1495

                     37                     38                     39
                      A                      A                      A
 Frequencies --   1482.5028              1496.9708              1505.1067
 Red. masses --      1.1008                 1.0617                 1.0697
 Frc consts  --      1.4254                 1.4017                 1.4277
 IR Inten    --      8.3795                 5.4817                 4.0063

                     40                     41                     42
                      A                      A                      A
 Frequencies --   1697.1458              1798.2994              3018.8889
 Red. masses --      7.6711                12.5365                 1.0445
 Frc consts  --     13.0181                23.8865                 5.6088
 IR Inten    --     86.8520               255.0770                 8.0763

                     43                     44                     45
                      A                      A                      A
 Frequencies --   3020.5223              3026.1751              3049.3074
 Red. masses --      1.0607                 1.0570                 1.1020
 Frc consts  --      5.7018                 5.7030                 6.0370
 IR Inten    --     29.8667                44.2693                 9.0173

                     46                     47                     48
                      A                      A                      A
 Frequencies --   3064.2889              3064.9894              3066.1039
 Red. masses --      1.1010                 1.0964                 1.0618
 Frc consts  --      6.0912                 6.0683                 5.8811
 IR Inten    --     16.7665                13.1119                12.0119

                     49                     50                     51
                      A                      A                      A
 Frequencies --   3106.0731              3155.3812              3814.3318
 Red. masses --      1.1028                 1.0971                 1.0662
 Frc consts  --      6.2683                 6.4357                 9.1398
 IR Inten    --      9.1564                 1.6088                18.2958

 - Thermochemistry -
 -------------------
 Temperature   298.150 Kelvin.  Pressure   1.00000 Atm.
 Atom     1 has atomic number  6 and mass  12.00000

 Molecular mass:   126.06808 amu.
 Principal axes and moments of inertia in atomic units:
                           1         2         3
     Eigenvalues --   872.472661151.404781924.36206
           X            0.99868  -0.05103  -0.00541
           Y            0.05104   0.99870   0.00123
           Z            0.00534  -0.00150   0.99998
 This molecule is an asymmetric top.
 Rotational symmetry number  1.
 Warning -- assumption of classical behavior for rotation
           may cause significant error
 Rotational temperatures (Kelvin)      0.09927     0.07522     0.04501
 Rotational constants (GHZ):           2.06854     1.56743     0.93784
 Zero-point vibrational energy     416206.3 (Joules/Mol)
                                   99.47569 (Kcal/Mol)
 Warning -- explicit consideration of  13 degrees of freedom as
           vibrations may cause significant error
 Vibrational temperatures:     86.00   130.74   186.92   223.21   287.90
          (Kelvin)            352.70   435.79   487.56   545.72   685.63
                              750.70   825.16   888.73   934.96  1053.08
                             1190.15  1291.26  1374.81  1390.90  1440.10
                             1460.09  1530.52  1556.00  1577.05  1668.97
                             1710.60  1741.03  1775.68  1825.38  1872.59
                             1920.79  2004.14  2023.68  2038.98  2090.42
                             2119.20  2132.99  2153.80  2165.51  2441.81
                             2587.35  4343.50  4345.85  4353.99  4387.27
                             4408.82  4409.83  4411.43  4468.94  4539.88
                             5487.97

 Zero-point correction=                           0.158525 (Hartree/Particle)
 Thermal correction to Energy=                    0.167940
 Thermal correction to Enthalpy=                  0.168884
 Thermal correction to Gibbs Free Energy=         0.123810
 Sum of electronic and zero-point Energies=           -423.073330
 Sum of electronic and thermal Energies=              -423.063915
 Sum of electronic and thermal Enthalpies=            -423.062971
 Sum of electronic and thermal Free Energies=         -423.108045

                     E (Thermal)             CV                S
                      KCal/Mol        Cal/Mol-Kelvin    Cal/Mol-Kelvin
 Total                  105.384             34.015             94.866
 Electronic               0.000              0.000              0.000
 Translational            0.889              2.981             40.409
 Rotational               0.889              2.981             29.049
 Vibrational            103.606             28.053             25.409
 Vibration     1          0.597              1.973              4.465
 Vibration     2          0.602              1.956              3.641
 Vibration     3          0.612              1.923              2.947
 Vibration     4          0.620              1.897              2.608
 Vibration     5          0.638              1.840              2.132
 Vibration     6          0.660              1.771              1.765
 Vibration     7          0.694              1.668              1.401
 Vibration     8          0.719              1.598              1.217
 Vibration     9          0.749              1.514              1.042
 Vibration    10          0.833              1.302              0.719
 Vibration    11          0.877              1.202              0.606
 Vibration    12          0.930              1.089              0.498
 Vibration    13          0.977              0.994              0.420

 Normal termination of Gaussian 09 at Tue Jan 28 12:59:48 2020.
