 Gaussian 09, Revision D.01,
 Gaussian 09:  ES64L-G09RevD.01 24-Apr-2013

 -----------------------------
 # b3lyp 6-31G(2df,p) opt Freq
 -----------------------------

 -----
 titel
 -----
 Symbolic Z-matrix:
 Charge =  0 Multiplicity = 1

 SCF Done:  E(RB3LYP) =  -423.134045908     A.U. after   14 cycles
 Optimization completed.
    -- Stationary point found.
 Normal termination of Gaussian 09 at Tue Jan 28 08:16:35 2020.

 ----------------------------------------------------------------------
 #N Geom=AllCheck Guess=TCheck SCRF=Check GenChk RB3LYP/6-31G(2df,p) Fr
 eq
 ----------------------------------------------------------------------

 Structure from the checkpoint file:  "/scratch/puck/g09_50733dd7-c9a7-462e-a356-6b60029eb929/Gau-79587.chk"
 -----
 titel
 -----
 Charge =  0 Multiplicity = 1

                         Standard orientation:
 ---------------------------------------------------------------------
 Center     Atomic      Atomic             Coordinates (Angstroms)
 Number     Number       Type             X           Y           Z
 ---------------------------------------------------------------------
      1          8           0        3.732523   -0.591463    0.016216
      2          6           0        2.374648   -0.860227   -0.239103
      3          6           0        1.486997    0.208341    0.427863
      4          8           0        1.963171    1.508046    0.039064
      5          6           0        0.074944    0.012974    0.125946
      6          6           0       -1.080266   -0.156617   -0.180102
      7          6           0       -2.456783   -0.353719   -0.524471
      8          6           0       -3.495184    0.694968   -0.149925
      9          6           0       -3.484530   -0.620205    0.566608
     10          1           0        3.833189    0.359590   -0.124615
     11          1           0        2.150890   -0.878356   -1.319465
     12          1           0        2.142671   -1.849286    0.167673
     13          1           0        1.659745    0.164367    1.509720
     14          1           0        1.560591    1.713016   -0.812789
     15          1           0       -2.625931   -0.868907   -1.465515
     16          1           0       -3.139743    1.569028    0.382173
     17          1           0       -4.281220    0.888833   -0.870851
     18          1           0       -3.122087   -0.642881    1.587112
     19          1           0       -4.262620   -1.341159    0.343417
 ---------------------------------------------------------------------

 SCF Done:  E(RB3LYP) =  -423.134045908     A.U. after    1 cycles

 The electronic state is 1-A.
 Alpha  occ. eigenvalues --  -19.15064 -19.12680 -10.25401 -10.22566 -10.22084
 Alpha  occ. eigenvalues --  -10.20204 -10.20176 -10.18614 -10.17623  -1.03664
 Alpha  occ. eigenvalues --   -1.00459  -0.87473  -0.77753  -0.72329  -0.64614
 Alpha  occ. eigenvalues --   -0.62075  -0.61274  -0.54287  -0.51660  -0.50584
 Alpha  occ. eigenvalues --   -0.48871  -0.46974  -0.43623  -0.40541  -0.40364
 Alpha  occ. eigenvalues --   -0.37893  -0.36276  -0.34652  -0.33659  -0.32780
 Alpha  occ. eigenvalues --   -0.29749  -0.26906  -0.25169  -0.24622
 Alpha virt. eigenvalues --    0.02450   0.03931   0.08975   0.10207   0.11136
 Alpha virt. eigenvalues --    0.13012   0.13191   0.13578   0.14728   0.15417
 Alpha virt. eigenvalues --    0.16738   0.17824   0.21800   0.22135   0.23097

 Mulliken charges:
               1
     1  O   -0.419391
     2  C   -0.051871
     3  C   -0.070167
     4  O   -0.432201
     5  C    0.025188
     6  C    0.101537
     7  C   -0.162095
     8  C   -0.250948
     9  C   -0.249515
    10  H    0.286223
    11  H    0.081175
    12  H    0.115789
    13  H    0.120583
    14  H    0.286733
    15  H    0.112938
    16  H    0.130918
    17  H    0.121819
    18  H    0.130891
    19  H    0.122391
 Sum of Mulliken charges =   0.00000

 Dipole moment (field-independent basis, Debye):
    X=             -3.0660    Y=              0.3500    Z=             -1.1484  Tot=              3.2927
 Quadrupole moment (field-independent basis, Debye-Ang):
   XX=            -55.9133   YY=            -53.7782   ZZ=            -50.6673
   XY=              3.8004   XZ=             -0.7346   YZ=             -1.9036

  Exact polarizability: 122.834   3.503  66.834   4.039  -1.158  62.585
 Approx polarizability: 164.138   9.076  98.300  12.061  -1.093  95.039

                      1                      2                      3
                      A                      A                      A
 Frequencies --     26.0323                73.0673                82.1718
 Red. masses --      3.3157                 4.7126                 3.4422
 Frc consts  --      0.0013                 0.0148                 0.0137
 IR Inten    --      0.1453                 0.0293                 1.3622

                      4                      5                      6
                      A                      A                      A
 Frequencies --    152.0677               170.1340               225.7584
 Red. masses --      3.2419                 4.1028                 3.3830
 Frc consts  --      0.0442                 0.0700                 0.1016
 IR Inten    --      5.9123                 3.1239                 1.0220

                      7                      8                      9
                      A                      A                      A
 Frequencies --    299.9123               315.9181               418.3287
 Red. masses --      2.2494                 1.4931                 4.6017
 Frc consts  --      0.1192                 0.0878                 0.4745
 IR Inten    --      3.5536                52.0027                 2.7950

                     10                     11                     12
                      A                      A                      A
 Frequencies --    468.6365               505.9701               525.1402
 Red. masses --      4.5591                 3.1609                 1.3164
 Frc consts  --      0.5899                 0.4768                 0.2139
 IR Inten    --     11.1526                21.7288               100.1421

                     13                     14                     15
                      A                      A                      A
 Frequencies --    528.9601               573.0881               740.2662
 Red. masses --      2.5936                 5.2785                 2.2967
 Frc consts  --      0.4276                 1.0214                 0.7415
 IR Inten    --     58.7888                 4.0370                 8.9375

                     16                     17                     18
                      A                      A                      A
 Frequencies --    799.9941               823.1024               855.7968
 Red. masses --      1.1855                 1.5497                 2.7404
 Frc consts  --      0.4470                 0.6186                 1.1825
 IR Inten    --      3.3406                 6.2579                25.1664

                     19                     20                     21
                      A                      A                      A
 Frequencies --    893.8442               920.5747              1028.0375
 Red. masses --      2.8699                 3.1275                 1.9623
 Frc consts  --      1.3510                 1.5616                 1.2219
 IR Inten    --      0.6842                47.4788                43.4785

                     22                     23                     24
                      A                      A                      A
 Frequencies --   1061.3336              1063.7797              1081.4715
 Red. masses --      4.5844                 1.2718                 1.8478
 Frc consts  --      3.0425                 0.8480                 1.2733
 IR Inten    --     28.3317                 7.3274                 5.4069

                     25                     26                     27
                      A                      A                      A
 Frequencies --   1083.5404              1095.5910              1117.7834
 Red. masses --      1.2842                 4.3002                 1.1354
 Frc consts  --      0.8883                 3.0411                 0.8359
 IR Inten    --      4.6575               155.7026                 0.9266

                     28                     29                     30
                      A                      A                      A
 Frequencies --   1183.7173              1201.6029              1201.9414
 Red. masses --      2.1541                 1.3112                 1.2709
 Frc consts  --      1.7783                 1.1154                 1.0817
 IR Inten    --      0.5308                11.5079                26.7498

                     31                     32                     33
                      A                      A                      A
 Frequencies --   1230.5856              1268.6144              1297.1403
 Red. masses --      1.5924                 1.3821                 1.3283
 Frc consts  --      1.4208                 1.3106                 1.3168
 IR Inten    --      2.0509                12.1207                 3.7567

                     34                     35                     36
                      A                      A                      A
 Frequencies --   1374.6314              1390.9229              1417.4971
 Red. masses --      1.1913                 1.7402                 1.2960
 Frc consts  --      1.3263                 1.9836                 1.5343
 IR Inten    --      4.5141                 7.0113               146.1446

                     37                     38                     39
                      A                      A                      A
 Frequencies --   1437.1979              1467.5599              1498.0213
 Red. masses --      1.2928                 1.0865                 1.3069
 Frc consts  --      1.5734                 1.3787                 1.7279
 IR Inten    --     55.8331                 1.5914                 0.4914

                     40                     41                     42
                      A                      A                      A
 Frequencies --   1503.8979              2349.2085              2961.2737
 Red. masses --      1.0928                11.8858                 1.0709
 Frc consts  --      1.4562                38.6475                 5.5331
 IR Inten    --      0.6998                40.7382                49.7835

                     43                     44                     45
                      A                      A                      A
 Frequencies --   3046.3224              3085.5181              3142.9665
 Red. masses --      1.0829                 1.0920                 1.0505
 Frc consts  --      5.9210                 6.1252                 6.1142
 IR Inten    --     20.3579                28.0533                15.2635

                     46                     47                     48
                      A                      A                      A
 Frequencies --   3144.8093              3149.4885              3228.2016
 Red. masses --      1.0708                 1.0746                 1.1187
 Frc consts  --      6.2395                 6.2801                 6.8687
 IR Inten    --      5.5247                11.5195                 0.0805

                     49                     50                     51
                      A                      A                      A
 Frequencies --   3243.1225              3760.0622              3801.0704
 Red. masses --      1.1164                 1.0648                 1.0661
 Frc consts  --      6.9181                 8.8696                 9.0751
 IR Inten    --     10.9405                39.6832                20.6230

 - Thermochemistry -
 -------------------
 Temperature   298.150 Kelvin.  Pressure   1.00000 Atm.
 Atom     1 has atomic number  8 and mass  15.99491

 Molecular mass:   126.06808 amu.
 Principal axes and moments of inertia in atomic units:
                           1         2         3
     Eigenvalues --   352.051953111.879893311.13513
           X            1.00000  -0.00029  -0.00207
           Y            0.00027   0.99992  -0.01275
           Z            0.00207   0.01275   0.99992
 This molecule is an asymmetric top.
 Rotational symmetry number  1.
 Rotational temperatures (Kelvin)      0.24603     0.02783     0.02616
 Rotational constants (GHZ):           5.12635     0.57995     0.54505
 Zero-point vibrational energy     414599.8 (Joules/Mol)
                                   99.09173 (Kcal/Mol)
 Warning -- explicit consideration of  14 degrees of freedom as
           vibrations may cause significant error
 Vibrational temperatures:     37.45   105.13   118.23   218.79   244.78
          (Kelvin)            324.82   431.51   454.54   601.88   674.26
                              727.98   755.56   761.05   824.54  1065.08
                             1151.01  1184.26  1231.30  1286.04  1324.50
                             1479.11  1527.02  1530.54  1555.99  1558.97
                             1576.31  1608.24  1703.10  1728.84  1729.32
                             1770.54  1825.25  1866.29  1977.79  2001.23
                             2039.46  2067.80  2111.49  2155.32  2163.77
                             3379.98  4260.61  4382.97  4439.37  4522.02
                             4524.67  4531.41  4644.66  4666.12  5409.88
                             5468.89

 Zero-point correction=                           0.157913 (Hartree/Particle)
 Thermal correction to Energy=                    0.167869
 Thermal correction to Enthalpy=                  0.168813
 Thermal correction to Gibbs Free Energy=         0.121433
 Sum of electronic and zero-point Energies=           -422.976133
 Sum of electronic and thermal Energies=              -422.966177
 Sum of electronic and thermal Enthalpies=            -422.965233
 Sum of electronic and thermal Free Energies=         -423.012613

                     E (Thermal)             CV                S
                      KCal/Mol        Cal/Mol-Kelvin    Cal/Mol-Kelvin
 Total                  105.339             35.683             99.721
 Electronic               0.000              0.000              0.000
 Translational            0.889              2.981             40.409
 Rotational               0.889              2.981             29.674
 Vibrational            103.562             29.722             29.638
 Vibration     1          0.593              1.985              6.111
 Vibration     2          0.599              1.967              4.069
 Vibration     3          0.600              1.961              3.838
 Vibration     4          0.619              1.900              2.646
 Vibration     5          0.625              1.879              2.434
 Vibration     6          0.650              1.802              1.912
 Vibration     7          0.692              1.674              1.417
 Vibration     8          0.703              1.643              1.331
 Vibration     9          0.781              1.430              0.898
 Vibration    10          0.826              1.320              0.741
 Vibration    11          0.861              1.237              0.643
 Vibration    12          0.880              1.194              0.598
 Vibration    13          0.884              1.186              0.590
 Vibration    14          0.929              1.089              0.498

 Optimization completed.
    -- Stationary point found.
 Normal termination of Gaussian 09 at Tue Jan 28 08:57:15 2020.
