 Gaussian 09, Revision D.01,
 Gaussian 09:  ES64L-G09RevD.01 24-Apr-2013

 -----------------------------
 # b3lyp 6-31G(2df,p) opt Freq
 -----------------------------

 -----
 titel
 -----
 Symbolic Z-matrix:
 Charge =  0 Multiplicity = 1

 SCF Done:  E(RB3LYP) =  -423.164442572     A.U. after   13 cycles
 Optimization completed.
    -- Stationary point found.
 Normal termination of Gaussian 09 at Mon Jan 27 17:10:36 2020.

 ----------------------------------------------------------------------
 #N Geom=AllCheck Guess=TCheck SCRF=Check GenChk RB3LYP/6-31G(2df,p) Fr
 eq
 ----------------------------------------------------------------------

 Structure from the checkpoint file:  "/scratch/puck/g09_b5ffd9d8-1835-4d14-b88d-3ec5fcfbf31e/Gau-179168.chk"
 -----
 titel
 -----
 Charge =  0 Multiplicity = 1

                         Standard orientation:
 ---------------------------------------------------------------------
 Center     Atomic      Atomic             Coordinates (Angstroms)
 Number     Number       Type             X           Y           Z
 ---------------------------------------------------------------------
      1          8           0       -2.463628    0.359407    0.204271
      2          6           0       -1.083383    0.147053    0.009941
      3          6           0       -0.446121   -0.744161    1.107382
      4          6           0        0.421661   -1.396997   -0.003315
      5          6           0       -0.643559   -0.932513   -1.034709
      6          8           0        1.703961   -0.840380   -0.234785
      7          6           0        1.995928    0.476619    0.201252
      8          6           0        0.997564    1.571470   -0.102059
      9          6           0       -0.326039    1.442804   -0.169222
     10          1           0       -2.805087    0.844536   -0.554922
     11          1           0        0.042209   -0.255211    1.951833
     12          1           0       -1.185047   -1.458163    1.478535
     13          1           0        0.585952   -2.473514    0.076274
     14          1           0       -0.271624   -0.594154   -2.003482
     15          1           0       -1.433017   -1.679038   -1.162220
     16          1           0        2.201885    0.482148    1.285950
     17          1           0        2.946202    0.718770   -0.286434
     18          1           0        1.438929    2.556953   -0.231971
     19          1           0       -0.939363    2.319809   -0.365078
 ---------------------------------------------------------------------

 SCF Done:  E(RB3LYP) =  -423.164442572     A.U. after    1 cycles

 The electronic state is 1-A.
 Alpha  occ. eigenvalues --  -19.13818 -19.13586 -10.24064 -10.23327 -10.23269
 Alpha  occ. eigenvalues --  -10.18547 -10.18384 -10.17983 -10.17323  -1.02991
 Alpha  occ. eigenvalues --   -1.02153  -0.83758  -0.78822  -0.68898  -0.66451
 Alpha  occ. eigenvalues --   -0.64921  -0.54853  -0.54139  -0.52186  -0.49186
 Alpha  occ. eigenvalues --   -0.46403  -0.44931  -0.43144  -0.41832  -0.39986
 Alpha  occ. eigenvalues --   -0.39186  -0.37635  -0.35486  -0.33514  -0.31076
 Alpha  occ. eigenvalues --   -0.29985  -0.27104  -0.24447  -0.23956
 Alpha virt. eigenvalues --    0.00983   0.07925   0.08286   0.10331   0.12041
 Alpha virt. eigenvalues --    0.14475   0.14921   0.15225   0.16524   0.18104
 Alpha virt. eigenvalues --    0.18973   0.19836   0.20598   0.21343   0.23073

 Mulliken charges:
               1
     1  O   -0.489762
     2  C    0.373725
     3  C   -0.295003
     4  C    0.121815
     5  C   -0.284773
     6  O   -0.270985
     7  C   -0.127088
     8  C   -0.082847
     9  C   -0.129815
    10  H    0.275324
    11  H    0.107874
    12  H    0.114679
    13  H    0.084658
    14  H    0.098334
    15  H    0.100594
    16  H    0.107697
    17  H    0.116684
    18  H    0.095911
    19  H    0.082977
 Sum of Mulliken charges =   0.00000

 Dipole moment (field-independent basis, Debye):
    X=             -0.1932    Y=              1.0424    Z=             -0.5310  Tot=              1.1857
 Quadrupole moment (field-independent basis, Debye-Ang):
   XX=            -54.5208   YY=            -50.4672   ZZ=            -53.1127
   XY=              1.7899   XZ=              4.8213   YZ=             -2.0433

  Exact polarizability:  88.449   4.411  77.100   3.128  -1.824  62.017
 Approx polarizability: 134.171   4.816 107.815   3.174  -1.998  94.870

                      1                      2                      3
                      A                      A                      A
 Frequencies --    149.6747               201.5411               257.3644
 Red. masses --      2.6224                 2.9328                 1.1323
 Frc consts  --      0.0346                 0.0702                 0.0442
 IR Inten    --      2.3569                 6.4343                74.1664

                      4                      5                      6
                      A                      A                      A
 Frequencies --    304.4660               333.7013               357.6040
 Red. masses --      3.1485                 3.2488                 4.8599
 Frc consts  --      0.1720                 0.2131                 0.3662
 IR Inten    --     22.5552                 5.1257                 1.1402

                      7                      8                      9
                      A                      A                      A
 Frequencies --    420.0933               434.4889               484.1013
 Red. masses --      3.7016                 2.4440                 1.9734
 Frc consts  --      0.3849                 0.2718                 0.2725
 IR Inten    --      1.2894                 5.1300                 5.3859

                     10                     11                     12
                      A                      A                      A
 Frequencies --    538.3300               651.1597               682.6565
 Red. masses --      2.4710                 3.9560                 1.6898
 Frc consts  --      0.4219                 0.9883                 0.4640
 IR Inten    --      1.2978                 3.6386                14.6113

                     13                     14                     15
                      A                      A                      A
 Frequencies --    744.3595               808.8075               823.7386
 Red. masses --      3.6787                 2.6844                 1.7565
 Frc consts  --      1.2009                 1.0346                 0.7022
 IR Inten    --      5.9971                12.9051                 4.4076

                     16                     17                     18
                      A                      A                      A
 Frequencies --    870.8595               904.6108               941.6613
 Red. masses --      4.3599                 2.6689                 2.5060
 Frc consts  --      1.9481                 1.2868                 1.3092
 IR Inten    --      1.1220                 2.1241                 3.3636

                     19                     20                     21
                      A                      A                      A
 Frequencies --    955.9521               978.6789               990.0551
 Red. masses --      1.9913                 1.3505                 2.4158
 Frc consts  --      1.0721                 0.7621                 1.3952
 IR Inten    --      6.3867                 0.4730                44.5520

                     22                     23                     24
                      A                      A                      A
 Frequencies --   1016.1626              1030.0361              1068.9121
 Red. masses --      2.3465                 1.9284                 1.1192
 Frc consts  --      1.4276                 1.2055                 0.7534
 IR Inten    --      8.4748                17.1490                 1.7074

                     25                     26                     27
                      A                      A                      A
 Frequencies --   1103.6733              1148.9338              1188.0119
 Red. masses --      2.2341                 2.4273                 1.5064
 Frc consts  --      1.6034                 1.8879                 1.2527
 IR Inten    --     38.0067                58.4933                11.7406

                     28                     29                     30
                      A                      A                      A
 Frequencies --   1199.0637              1236.0488              1253.1278
 Red. masses --      2.9172                 1.3565                 1.7595
 Frc consts  --      2.4712                 1.2211                 1.6279
 IR Inten    --    109.4088                10.9869                11.7375

                     31                     32                     33
                      A                      A                      A
 Frequencies --   1261.9412              1273.2903              1287.2560
 Red. masses --      1.5137                 1.8013                 1.1125
 Frc consts  --      1.4203                 1.7206                 1.0862
 IR Inten    --     13.5690                92.8833                 1.3749

                     34                     35                     36
                      A                      A                      A
 Frequencies --   1369.8598              1381.5645              1409.0386
 Red. masses --      1.6831                 1.2362                 1.5442
 Frc consts  --      1.8608                 1.3902                 1.8063
 IR Inten    --     22.3531                 7.6802                 4.9934

                     37                     38                     39
                      A                      A                      A
 Frequencies --   1412.3090              1454.7490              1482.0640
 Red. masses --      1.3301                 1.0939                 1.1335
 Frc consts  --      1.5631                 1.3640                 1.4669
 IR Inten    --      5.6613                 5.2498                 2.1839

                     40                     41                     42
                      A                      A                      A
 Frequencies --   1499.0879              1717.8243              2950.0864
 Red. masses --      1.0892                 7.3316                 1.0731
 Frc consts  --      1.4422                12.7470                 5.5026
 IR Inten    --      3.6098                 1.7736                48.7438

                     43                     44                     45
                      A                      A                      A
 Frequencies --   3056.5359              3062.9556              3072.9974
 Red. masses --      1.0582                 1.0868                 1.0624
 Frc consts  --      5.8247                 6.0071                 5.9109
 IR Inten    --     25.3392                28.5927                16.3682

                     46                     47                     48
                      A                      A                      A
 Frequencies --   3087.7398              3129.0944              3133.7488
 Red. masses --      1.0846                 1.1085                 1.1080
 Frc consts  --      6.0927                 6.3945                 6.4110
 IR Inten    --     49.4313                17.9204                18.5846

                     49                     50                     51
                      A                      A                      A
 Frequencies --   3138.7909              3162.6340              3802.0742
 Red. masses --      1.0837                 1.0960                 1.0659
 Frc consts  --      6.2904                 6.4592                 9.0779
 IR Inten    --      7.2820                22.4974                16.8627

 - Thermochemistry -
 -------------------
 Temperature   298.150 Kelvin.  Pressure   1.00000 Atm.
 Atom     1 has atomic number  8 and mass  15.99491

 Molecular mass:   126.06808 amu.
 Principal axes and moments of inertia in atomic units:
                           1         2         3
     Eigenvalues --   642.766101073.251331404.05319
           X            0.99891   0.04271   0.01898
           Y           -0.04249   0.99903  -0.01171
           Z           -0.01946   0.01089   0.99975
 This molecule is an asymmetric top.
 Rotational symmetry number  1.
 Warning -- assumption of classical behavior for rotation
           may cause significant error
 Rotational temperatures (Kelvin)      0.13475     0.08070     0.06169
 Rotational constants (GHZ):           2.80777     1.68156     1.28538
 Zero-point vibrational energy     420029.9 (Joules/Mol)
                                  100.38956 (Kcal/Mol)
 Warning -- explicit consideration of  10 degrees of freedom as
           vibrations may cause significant error
 Vibrational temperatures:    215.35   289.97   370.29   438.06   480.12
          (Kelvin)            514.51   604.42   625.13   696.51   774.54
                              936.87   982.19  1070.97  1163.69  1185.17
                             1252.97  1301.53  1354.84  1375.40  1408.10
                             1424.47  1462.03  1481.99  1537.92  1587.94
                             1653.06  1709.28  1725.18  1778.40  1802.97
                             1815.65  1831.98  1852.07  1970.92  1987.76
                             2027.29  2032.00  2093.06  2132.36  2156.85
                             2471.56  4244.51  4397.67  4406.90  4421.35
                             4442.56  4502.06  4508.76  4516.01  4550.32
                             5470.33

 Zero-point correction=                           0.159981 (Hartree/Particle)
 Thermal correction to Energy=                    0.167708
 Thermal correction to Enthalpy=                  0.168653
 Thermal correction to Gibbs Free Energy=         0.128362
 Sum of electronic and zero-point Energies=           -423.004462
 Sum of electronic and thermal Energies=              -422.996734
 Sum of electronic and thermal Enthalpies=            -422.995790
 Sum of electronic and thermal Free Energies=         -423.036081

                     E (Thermal)             CV                S
                      KCal/Mol        Cal/Mol-Kelvin    Cal/Mol-Kelvin
 Total                  105.239             31.540             84.799
 Electronic               0.000              0.000              0.000
 Translational            0.889              2.981             40.409
 Rotational               0.889              2.981             28.362
 Vibrational            103.461             25.578             16.029
 Vibration     1          0.618              1.903              2.676
 Vibration     2          0.638              1.838              2.119
 Vibration     3          0.667              1.750              1.680
 Vibration     4          0.695              1.665              1.392
 Vibration     5          0.715              1.608              1.242
 Vibration     6          0.733              1.560              1.133
 Vibration     7          0.783              1.427              0.892
 Vibration     8          0.795              1.395              0.844
 Vibration     9          0.840              1.285              0.699
 Vibration    10          0.893              1.165              0.569

 Normal termination of Gaussian 09 at Mon Jan 27 17:54:12 2020.
