 Gaussian 09, Revision D.01,
 Gaussian 09:  ES64L-G09RevD.01 24-Apr-2013

 -----------------------------
 # b3lyp 6-31G(2df,p) opt Freq
 -----------------------------

 -----
 titel
 -----
 Symbolic Z-matrix:
 Charge =  0 Multiplicity = 1

 SCF Done:  E(RB3LYP) =  -423.205980581     A.U. after   14 cycles
 Optimization completed.
    -- Stationary point found.
 Normal termination of Gaussian 09 at Mon Jan 27 22:52:59 2020.

 ----------------------------------------------------------------------
 #N Geom=AllCheck Guess=TCheck SCRF=Check GenChk RB3LYP/6-31G(2df,p) Fr
 eq
 ----------------------------------------------------------------------

 Structure from the checkpoint file:  "/scratch/puck/g09_ad4efbf5-4eb2-4e66-9e8b-72a541f8ee1c/Gau-82995.chk"
 -----
 titel
 -----
 Charge =  0 Multiplicity = 1

                         Standard orientation:
 ---------------------------------------------------------------------
 Center     Atomic      Atomic             Coordinates (Angstroms)
 Number     Number       Type             X           Y           Z
 ---------------------------------------------------------------------
      1          6           0        2.538895   -0.920595   -0.598602
      2          6           0        1.052296   -0.651775   -0.521160
      3          6           0        0.353028   -0.664721    0.830183
      4          6           0       -1.117925   -1.021949    0.849254
      5          6           0       -1.787003   -0.031490   -0.120904
      6          8           0       -2.895019   -0.142382   -0.574412
      7          6           0       -0.814113    1.121437   -0.415149
      8          6           0        0.544782    0.638498    0.058465
      9          8           0        1.503504    1.585948    0.414886
     10          1           0        3.064658   -0.459656    0.240296
     11          1           0        2.740501   -1.996889   -0.586149
     12          1           0        2.964573   -0.508522   -1.519383
     13          1           0        0.479825   -1.054260   -1.356747
     14          1           0        0.968840   -0.863294    1.700604
     15          1           0       -1.351627   -2.048549    0.548308
     16          1           0       -1.560924   -0.872839    1.842910
     17          1           0       -0.862335    1.408486   -1.469513
     18          1           0       -1.134869    1.995023    0.170562
     19          1           0        1.203715    2.035538    1.212794
 ---------------------------------------------------------------------

 SCF Done:  E(RB3LYP) =  -423.205980581     A.U. after    1 cycles

 The electronic state is 1-A.
 Alpha  occ. eigenvalues --  -19.15249 -19.13197 -10.27197 -10.24464 -10.19636
 Alpha  occ. eigenvalues --  -10.19486 -10.19364 -10.19346 -10.17810  -1.04399
 Alpha  occ. eigenvalues --   -1.03815  -0.88088  -0.76718  -0.72846  -0.69400
 Alpha  occ. eigenvalues --   -0.58467  -0.57853  -0.53865  -0.51027  -0.46816
 Alpha  occ. eigenvalues --   -0.46641  -0.44619  -0.42943  -0.41433  -0.40622
 Alpha  occ. eigenvalues --   -0.40221  -0.38953  -0.37043  -0.35983  -0.35086
 Alpha  occ. eigenvalues --   -0.32372  -0.27705  -0.25630  -0.23922
 Alpha virt. eigenvalues --   -0.01957   0.06712   0.10324   0.10931   0.11951
 Alpha virt. eigenvalues --    0.12278   0.13881   0.15920   0.16646   0.17403
 Alpha virt. eigenvalues --    0.17848   0.18898   0.20037   0.20364   0.23081

 Mulliken charges:
               1
     1  C   -0.414660
     2  C   -0.045747
     3  C   -0.144096
     4  C   -0.338587
     5  C    0.382288
     6  O   -0.303400
     7  C   -0.394783
     8  C    0.393475
     9  O   -0.469553
    10  H    0.129327
    11  H    0.114943
    12  H    0.122792
    13  H    0.086376
    14  H    0.088793
    15  H    0.130743
    16  H    0.127465
    17  H    0.134449
    18  H    0.119073
    19  H    0.281099
 Sum of Mulliken charges =   0.00000

 Dipole moment (field-independent basis, Debye):
    X=              1.5962    Y=              0.2131    Z=              1.8653  Tot=              2.4643
 Quadrupole moment (field-independent basis, Debye-Ang):
   XX=            -65.3512   YY=            -50.8164   ZZ=            -49.5306
   XY=             -2.5392   XZ=             -2.4424   YZ=              2.3680

  Exact polarizability:  85.839  -0.631  73.335  -0.392  -0.803  67.389
 Approx polarizability: 116.214   2.869 107.779   3.143  -0.010 105.255

                      1                      2                      3
                      A                      A                      A
 Frequencies --     74.3548               175.4839               198.6935
 Red. masses --      4.4501                 1.0984                 2.3387
 Frc consts  --      0.0145                 0.0199                 0.0544
 IR Inten    --      4.9976                 1.0193                 3.0945

                      4                      5                      6
                      A                      A                      A
 Frequencies --    227.1558               247.8090               288.8172
 Red. masses --      2.4959                 1.9956                 1.1973
 Frc consts  --      0.0759                 0.0722                 0.0588
 IR Inten    --      1.3625                 8.0974                62.8646

                      7                      8                      9
                      A                      A                      A
 Frequencies --    342.4677               378.0996               445.6270
 Red. masses --      5.5592                 2.6304                 3.2047
 Frc consts  --      0.3842                 0.2216                 0.3750
 IR Inten    --     21.6986                 4.0549                 4.0882

                     10                     11                     12
                      A                      A                      A
 Frequencies --    479.8821               496.5223               610.2845
 Red. masses --      2.6107                 4.3210                 3.9885
 Frc consts  --      0.3542                 0.6276                 0.8752
 IR Inten    --      1.5464                 5.2543                 9.7871

                     13                     14                     15
                      A                      A                      A
 Frequencies --    646.9820               701.9310               780.1202
 Red. masses --      4.1770                 2.9522                 3.5132
 Frc consts  --      1.0301                 0.8570                 1.2597
 IR Inten    --      0.3292                 5.2993                 5.8801

                     16                     17                     18
                      A                      A                      A
 Frequencies --    802.5000               816.9865               895.6997
 Red. masses --      2.8079                 1.8269                 2.2347
 Frc consts  --      1.0654                 0.7185                 1.0563
 IR Inten    --      2.8145                 2.0937                 5.9120

                     19                     20                     21
                      A                      A                      A
 Frequencies --    942.4886               998.7159              1023.4748
 Red. masses --      1.3180                 1.5415                 1.2482
 Frc consts  --      0.6898                 0.9059                 0.7704
 IR Inten    --      8.6846                 7.7477                19.4695

                     22                     23                     24
                      A                      A                      A
 Frequencies --   1063.8531              1071.3794              1118.5690
 Red. masses --      1.9276                 2.1619                 2.5227
 Frc consts  --      1.2853                 1.4621                 1.8597
 IR Inten    --      0.7150                 7.8441                 2.9186

                     25                     26                     27
                      A                      A                      A
 Frequencies --   1130.8829              1139.3813              1160.4771
 Red. masses --      2.0951                 1.9024                 1.8022
 Frc consts  --      1.5786                 1.4551                 1.4300
 IR Inten    --     27.8864                10.2885                21.7697

                     28                     29                     30
                      A                      A                      A
 Frequencies --   1206.4753              1218.9933              1241.5603
 Red. masses --      1.3375                 1.6675                 1.8215
 Frc consts  --      1.1471                 1.4599                 1.6543
 IR Inten    --      4.6012                21.4400                62.2915

                     31                     32                     33
                      A                      A                      A
 Frequencies --   1279.4259              1292.7497              1321.2222
 Red. masses --      1.8924                 1.8419                 1.6250
 Frc consts  --      1.8251                 1.8136                 1.6713
 IR Inten    --     14.5515                44.5365                53.1702

                     34                     35                     36
                      A                      A                      A
 Frequencies --   1363.7654              1416.0819              1445.0464
 Red. masses --      1.5780                 1.2716                 1.3458
 Frc consts  --      1.7292                 1.5024                 1.6557
 IR Inten    --      6.2232                 0.8415                 6.6426

                     37                     38                     39
                      A                      A                      A
 Frequencies --   1452.0162              1470.8525              1492.2078
 Red. masses --      1.1512                 1.5906                 1.0563
 Frc consts  --      1.4300                 2.0275                 1.3858
 IR Inten    --      4.3067                 0.8194                 2.1754

                     40                     41                     42
                      A                      A                      A
 Frequencies --   1504.6541              1849.2212              3017.5897
 Red. masses --      1.1542                12.7169                 1.0678
 Frc consts  --      1.5395                25.6219                 5.7286
 IR Inten    --      6.8489               210.8480                14.6422

                     43                     44                     45
                      A                      A                      A
 Frequencies --   3029.3067              3037.8819              3077.8347
 Red. masses --      1.0638                 1.0371                 1.0977
 Frc consts  --      5.7518                 5.6390                 6.1269
 IR Inten    --     23.7268                33.0049                11.1231

                     46                     47                     48
                      A                      A                      A
 Frequencies --   3090.8336              3096.6530              3102.2233
 Red. masses --      1.0933                 1.1014                 1.0880
 Frc consts  --      6.1535                 6.2226                 6.1692
 IR Inten    --      7.5554                22.6356                 8.9742

                     49                     50                     51
                      A                      A                      A
 Frequencies --   3130.7144              3171.9772              3792.8232
 Red. masses --      1.0987                 1.0901                 1.0661
 Frc consts  --      6.3448                 6.4619                 9.0360
 IR Inten    --     19.3901                11.2595                16.3111

 - Thermochemistry -
 -------------------
 Temperature   298.150 Kelvin.  Pressure   1.00000 Atm.
 Atom     1 has atomic number  6 and mass  12.00000

 Molecular mass:   126.06808 amu.
 Principal axes and moments of inertia in atomic units:
                           1         2         3
     Eigenvalues --   587.773971469.904221703.30469
           X            0.99949  -0.02709  -0.01717
           Y            0.02707   0.99963  -0.00141
           Z            0.01720   0.00094   0.99985
 This molecule is an asymmetric top.
 Rotational symmetry number  1.
 Warning -- assumption of classical behavior for rotation
           may cause significant error
 Rotational temperatures (Kelvin)      0.14736     0.05892     0.05085
 Rotational constants (GHZ):           3.07047     1.22780     1.05955
 Zero-point vibrational energy     414869.4 (Joules/Mol)
                                   99.15617 (Kcal/Mol)
 Warning -- explicit consideration of  12 degrees of freedom as
           vibrations may cause significant error
 Vibrational temperatures:    106.98   252.48   285.88   326.83   356.54
          (Kelvin)            415.54   492.73   544.00   641.16   690.44
                              714.38   878.06   930.86  1009.92  1122.42
                             1154.62  1175.46  1288.71  1356.03  1436.93
                             1472.55  1530.65  1541.47  1609.37  1627.09
                             1639.31  1669.67  1735.85  1753.86  1786.33
                             1840.81  1859.98  1900.94  1962.15  2037.42
                             2079.10  2089.12  2116.23  2146.95  2164.86
                             2660.61  4341.63  4358.49  4370.83  4428.31
                             4447.01  4455.39  4463.40  4504.39  4563.76
                             5457.02

 Zero-point correction=                           0.158015 (Hartree/Particle)
 Thermal correction to Energy=                    0.166750
 Thermal correction to Enthalpy=                  0.167694
 Thermal correction to Gibbs Free Energy=         0.124867
 Sum of electronic and zero-point Energies=           -423.047965
 Sum of electronic and thermal Energies=              -423.039230
 Sum of electronic and thermal Enthalpies=            -423.038286
 Sum of electronic and thermal Free Energies=         -423.081113

                     E (Thermal)             CV                S
                      KCal/Mol        Cal/Mol-Kelvin    Cal/Mol-Kelvin
 Total                  104.637             33.630             90.138
 Electronic               0.000              0.000              0.000
 Translational            0.889              2.981             40.409
 Rotational               0.889              2.981             28.777
 Vibrational            102.860             27.669             20.951
 Vibration     1          0.599              1.966              4.035
 Vibration     2          0.627              1.873              2.376
 Vibration     3          0.637              1.842              2.145
 Vibration     4          0.651              1.800              1.901
 Vibration     5          0.661              1.766              1.746
 Vibration     6          0.685              1.695              1.481
 Vibration     7          0.722              1.591              1.201
 Vibration     8          0.748              1.517              1.047
 Vibration     9          0.805              1.371              0.809
 Vibration    10          0.836              1.295              0.710
 Vibration    11          0.852              1.258              0.667
 Vibration    12          0.969              1.010              0.432

 Normal termination of Gaussian 09 at Mon Jan 27 23:37:11 2020.
