 Gaussian 09, Revision D.01,
 Gaussian 09:  ES64L-G09RevD.01 24-Apr-2013

 -----------------------------
 # b3lyp 6-31G(2df,p) opt Freq
 -----------------------------

 -----
 titel
 -----
 Symbolic Z-matrix:
 Charge =  0 Multiplicity = 1

 SCF Done:  E(RB3LYP) =  -423.137875807     A.U. after   13 cycles
 Optimization completed.
    -- Stationary point found.
 Normal termination of Gaussian 09 at Mon Jan 27 23:47:40 2020.

 ----------------------------------------------------------------------
 #N Geom=AllCheck Guess=TCheck SCRF=Check GenChk RB3LYP/6-31G(2df,p) Fr
 eq
 ----------------------------------------------------------------------

 Structure from the checkpoint file:  "/scratch/puck/g09_86c313aa-7daa-4f5b-b5c9-713287f04bab/Gau-78016.chk"
 -----
 titel
 -----
 Charge =  0 Multiplicity = 1

                         Standard orientation:
 ---------------------------------------------------------------------
 Center     Atomic      Atomic             Coordinates (Angstroms)
 Number     Number       Type             X           Y           Z
 ---------------------------------------------------------------------
      1          8           0        2.517604   -0.089761   -0.005538
      2          6           0        1.233243   -0.681745    0.007960
      3          6           0        0.302983   -0.083502    1.096701
      4          6           0       -1.014615   -0.873190    1.309371
      5          6           0       -1.607900   -0.280443    0.006517
      6          6           0       -1.016149   -0.935758   -1.266422
      7          6           0        0.303655   -0.137968   -1.109785
      8          6           0       -0.410986    0.759180   -0.014273
      9          8           0       -0.462597    2.136790    0.056368
     10          1           0        2.402526    0.867860    0.004797
     11          1           0        1.402321   -1.762732    0.033362
     12          1           0        0.802235    0.344706    1.966741
     13          1           0       -0.944500   -1.963524    1.379442
     14          1           0       -1.546803   -0.499845    2.188573
     15          1           0       -2.666432   -0.017559    0.002084
     16          1           0       -0.943383   -2.028115   -1.278363
     17          1           0       -1.557075   -0.616212   -2.162382
     18          1           0        0.805667    0.229061   -2.006992
     19          1           0       -0.936012    2.470676   -0.714310
 ---------------------------------------------------------------------

 SCF Done:  E(RB3LYP) =  -423.137875807     A.U. after    1 cycles

 The electronic state is 1-A.
 Alpha  occ. eigenvalues --  -19.15526 -19.13179 -10.23675 -10.22601 -10.18424
 Alpha  occ. eigenvalues --  -10.18389 -10.18284 -10.17861 -10.17813  -1.03935
 Alpha  occ. eigenvalues --   -1.01471  -0.88796  -0.74045  -0.72554  -0.64297
 Alpha  occ. eigenvalues --   -0.58998  -0.58839  -0.55474  -0.50328  -0.49130
 Alpha  occ. eigenvalues --   -0.46210  -0.44566  -0.42057  -0.40467  -0.39977
 Alpha  occ. eigenvalues --   -0.37929  -0.36600  -0.35349  -0.32433  -0.31329
 Alpha  occ. eigenvalues --   -0.30743  -0.26320  -0.24924  -0.23789
 Alpha virt. eigenvalues --    0.06660   0.07802   0.08929   0.10983   0.11344
 Alpha virt. eigenvalues --    0.13103   0.14793   0.15323   0.16094   0.18136
 Alpha virt. eigenvalues --    0.18440   0.20149   0.20310   0.21497   0.22350

 Mulliken charges:
               1
     1  O   -0.442991
     2  C    0.144739
     3  C   -0.104138
     4  C   -0.237972
     5  C   -0.114823
     6  C   -0.238011
     7  C   -0.147795
     8  C    0.378902
     9  O   -0.479887
    10  H    0.283212
    11  H    0.078702
    12  H    0.073010
    13  H    0.093517
    14  H    0.106888
    15  H    0.064451
    16  H    0.095009
    17  H    0.097454
    18  H    0.065803
    19  H    0.283931
 Sum of Mulliken charges =   0.00000

 Dipole moment (field-independent basis, Debye):
    X=             -2.0056    Y=              0.5731    Z=             -1.0134  Tot=              2.3190
 Quadrupole moment (field-independent basis, Debye-Ang):
   XX=            -57.1847   YY=            -51.5913   ZZ=            -51.5599
   XY=              0.9114   XZ=              1.3564   YZ=             -3.3138

  Exact polarizability:  76.847   1.427  72.581   0.603  -1.084  73.070
 Approx polarizability: 109.356   0.985 110.744   1.200  -0.823 105.978

                      1                      2                      3
                      A                      A                      A
 Frequencies --    127.4291               227.6293               266.5122
 Red. masses --      4.7862                 2.2141                 1.3279
 Frc consts  --      0.0458                 0.0676                 0.0556
 IR Inten    --      0.7169                 7.7243                33.0918

                      4                      5                      6
                      A                      A                      A
 Frequencies --    297.9787               336.8759               358.7234
 Red. masses --      1.4595                 2.0456                 2.2437
 Frc consts  --      0.0764                 0.1368                 0.1701
 IR Inten    --     50.3662                21.9499                53.7486

                      7                      8                      9
                      A                      A                      A
 Frequencies --    373.0826               390.7178               431.9283
 Red. masses --      2.7482                 2.8057                 3.5632
 Frc consts  --      0.2254                 0.2524                 0.3917
 IR Inten    --      4.7802                32.7067                 3.7714

                     10                     11                     12
                      A                      A                      A
 Frequencies --    597.7148               612.1660               708.1105
 Red. masses --      3.3432                 3.0685                 4.0488
 Frc consts  --      0.7037                 0.6775                 1.1961
 IR Inten    --      6.3532                 0.7921                 1.7846

                     13                     14                     15
                      A                      A                      A
 Frequencies --    807.0995               858.2224               870.6509
 Red. masses --      2.5914                 1.8665                 2.3251
 Frc consts  --      0.9946                 0.8100                 1.0385
 IR Inten    --     12.5603                 5.1658                 6.8626

                     16                     17                     18
                      A                      A                      A
 Frequencies --    912.7127               929.2917               954.0533
 Red. masses --      2.1636                 1.8973                 2.3081
 Frc consts  --      1.0619                 0.9654                 1.2378
 IR Inten    --      0.5555                 4.6958                 8.3182

                     19                     20                     21
                      A                      A                      A
 Frequencies --    996.4852              1000.1997              1023.1365
 Red. masses --      2.5776                 1.9857                 2.1270
 Frc consts  --      1.5080                 1.1704                 1.3119
 IR Inten    --     22.9811                 5.9467                14.8695

                     22                     23                     24
                      A                      A                      A
 Frequencies --   1024.8896              1037.8720              1076.6276
 Red. masses --      2.2917                 3.0114                 1.1868
 Frc consts  --      1.4183                 1.9112                 0.8105
 IR Inten    --     39.6647                10.3625                 0.5204

                     25                     26                     27
                      A                      A                      A
 Frequencies --   1096.8837              1117.7804              1132.3396
 Red. masses --      1.5304                 1.8489                 1.7481
 Frc consts  --      1.0849                 1.3611                 1.3206
 IR Inten    --      6.2311                46.6066                 3.2416

                     28                     29                     30
                      A                      A                      A
 Frequencies --   1162.9520              1187.1103              1217.6628
 Red. masses --      2.4884                 1.4875                 1.6741
 Frc consts  --      1.9828                 1.2351                 1.4624
 IR Inten    --     30.1883                 5.8524                 0.8940

                     31                     32                     33
                      A                      A                      A
 Frequencies --   1246.7886              1255.0683              1268.2289
 Red. masses --      1.3450                 1.4740                 1.4615
 Frc consts  --      1.2318                 1.3680                 1.3850
 IR Inten    --      4.7353                 9.4760                53.7163

                     34                     35                     36
                      A                      A                      A
 Frequencies --   1291.0075              1305.3218              1314.9347
 Red. masses --      1.5848                 1.7065                 1.9260
 Frc consts  --      1.5563                 1.7131                 1.9620
 IR Inten    --      9.7096                14.6119               111.9171

                     37                     38                     39
                      A                      A                      A
 Frequencies --   1321.7150              1386.4351              1428.3855
 Red. masses --      1.6198                 2.3262                 1.3096
 Frc consts  --      1.6672                 2.6345                 1.5742
 IR Inten    --      2.7273                26.8585                75.1337

                     40                     41                     42
                      A                      A                      A
 Frequencies --   1476.1464              1491.1829              3040.3990
 Red. masses --      1.1056                 1.1208                 1.0582
 Frc consts  --      1.4194                 1.4683                 5.7636
 IR Inten    --      1.4435                 6.5605                35.8379

                     43                     44                     45
                      A                      A                      A
 Frequencies --   3044.2868              3063.3634              3088.0083
 Red. masses --      1.0592                 1.0860                 1.1035
 Frc consts  --      5.7837                 6.0044                 6.1999
 IR Inten    --     35.6096                43.3180                12.6347

                     46                     47                     48
                      A                      A                      A
 Frequencies --   3092.9159              3095.4174              3101.1628
 Red. masses --      1.0927                 1.1017                 1.0917
 Frc consts  --      6.1586                 6.2193                 6.1862
 IR Inten    --     40.8027                18.3573                60.9631

                     49                     50                     51
                      A                      A                      A
 Frequencies --   3107.4214              3788.7898              3790.5442
 Red. masses --      1.0937                 1.0658                 1.0656
 Frc consts  --      6.2220                 9.0146                 9.0211
 IR Inten    --     26.2200                17.4904                18.5500

 - Thermochemistry -
 -------------------
 Temperature   298.150 Kelvin.  Pressure   1.00000 Atm.
 Atom     1 has atomic number  8 and mass  15.99491

 Molecular mass:   126.06808 amu.
 Principal axes and moments of inertia in atomic units:
                           1         2         3
     Eigenvalues --   770.991401062.467401186.38432
           X            0.99914   0.04134   0.00377
           Y           -0.04115   0.99830  -0.04138
           Z           -0.00547   0.04118   0.99914
 This molecule is an asymmetric top.
 Rotational symmetry number  1.
 Warning -- assumption of classical behavior for rotation
           may cause significant error
 Rotational temperatures (Kelvin)      0.11234     0.08152     0.07301
 Rotational constants (GHZ):           2.34081     1.69863     1.52121
 Zero-point vibrational energy     419484.7 (Joules/Mol)
                                  100.25924 (Kcal/Mol)
 Warning -- explicit consideration of  11 degrees of freedom as
           vibrations may cause significant error
 Vibrational temperatures:    183.34   327.51   383.45   428.72   484.69
          (Kelvin)            516.12   536.78   562.16   621.45   859.98
                              880.77  1018.81  1161.23  1234.79  1252.67
                             1313.19  1337.04  1372.67  1433.72  1439.06
                             1472.06  1474.59  1493.26  1549.02  1578.17
                             1608.23  1629.18  1673.23  1707.98  1751.94
                             1793.85  1805.76  1824.70  1857.47  1878.06
                             1891.90  1901.65  1994.77  2055.13  2123.84
                             2145.48  4374.45  4380.04  4407.49  4442.95
                             4450.01  4453.61  4461.88  4470.88  5451.22
                             5453.74

 Zero-point correction=                           0.159773 (Hartree/Particle)
 Thermal correction to Energy=                    0.167556
 Thermal correction to Enthalpy=                  0.168501
 Thermal correction to Gibbs Free Energy=         0.128056
 Sum of electronic and zero-point Energies=           -422.978103
 Sum of electronic and thermal Energies=              -422.970319
 Sum of electronic and thermal Enthalpies=            -422.969375
 Sum of electronic and thermal Free Energies=         -423.009820

                     E (Thermal)             CV                S
                      KCal/Mol        Cal/Mol-Kelvin    Cal/Mol-Kelvin
 Total                  105.143             31.640             85.124
 Electronic               0.000              0.000              0.000
 Translational            0.889              2.981             40.409
 Rotational               0.889              2.981             28.365
 Vibrational            103.366             25.679             16.350
 Vibration     1          0.611              1.926              2.984
 Vibration     2          0.651              1.799              1.898
 Vibration     3          0.672              1.735              1.619
 Vibration     4          0.691              1.677              1.428
 Vibration     5          0.718              1.602              1.227
 Vibration     6          0.734              1.557              1.128
 Vibration     7          0.744              1.527              1.067
 Vibration     8          0.758              1.490              0.997
 Vibration     9          0.793              1.401              0.852
 Vibration    10          0.956              1.037              0.454
 Vibration    11          0.971              1.006              0.429

 Normal termination of Gaussian 09 at Tue Jan 28 00:35:16 2020.
