 Gaussian 09, Revision D.01,
 Gaussian 09:  ES64L-G09RevD.01 24-Apr-2013

 -----------------------------
 # b3lyp 6-31G(2df,p) opt Freq
 -----------------------------

 -----
 titel
 -----
 Symbolic Z-matrix:
 Charge =  0 Multiplicity = 1

 SCF Done:  E(RB3LYP) =  -423.116217243     A.U. after   14 cycles
 Optimization completed.
    -- Stationary point found.
 Normal termination of Gaussian 09 at Tue Jan 28 12:06:27 2020.

 ----------------------------------------------------------------------
 #N Geom=AllCheck Guess=TCheck SCRF=Check GenChk RB3LYP/6-31G(2df,p) Fr
 eq
 ----------------------------------------------------------------------

 Structure from the checkpoint file:  "/scratch/puck/g09_c3e1edda-83c8-4c2c-86c6-483677c4b3f3/Gau-6272.chk"
 -----
 titel
 -----
 Charge =  0 Multiplicity = 1

                         Standard orientation:
 ---------------------------------------------------------------------
 Center     Atomic      Atomic             Coordinates (Angstroms)
 Number     Number       Type             X           Y           Z
 ---------------------------------------------------------------------
      1          6           0        0.174367    2.454331   -0.040069
      2          8           0        1.221039    1.514533   -0.194738
      3          6           0        0.957535    0.278522    0.396455
      4          6           0        2.115882   -0.719050    0.254541
      5          8           0        1.245604   -1.708979   -0.337159
      6          6           0        0.148840   -0.773415   -0.415083
      7          6           0       -1.123081   -1.375289    0.186813
      8          6           0       -2.270594   -0.483636    0.086386
      9          6           0       -3.199274    0.273903   -0.011153
     10          1           0       -0.016912    2.668223    1.022614
     11          1           0        0.494853    3.373176   -0.536061
     12          1           0       -0.762900    2.104443   -0.493300
     13          1           0        0.585643    0.400806    1.424869
     14          1           0        2.882521   -0.366462   -0.445632
     15          1           0        2.588969   -1.081631    1.172900
     16          1           0       -0.030996   -0.444972   -1.447453
     17          1           0       -1.331157   -2.318508   -0.333827
     18          1           0       -0.931357   -1.637239    1.234846
     19          1           0       -4.033863    0.925546   -0.091121
 ---------------------------------------------------------------------

 SCF Done:  E(RB3LYP) =  -423.116217243     A.U. after    1 cycles

 The electronic state is 1-A.
 Alpha  occ. eigenvalues --  -19.14892 -19.13701 -10.24004 -10.23891 -10.22990
 Alpha  occ. eigenvalues --  -10.22588 -10.21216 -10.18913 -10.17810  -1.05489
 Alpha  occ. eigenvalues --   -1.02947  -0.80130  -0.74821  -0.72456  -0.66965
 Alpha  occ. eigenvalues --   -0.65430  -0.56520  -0.53654  -0.51246  -0.50014
 Alpha  occ. eigenvalues --   -0.48598  -0.45694  -0.43728  -0.43563  -0.41703
 Alpha  occ. eigenvalues --   -0.41242  -0.39482  -0.35372  -0.32686  -0.30988
 Alpha  occ. eigenvalues --   -0.27678  -0.27132  -0.25775  -0.25014
 Alpha virt. eigenvalues --    0.04162   0.05086   0.08097   0.09836   0.10847
 Alpha virt. eigenvalues --    0.12426   0.12589   0.12788   0.14914   0.15157
 Alpha virt. eigenvalues --    0.16619   0.17521   0.18572   0.19863   0.20069

 Mulliken charges:
               1
     1  C   -0.249737
     2  O   -0.238376
     3  C    0.071695
     4  C   -0.106642
     5  O   -0.293050
     6  C    0.119029
     7  C   -0.374490
     8  C    0.295428
     9  C   -0.449608
    10  H    0.107960
    11  H    0.127850
    12  H    0.126229
    13  H    0.073785
    14  H    0.114585
    15  H    0.107469
    16  H    0.091595
    17  H    0.145181
    18  H    0.131396
    19  H    0.199703
 Sum of Mulliken charges =   0.00000

 Dipole moment (field-independent basis, Debye):
    X=             -0.8543    Y=              1.1704    Z=              0.9376  Tot=              1.7258
 Quadrupole moment (field-independent basis, Debye-Ang):
   XX=            -52.1784   YY=            -53.4671   ZZ=            -52.9325
   XY=             -1.9604   XZ=              2.2015   YZ=             -1.0253

  Exact polarizability:  92.788 -10.658  79.581   2.545  -2.489  59.230
 Approx polarizability: 127.091 -22.273 115.461   3.582  -4.125  90.459

                      1                      2                      3
                      A                      A                      A
 Frequencies --     46.8465                77.7305                99.7511
 Red. masses --      2.8069                 4.3148                 2.7106
 Frc consts  --      0.0036                 0.0154                 0.0159
 IR Inten    --      0.4462                 0.6645                 1.5980

                      4                      5                      6
                      A                      A                      A
 Frequencies --    147.1723               189.1704               232.0098
 Red. masses --      3.9806                 1.1851                 2.5620
 Frc consts  --      0.0508                 0.0250                 0.0813
 IR Inten    --      1.6560                 1.8213                 2.2151

                      7                      8                      9
                      A                      A                      A
 Frequencies --    301.8812               335.1708               357.2394
 Red. masses --      2.7762                 4.2466                 3.0246
 Frc consts  --      0.1491                 0.2811                 0.2274
 IR Inten    --      7.3603                 1.5921                 4.9269

                     10                     11                     12
                      A                      A                      A
 Frequencies --    426.3922               467.9733               525.1431
 Red. masses --      4.0970                 3.9998                 4.1889
 Frc consts  --      0.4389                 0.5161                 0.6806
 IR Inten    --      3.5312                 0.0474                12.8267

                     13                     14                     15
                      A                      A                      A
 Frequencies --    626.3407               645.9014               735.8623
 Red. masses --      1.2130                 1.2204                 3.2347
 Frc consts  --      0.2804                 0.3000                 1.0320
 IR Inten    --     43.5345                46.7492                 6.4506

                     16                     17                     18
                      A                      A                      A
 Frequencies --    825.8586               901.9955               963.6791
 Red. masses --      2.1243                 1.5893                 3.8916
 Frc consts  --      0.8536                 0.7618                 2.1294
 IR Inten    --      4.4844                 4.6185                 5.1728

                     19                     20                     21
                      A                      A                      A
 Frequencies --    993.6062              1024.3357              1038.0890
 Red. masses --      3.5819                 7.3455                 2.7980
 Frc consts  --      2.0835                 4.5410                 1.7765
 IR Inten    --     12.6459               101.5639                28.2746

                     22                     23                     24
                      A                      A                      A
 Frequencies --   1041.0525              1099.6938              1102.1349
 Red. masses --      4.7213                 2.8026                 1.9548
 Frc consts  --      3.0148                 1.9969                 1.3990
 IR Inten    --     30.0206                 4.8593                 0.0574

                     25                     26                     27
                      A                      A                      A
 Frequencies --   1164.0707              1166.8404              1184.4043
 Red. masses --      1.3408                 1.9877                 1.3190
 Frc consts  --      1.0705                 1.5945                 1.0901
 IR Inten    --     26.3710                73.8806                12.2012

                     28                     29                     30
                      A                      A                      A
 Frequencies --   1198.7855              1248.1113              1269.2868
 Red. masses --      1.2991                 1.8835                 1.3884
 Frc consts  --      1.1000                 1.7287                 1.3179
 IR Inten    --      4.5529                54.8299                 2.9445

                     31                     32                     33
                      A                      A                      A
 Frequencies --   1271.8143              1312.7637              1337.8063
 Red. masses --      1.3126                 1.4650                 1.3189
 Frc consts  --      1.2509                 1.4876                 1.3908
 IR Inten    --      1.8658                 2.8632                 5.5431

                     34                     35                     36
                      A                      A                      A
 Frequencies --   1374.4660              1411.6660              1468.7269
 Red. masses --      1.3998                 1.4438                 1.0848
 Frc consts  --      1.5580                 1.6952                 1.3788
 IR Inten    --      7.2062                32.7360                 6.0893

                     37                     38                     39
                      A                      A                      A
 Frequencies --   1484.4895              1491.8124              1508.6834
 Red. masses --      1.1057                 1.0944                 1.0679
 Frc consts  --      1.4357                 1.4351                 1.4322
 IR Inten    --      4.9373                 3.4119                 9.2001

                     40                     41                     42
                      A                      A                      A
 Frequencies --   1517.2569              2236.2349              2983.7828
 Red. masses --      1.1184                 5.9383                 1.0517
 Frc consts  --      1.5170                17.4965                 5.5168
 IR Inten    --      0.9658                 2.1952                18.4829

                     43                     44                     45
                      A                      A                      A
 Frequencies --   2991.3296              3018.6354              3027.3474
 Red. masses --      1.0707                 1.0783                 1.0591
 Frc consts  --      5.6447                 5.7889                 5.7189
 IR Inten    --     55.5490                26.9979                30.0137

                     46                     47                     48
                      A                      A                      A
 Frequencies --   3030.6515              3045.2859              3062.8628
 Red. masses --      1.0619                 1.0993                 1.1018
 Frc consts  --      5.7465                 6.0068                 6.0896
 IR Inten    --     43.0298                36.5593                13.1200

                     49                     50                     51
                      A                      A                      A
 Frequencies --   3082.8270              3122.1291              3505.2795
 Red. masses --      1.1107                 1.0988                 1.1619
 Frc consts  --      6.2193                 6.3105                 8.4117
 IR Inten    --     39.4724                27.4717                66.6969

 - Thermochemistry -
 -------------------
 Temperature   298.150 Kelvin.  Pressure   1.00000 Atm.
 Atom     1 has atomic number  6 and mass  12.00000

 Molecular mass:   126.06808 amu.
 Principal axes and moments of inertia in atomic units:
                           1         2         3
     Eigenvalues --   880.796961306.742842068.74375
           X            0.99972  -0.02258   0.00714
           Y            0.02263   0.99973  -0.00611
           Z           -0.00700   0.00627   0.99996
 This molecule is an asymmetric top.
 Rotational symmetry number  1.
 Warning -- assumption of classical behavior for rotation
           may cause significant error
 Rotational temperatures (Kelvin)      0.09834     0.06628     0.04187
 Rotational constants (GHZ):           2.04899     1.38110     0.87239
 Zero-point vibrational energy     411051.1 (Joules/Mol)
                                   98.24357 (Kcal/Mol)
 Warning -- explicit consideration of  12 degrees of freedom as
           vibrations may cause significant error
 Vibrational temperatures:     67.40   111.84   143.52   211.75   272.17
          (Kelvin)            333.81   434.34   482.24   513.99   613.48
                              673.31   755.56   901.16   929.31  1058.74
                             1188.22  1297.77  1386.52  1429.58  1473.79
                             1493.58  1497.84  1582.21  1585.72  1674.84
                             1678.82  1704.09  1724.78  1795.75  1826.22
                             1829.85  1888.77  1924.80  1977.55  2031.07
                             2113.17  2135.85  2146.38  2170.66  2182.99
                             3217.44  4292.99  4303.85  4343.14  4355.67
                             4360.43  4381.48  4406.77  4435.49  4492.04
                             5043.31

 Zero-point correction=                           0.156561 (Hartree/Particle)
 Thermal correction to Energy=                    0.166282
 Thermal correction to Enthalpy=                  0.167226
 Thermal correction to Gibbs Free Energy=         0.121050
 Sum of electronic and zero-point Energies=           -422.959656
 Sum of electronic and thermal Energies=              -422.949936
 Sum of electronic and thermal Enthalpies=            -422.948991
 Sum of electronic and thermal Free Energies=         -422.995167

                     E (Thermal)             CV                S
                      KCal/Mol        Cal/Mol-Kelvin    Cal/Mol-Kelvin
 Total                  104.343             34.595             97.185
 Electronic               0.000              0.000              0.000
 Translational            0.889              2.981             40.409
 Rotational               0.889              2.981             29.256
 Vibrational            102.566             28.633             27.521
 Vibration     1          0.595              1.979              4.946
 Vibration     2          0.599              1.964              3.947
 Vibration     3          0.604              1.949              3.459
 Vibration     4          0.617              1.906              2.708
 Vibration     5          0.633              1.855              2.236
 Vibration     6          0.653              1.792              1.863
 Vibration     7          0.694              1.670              1.406
 Vibration     8          0.716              1.605              1.235
 Vibration     9          0.732              1.560              1.134
 Vibration    10          0.788              1.413              0.871
 Vibration    11          0.825              1.321              0.743
 Vibration    12          0.880              1.194              0.598

 Optimization completed.
    -- Stationary point found.
 Normal termination of Gaussian 09 at Tue Jan 28 13:43:40 2020.
