 Gaussian 09, Revision D.01,
 Gaussian 09:  ES64L-G09RevD.01 24-Apr-2013

 -----------------------------
 # b3lyp 6-31G(2df,p) opt Freq
 -----------------------------

 -----
 titel
 -----
 Symbolic Z-matrix:
 Charge =  0 Multiplicity = 1

 SCF Done:  E(RB3LYP) =  -423.123419764     A.U. after   12 cycles
 SCF Done:  E(RB3LYP) =  -423.123419963     A.U. after    7 cycles
 SCF Done:  E(RB3LYP) =  -423.123419991     A.U. after    7 cycles
 Optimization completed.
    -- Stationary point found.
 Normal termination of Gaussian 09 at Tue Jan 28 03:02:48 2020.

 ----------------------------------------------------------------------
 #N Geom=AllCheck Guess=TCheck SCRF=Check GenChk RB3LYP/6-31G(2df,p) Fr
 eq
 ----------------------------------------------------------------------

 Structure from the checkpoint file:  "/scratch/puck/g09_c44333ef-9d7f-4291-8f51-03199000fa2f/Gau-6213.chk"
 -----
 titel
 -----
 Charge =  0 Multiplicity = 1

                         Standard orientation:
 ---------------------------------------------------------------------
 Center     Atomic      Atomic             Coordinates (Angstroms)
 Number     Number       Type             X           Y           Z
 ---------------------------------------------------------------------
      1          8           0       -2.590229    0.961226   -0.308037
      2          6           0       -2.008345   -0.228766    0.184476
      3          6           0       -1.008991   -0.935584   -0.780029
      4          6           0        0.153289   -0.336821    0.045556
      5          6           0       -0.836413   -0.034280    1.191597
      6          8           0        1.303776   -1.178323    0.308681
      7          6           0        2.155571   -0.253356   -0.371429
      8          6           0        2.184870    1.063101    0.336632
      9          6           0        1.037558    0.731348   -0.599338
     10          1           0       -1.886070    1.563578   -0.570018
     11          1           0       -2.845758   -0.835679    0.532648
     12          1           0       -1.029712   -2.023956   -0.677667
     13          1           0       -1.076538   -0.669115   -1.838310
     14          1           0       -0.804846   -0.826573    1.944625
     15          1           0       -0.766204    0.937730    1.688004
     16          1           0        2.930148   -0.650576   -1.016260
     17          1           0        2.031094    1.093925    1.411776
     18          1           0        2.888075    1.793292   -0.052569
     19          1           0        0.786195    1.320297   -1.472169
 ---------------------------------------------------------------------

 SCF Done:  E(RB3LYP) =  -423.123419991     A.U. after    1 cycles

 The electronic state is 1-A.
 Alpha  occ. eigenvalues --  -19.13894 -19.13708 -10.24478 -10.24301 -10.23376
 Alpha  occ. eigenvalues --  -10.19970 -10.19444 -10.17897 -10.17889  -1.05493
 Alpha  occ. eigenvalues --   -1.02002  -0.83576  -0.83003  -0.67174  -0.66679
 Alpha  occ. eigenvalues --   -0.61040  -0.59203  -0.52783  -0.51408  -0.50249
 Alpha  occ. eigenvalues --   -0.48921  -0.45417  -0.43295  -0.40792  -0.40015
 Alpha  occ. eigenvalues --   -0.38709  -0.37550  -0.35705  -0.33841  -0.32677
 Alpha  occ. eigenvalues --   -0.29704  -0.27130  -0.26020  -0.23537
 Alpha virt. eigenvalues --    0.05398   0.07903   0.10620   0.10889   0.11966
 Alpha virt. eigenvalues --    0.12819   0.13874   0.14541   0.15611   0.17266
 Alpha virt. eigenvalues --    0.17719   0.18914   0.20044   0.20577   0.22124

 Mulliken charges:
               1
     1  O   -0.434270
     2  C    0.139190
     3  C   -0.329500
     4  C    0.447815
     5  C   -0.326546
     6  O   -0.326995
     7  C    0.094530
     8  C   -0.305899
     9  C   -0.208924
    10  H    0.280635
    11  H    0.090904
    12  H    0.116644
    13  H    0.102528
    14  H    0.118528
    15  H    0.101544
    16  H    0.106382
    17  H    0.119414
    18  H    0.115886
    19  H    0.098134
 Sum of Mulliken charges =   0.00000

 Dipole moment (field-independent basis, Debye):
    X=              1.2956    Y=              1.0176    Z=             -0.7272  Tot=              1.8007
 Quadrupole moment (field-independent basis, Debye-Ang):
   XX=            -57.7272   YY=            -52.8505   ZZ=            -51.7277
   XY=              5.1846   XZ=             -2.9250   YZ=             -0.3993

  Exact polarizability:  86.464   4.988  70.380  -0.930   0.908  67.455
 Approx polarizability: 114.322   1.404 109.459   0.666  -1.362 100.892

                      1                      2                      3
                      A                      A                      A
 Frequencies --     60.6466               159.6754               199.0918
 Red. masses --      4.1960                 2.9324                 2.4725
 Frc consts  --      0.0091                 0.0441                 0.0577
 IR Inten    --      1.5984                 0.1700                 1.4979

                      4                      5                      6
                      A                      A                      A
 Frequencies --    267.0299               305.8780               378.4844
 Red. masses --      1.1698                 3.6541                 2.3408
 Frc consts  --      0.0491                 0.2014                 0.1976
 IR Inten    --     77.9164                 7.1849                 0.4104

                      7                      8                      9
                      A                      A                      A
 Frequencies --    402.2398               463.3786               478.7320
 Red. masses --      2.5718                 2.9493                 2.3756
 Frc consts  --      0.2452                 0.3731                 0.3208
 IR Inten    --     11.4706                 1.1391                 0.9036

                     10                     11                     12
                      A                      A                      A
 Frequencies --    528.3668               752.3419               786.8419
 Red. masses --      3.1072                 1.6621                 2.3641
 Frc consts  --      0.5111                 0.5543                 0.8623
 IR Inten    --      2.5307                 4.7335                11.3555

                     13                     14                     15
                      A                      A                      A
 Frequencies --    795.5201               810.3411               831.3204
 Red. masses --      1.7454                 2.4101                 2.5856
 Frc consts  --      0.6508                 0.9324                 1.0528
 IR Inten    --      1.0205                 9.8282                16.0367

                     16                     17                     18
                      A                      A                      A
 Frequencies --    892.5905               922.0228               940.8079
 Red. masses --      2.6778                 3.3432                 2.3035
 Frc consts  --      1.2570                 1.6745                 1.2012
 IR Inten    --      3.8475                13.7715                 9.2311

                     19                     20                     21
                      A                      A                      A
 Frequencies --    964.1123               971.7496               991.7877
 Red. masses --      2.2039                 1.6525                 1.8559
 Frc consts  --      1.2070                 0.9194                 1.0756
 IR Inten    --     12.9959                20.8392                14.5571

                     22                     23                     24
                      A                      A                      A
 Frequencies --   1008.5028              1045.9727              1053.0929
 Red. masses --      2.2894                 1.4807                 1.4130
 Frc consts  --      1.3719                 0.9545                 0.9233
 IR Inten    --     21.3183                27.5434                18.5259

                     25                     26                     27
                      A                      A                      A
 Frequencies --   1064.3670              1084.0610              1104.5368
 Red. masses --      1.2925                 1.7897                 2.1513
 Frc consts  --      0.8627                 1.2392                 1.5463
 IR Inten    --     10.7371                28.5911                85.9551

                     28                     29                     30
                      A                      A                      A
 Frequencies --   1123.1233              1165.7731              1194.0093
 Red. masses --      2.3946                 2.1159                 1.4977
 Frc consts  --      1.7796                 1.6943                 1.2580
 IR Inten    --     35.8972                32.3710                 3.0188

                     31                     32                     33
                      A                      A                      A
 Frequencies --   1202.4087              1229.6968              1265.4458
 Red. masses --      1.7044                 1.8061                 1.5375
 Frc consts  --      1.4519                 1.6091                 1.4506
 IR Inten    --     11.0907                 3.2390                 4.6116

                     34                     35                     36
                      A                      A                      A
 Frequencies --   1276.7308              1314.6926              1334.3923
 Red. masses --      1.8117                 1.7545                 2.0558
 Frc consts  --      1.7400                 1.7867                 2.1567
 IR Inten    --     13.6413                14.1854                18.4447

                     37                     38                     39
                      A                      A                      A
 Frequencies --   1352.2754              1435.1286              1448.5716
 Red. masses --      2.2196                 1.2066                 1.0903
 Frc consts  --      2.3914                 1.4642                 1.3480
 IR Inten    --      9.6285                55.8229                 7.0600

                     40                     41                     42
                      A                      A                      A
 Frequencies --   1470.6863              1474.9188              3054.6715
 Red. masses --      1.2389                 1.1700                 1.0575
 Frc consts  --      1.5787                 1.4995                 5.8137
 IR Inten    --      3.8432                 6.7099                31.7323

                     43                     44                     45
                      A                      A                      A
 Frequencies --   3059.8544              3097.0124              3115.6397
 Red. masses --      1.0596                 1.0906                 1.0536
 Frc consts  --      5.8451                 6.1633                 6.0256
 IR Inten    --      1.0528                33.3007                11.4381

                     46                     47                     48
                      A                      A                      A
 Frequencies --   3115.8929              3119.1842              3181.7449
 Red. masses --      1.1071                 1.1063                 1.0886
 Frc consts  --      6.3330                 6.3418                 6.4929
 IR Inten    --     10.3659                21.9481                21.5027

                     49                     50                     51
                      A                      A                      A
 Frequencies --   3192.5378              3209.5678              3809.3998
 Red. masses --      1.1029                 1.1131                 1.0660
 Frc consts  --      6.6231                 6.7558                 9.1140
 IR Inten    --      7.1397                13.5947                 9.1220

 - Thermochemistry -
 -------------------
 Temperature   298.150 Kelvin.  Pressure   1.00000 Atm.
 Atom     1 has atomic number  8 and mass  15.99491

 Molecular mass:   126.06808 amu.
 Principal axes and moments of inertia in atomic units:
                           1         2         3
     Eigenvalues --   490.803441494.782401617.92615
           X            0.99951   0.03096  -0.00534
           Y           -0.03073   0.99877   0.03880
           Z            0.00653  -0.03861   0.99923
 This molecule is an asymmetric top.
 Rotational symmetry number  1.
 Warning -- assumption of classical behavior for rotation
           may cause significant error
 Rotational temperatures (Kelvin)      0.17647     0.05794     0.05353
 Rotational constants (GHZ):           3.67712     1.20736     1.11547
 Zero-point vibrational energy     415743.3 (Joules/Mol)
                                   99.36503 (Kcal/Mol)
 Warning -- explicit consideration of  10 degrees of freedom as
           vibrations may cause significant error
 Vibrational temperatures:     87.26   229.74   286.45   384.20   440.09
          (Kelvin)            544.55   578.73   666.70   688.79   760.20
                             1082.45  1132.09  1144.57  1165.90  1196.08
                             1284.24  1326.58  1353.61  1387.14  1398.13
                             1426.96  1451.01  1504.92  1515.16  1531.38
                             1559.72  1589.18  1615.92  1677.29  1717.91
                             1730.00  1769.26  1820.69  1836.93  1891.55
                             1919.89  1945.62  2064.83  2084.17  2115.99
                             2122.08  4394.99  4402.44  4455.90  4482.70
                             4483.07  4487.80  4577.82  4593.34  4617.85
                             5480.87

 Zero-point correction=                           0.158348 (Hartree/Particle)
 Thermal correction to Energy=                    0.166412
 Thermal correction to Enthalpy=                  0.167356
 Thermal correction to Gibbs Free Energy=         0.125648
 Sum of electronic and zero-point Energies=           -422.965072
 Sum of electronic and thermal Energies=              -422.957008
 Sum of electronic and thermal Enthalpies=            -422.956064
 Sum of electronic and thermal Free Energies=         -422.997772

                     E (Thermal)             CV                S
                      KCal/Mol        Cal/Mol-Kelvin    Cal/Mol-Kelvin
 Total                  104.425             31.862             87.782
 Electronic               0.000              0.000              0.000
 Translational            0.889              2.981             40.409
 Rotational               0.889              2.981             28.564
 Vibrational            102.647             25.900             18.810
 Vibration     1          0.597              1.973              4.436
 Vibration     2          0.622              1.892              2.554
 Vibration     3          0.637              1.841              2.141
 Vibration     4          0.672              1.734              1.615
 Vibration     5          0.696              1.663              1.385
 Vibration     6          0.749              1.516              1.045
 Vibration     7          0.768              1.465              0.954
 Vibration     8          0.821              1.331              0.756
 Vibration     9          0.835              1.297              0.713
 Vibration    10          0.883              1.187              0.591

 Normal termination of Gaussian 09 at Tue Jan 28 03:45:34 2020.
