 Gaussian 09, Revision D.01,
 Gaussian 09:  ES64L-G09RevD.01 24-Apr-2013

 -----------------------------
 # b3lyp 6-31G(2df,p) opt Freq
 -----------------------------

 -----
 titel
 -----
 Symbolic Z-matrix:
 Charge =  0 Multiplicity = 1

 SCF Done:  E(RB3LYP) =  -423.224928131     A.U. after   14 cycles
 Optimization completed.
    -- Stationary point found.
 Normal termination of Gaussian 09 at Tue Jan 28 09:58:20 2020.

 ----------------------------------------------------------------------
 #N Geom=AllCheck Guess=TCheck SCRF=Check GenChk RB3LYP/6-31G(2df,p) Fr
 eq
 ----------------------------------------------------------------------

 Structure from the checkpoint file:  "/scratch/puck/g09_75472a7b-715c-4cb1-8237-2aa3edd13be9/Gau-64511.chk"
 -----
 titel
 -----
 Charge =  0 Multiplicity = 1

                         Standard orientation:
 ---------------------------------------------------------------------
 Center     Atomic      Atomic             Coordinates (Angstroms)
 Number     Number       Type             X           Y           Z
 ---------------------------------------------------------------------
      1          6           0        2.951974   -0.810233    0.189196
      2          6           0        1.954943   -0.036072   -0.682123
      3          6           0        0.606685    0.157142   -0.022385
      4          6           0        0.389399    1.313068    0.944864
      5          6           0       -0.320141    1.289792   -0.377969
      6          8           0       -1.663013    0.846511   -0.361635
      7          6           0       -1.732337   -0.478215   -0.024520
      8          8           0       -2.773145   -1.052440    0.090035
      9          6           0       -0.316125   -1.032157    0.171321
     10          1           0        3.124114   -0.296836    1.140849
     11          1           0        2.585211   -1.816700    0.416391
     12          1           0        3.915982   -0.914852   -0.317289
     13          1           0        2.374613    0.946636   -0.930852
     14          1           0        1.815772   -0.559670   -1.637388
     15          1           0       -0.208759    1.159343    1.837823
     16          1           0        1.207334    2.016483    1.060613
     17          1           0       -0.132509    2.015881   -1.159161
     18          1           0       -0.255302   -1.512246    1.151905
     19          1           0       -0.143567   -1.810549   -0.580406
 ---------------------------------------------------------------------

 SCF Done:  E(RB3LYP) =  -423.224928131     A.U. after    1 cycles

 The electronic state is 1-A.
 Alpha  occ. eigenvalues --  -19.18391 -19.12325 -10.30546 -10.25233 -10.21494
 Alpha  occ. eigenvalues --  -10.20735 -10.20133 -10.20056 -10.18618  -1.10350
 Alpha  occ. eigenvalues --   -1.02519  -0.87945  -0.77393  -0.75532  -0.65014
 Alpha  occ. eigenvalues --   -0.64652  -0.57949  -0.55193  -0.52184  -0.48147
 Alpha  occ. eigenvalues --   -0.46821  -0.45467  -0.44052  -0.42746  -0.41375
 Alpha  occ. eigenvalues --   -0.40568  -0.38882  -0.37658  -0.36171  -0.35111
 Alpha  occ. eigenvalues --   -0.33751  -0.29191  -0.26897  -0.26779
 Alpha virt. eigenvalues --    0.01058   0.07508   0.09390   0.10297   0.11182
 Alpha virt. eigenvalues --    0.11732   0.13760   0.15105   0.15303   0.16324
 Alpha virt. eigenvalues --    0.17552   0.17829   0.18958   0.20052   0.20916

 Mulliken charges:
               1
     1  C   -0.376160
     2  C   -0.280983
     3  C    0.329599
     4  C   -0.358670
     5  C    0.044083
     6  O   -0.218460
     7  C    0.427634
     8  O   -0.327065
     9  C   -0.449735
    10  H    0.121664
    11  H    0.122314
    12  H    0.117679
    13  H    0.099308
    14  H    0.102905
    15  H    0.126076
    16  H    0.121733
    17  H    0.114937
    18  H    0.143851
    19  H    0.139292
 Sum of Mulliken charges =   0.00000

 Dipole moment (field-independent basis, Debye):
    X=              4.3171    Y=              0.7553    Z=             -0.0517  Tot=              4.3830
 Quadrupole moment (field-independent basis, Debye-Ang):
   XX=            -64.9069   YY=            -52.5954   ZZ=            -51.2605
   XY=             -1.7929   XZ=             -0.7197   YZ=              0.1680

  Exact polarizability:  86.370   3.760  75.120  -0.634   0.160  63.198
 Approx polarizability: 115.810   8.647 114.514  -0.406  -0.935  97.359

                      1                      2                      3
                      A                      A                      A
 Frequencies --     86.5724               104.7573               162.3193
 Red. masses --      2.6905                 3.2295                 3.6777
 Frc consts  --      0.0119                 0.0209                 0.0571
 IR Inten    --      0.9188                 2.7450                 0.4639

                      4                      5                      6
                      A                      A                      A
 Frequencies --    220.7833               288.6905               342.6839
 Red. masses --      1.1973                 2.4144                 2.1256
 Frc consts  --      0.0344                 0.1186                 0.1471
 IR Inten    --      0.1789                 1.2241                 1.1183

                      7                      8                      9
                      A                      A                      A
 Frequencies --    376.2028               450.0198               484.0339
 Red. masses --      2.8150                 2.6242                 4.7842
 Frc consts  --      0.2347                 0.3131                 0.6604
 IR Inten    --      1.9872                 0.6670                 2.0186

                     10                     11                     12
                      A                      A                      A
 Frequencies --    560.1255               617.8761               686.7646
 Red. masses --      2.6365                 3.3286                 4.2601
 Frc consts  --      0.4874                 0.7487                 1.1838
 IR Inten    --      3.6880                 3.4540                 2.0740

                     13                     14                     15
                      A                      A                      A
 Frequencies --    738.5958               791.4589               823.6685
 Red. masses --      2.9928                 1.2166                 3.6347
 Frc consts  --      0.9619                 0.4490                 1.4528
 IR Inten    --      7.0590                 1.8609                15.3216

                     16                     17                     18
                      A                      A                      A
 Frequencies --    876.9838               908.4490               923.8591
 Red. masses --      2.2071                 2.6235                 1.5020
 Frc consts  --      1.0001                 1.2756                 0.7553
 IR Inten    --      9.8465                12.7900                 0.6761

                     19                     20                     21
                      A                      A                      A
 Frequencies --    968.8749              1004.4854              1024.9740
 Red. masses --      2.4223                 1.9227                 2.3565
 Frc consts  --      1.3397                 1.1430                 1.4586
 IR Inten    --     20.5869                 6.5352                 5.7702

                     22                     23                     24
                      A                      A                      A
 Frequencies --   1036.7739              1062.5572              1091.1266
 Red. masses --      1.4522                 1.5348                 1.9122
 Frc consts  --      0.9197                 1.0209                 1.3413
 IR Inten    --     22.3578                 2.6853                11.5841

                     25                     26                     27
                      A                      A                      A
 Frequencies --   1122.9906              1135.1534              1159.4617
 Red. masses --      1.8702                 2.6826                 3.0518
 Frc consts  --      1.3896                 2.0366                 2.4172
 IR Inten    --      1.5585                56.0298               138.7414

                     28                     29                     30
                      A                      A                      A
 Frequencies --   1183.2038              1241.6733              1263.9698
 Red. masses --      1.4823                 1.5603                 1.6722
 Frc consts  --      1.2226                 1.4174                 1.5740
 IR Inten    --     29.2428                 0.3889                 4.8328

                     31                     32                     33
                      A                      A                      A
 Frequencies --   1309.2549              1350.7799              1368.3344
 Red. masses --      1.5965                 1.9480                 1.4690
 Frc consts  --      1.6124                 2.0941                 1.6205
 IR Inten    --     32.1274                 0.8323                 1.5214

                     34                     35                     36
                      A                      A                      A
 Frequencies --   1405.7085              1412.8661              1459.2466
 Red. masses --      1.8401                 1.2587                 1.1073
 Frc consts  --      2.1423                 1.4804                 1.3892
 IR Inten    --     11.4188                 0.7702                 3.7890

                     37                     38                     39
                      A                      A                      A
 Frequencies --   1477.3275              1488.4593              1499.0509
 Red. masses --      1.2117                 1.2038                 1.0403
 Frc consts  --      1.5581                 1.5714                 1.3773
 IR Inten    --      8.8802                 3.7355                 5.0133

                     40                     41                     42
                      A                      A                      A
 Frequencies --   1506.9999              1888.4225              3015.3849
 Red. masses --      1.0718                12.9712                 1.0605
 Frc consts  --      1.4341                27.2538                 5.6813
 IR Inten    --      2.6085               401.0520                26.6853

                     43                     44                     45
                      A                      A                      A
 Frequencies --   3036.2565              3050.3819              3053.7242
 Red. masses --      1.0351                 1.0997                 1.0638
 Frc consts  --      5.6224                 6.0287                 5.8449
 IR Inten    --     21.7200                10.5761                14.4950

                     46                     47                     48
                      A                      A                      A
 Frequencies --   3098.3869              3105.0193              3109.9522
 Red. masses --      1.1003                 1.1019                 1.1016
 Frc consts  --      6.2236                 6.2594                 6.2773
 IR Inten    --      4.4790                32.7978                31.3506

                     49                     50                     51
                      A                      A                      A
 Frequencies --   3125.3788              3192.3900              3216.1923
 Red. masses --      1.0545                 1.0934                 1.1162
 Frc consts  --      6.0685                 6.5654                 6.8024
 IR Inten    --      6.4494                 9.3286                 7.2447

 - Thermochemistry -
 -------------------
 Temperature   298.150 Kelvin.  Pressure   1.00000 Atm.
 Atom     1 has atomic number  6 and mass  12.00000

 Molecular mass:   126.06808 amu.
 Principal axes and moments of inertia in atomic units:
                           1         2         3
     Eigenvalues --   527.895881561.498371848.36730
           X            0.99982  -0.01878  -0.00232
           Y            0.01879   0.99981   0.00588
           Z            0.00221  -0.00592   0.99998
 This molecule is an asymmetric top.
 Rotational symmetry number  1.
 Warning -- assumption of classical behavior for rotation
           may cause significant error
 Rotational temperatures (Kelvin)      0.16407     0.05547     0.04686
 Rotational constants (GHZ):           3.41874     1.15578     0.97640
 Zero-point vibrational energy     418146.3 (Joules/Mol)
                                   99.93937 (Kcal/Mol)
 Warning -- explicit consideration of  11 degrees of freedom as
           vibrations may cause significant error
 Vibrational temperatures:    124.56   150.72   233.54   317.66   415.36
          (Kelvin)            493.05   541.27   647.48   696.42   805.89
                              888.98   988.10  1062.67  1138.73  1185.07
                             1261.78  1307.05  1329.23  1393.99  1445.23
                             1474.71  1491.68  1528.78  1569.89  1615.73
                             1633.23  1668.20  1702.36  1786.49  1818.57
                             1883.72  1943.47  1968.73  2022.50  2032.80
                             2099.53  2125.54  2141.56  2156.80  2168.23
                             2717.02  4338.46  4368.49  4388.81  4393.62
                             4457.88  4467.42  4474.52  4496.72  4593.13
                             4627.38

 Zero-point correction=                           0.159264 (Hartree/Particle)
 Thermal correction to Energy=                    0.167610
 Thermal correction to Enthalpy=                  0.168555
 Thermal correction to Gibbs Free Energy=         0.126119
 Sum of electronic and zero-point Energies=           -423.065665
 Sum of electronic and thermal Energies=              -423.057318
 Sum of electronic and thermal Enthalpies=            -423.056374
 Sum of electronic and thermal Free Energies=         -423.098809

                     E (Thermal)             CV                S
                      KCal/Mol        Cal/Mol-Kelvin    Cal/Mol-Kelvin
 Total                  105.177             31.893             89.313
 Electronic               0.000              0.000              0.000
 Translational            0.889              2.981             40.409
 Rotational               0.889              2.981             28.812
 Vibrational            103.400             25.931             20.092
 Vibration     1          0.601              1.959              3.736
 Vibration     2          0.605              1.945              3.364
 Vibration     3          0.622              1.889              2.523
 Vibration     4          0.647              1.809              1.953
 Vibration     5          0.685              1.695              1.482
 Vibration     6          0.722              1.590              1.200
 Vibration     7          0.747              1.521              1.054
 Vibration     8          0.809              1.361              0.796
 Vibration     9          0.840              1.285              0.699
 Vibration    10          0.916              1.118              0.524
 Vibration    11          0.978              0.994              0.420

 Optimization completed.
    -- Stationary point found.
 Normal termination of Gaussian 09 at Tue Jan 28 11:44:58 2020.
