 Gaussian 09, Revision D.01,
 Gaussian 09:  ES64L-G09RevD.01 24-Apr-2013

 -----------------------------
 # b3lyp 6-31G(2df,p) opt Freq
 -----------------------------

 -----
 titel
 -----
 Symbolic Z-matrix:
 Charge =  0 Multiplicity = 1

 SCF Done:  E(RB3LYP) =  -423.154093805     A.U. after   14 cycles
 Optimization completed.
    -- Stationary point found.
 Normal termination of Gaussian 09 at Mon Jan 27 17:22:51 2020.

 ----------------------------------------------------------------------
 #N Geom=AllCheck Guess=TCheck SCRF=Check GenChk RB3LYP/6-31G(2df,p) Fr
 eq
 ----------------------------------------------------------------------

 Structure from the checkpoint file:  "/scratch/puck/g09_4c0fbec1-f376-4e19-bbcf-5786dd68cd38/Gau-179424.chk"
 -----
 titel
 -----
 Charge =  0 Multiplicity = 1

                         Standard orientation:
 ---------------------------------------------------------------------
 Center     Atomic      Atomic             Coordinates (Angstroms)
 Number     Number       Type             X           Y           Z
 ---------------------------------------------------------------------
      1          6           0        2.382866   -1.203003   -0.572498
      2          6           0        1.504784   -0.183404    0.074365
      3          6           0        0.757516   -0.319156    1.367542
      4          6           0        0.007643    0.079171    0.101567
      5          6           0       -1.174670   -0.665117   -0.459451
      6          6           0       -2.463079   -0.294615    0.254332
      7          8           0       -3.467415    0.079520   -0.292556
      8          6           0        0.393438    1.518413   -0.230202
      9          8           0        1.807968    1.199310   -0.159913
     10          1           0        2.453912   -1.032556   -1.651019
     11          1           0        3.394119   -1.155095   -0.153054
     12          1           0        1.996134   -2.211510   -0.399496
     13          1           0        0.574601   -1.337474    1.698825
     14          1           0        0.924150    0.400291    2.165155
     15          1           0       -1.307508   -0.480083   -1.530288
     16          1           0       -1.023250   -1.745056   -0.318676
     17          1           0       -2.409881   -0.387467    1.363600
     18          1           0        0.116449    1.820048   -1.247523
     19          1           0        0.105870    2.304525    0.478299
 ---------------------------------------------------------------------

 SCF Done:  E(RB3LYP) =  -423.154093805     A.U. after    1 cycles

 The electronic state is 1-A.
 Alpha  occ. eigenvalues --  -19.14348 -19.14051 -10.27542 -10.25094 -10.23866
 Alpha  occ. eigenvalues --  -10.21279 -10.20615 -10.19591 -10.19171  -1.05599
 Alpha  occ. eigenvalues --   -1.05031  -0.85028  -0.77040  -0.73797  -0.68210
 Alpha  occ. eigenvalues --   -0.60762  -0.57926  -0.51946  -0.50562  -0.49738
 Alpha  occ. eigenvalues --   -0.47060  -0.46006  -0.43764  -0.42746  -0.41822
 Alpha  occ. eigenvalues --   -0.40256  -0.39647  -0.38761  -0.37772  -0.33704
 Alpha  occ. eigenvalues --   -0.31718  -0.28028  -0.25943  -0.23224
 Alpha virt. eigenvalues --   -0.02629   0.07701   0.08097   0.10893   0.11072
 Alpha virt. eigenvalues --    0.11974   0.12982   0.13892   0.15259   0.15572
 Alpha virt. eigenvalues --    0.16693   0.17060   0.17687   0.19825   0.21441

 Mulliken charges:
               1
     1  C   -0.485705
     2  C    0.413233
     3  C   -0.381256
     4  C    0.200103
     5  C   -0.394517
     6  C    0.167499
     7  O   -0.236078
     8  C   -0.127850
     9  O   -0.320729
    10  H    0.131290
    11  H    0.138162
    12  H    0.123063
    13  H    0.112769
    14  H    0.116401
    15  H    0.123644
    16  H    0.121596
    17  H    0.078903
    18  H    0.111925
    19  H    0.107546
 Sum of Mulliken charges =   0.00000

 Dipole moment (field-independent basis, Debye):
    X=              1.3600    Y=             -1.8501    Z=              0.6588  Tot=              2.3889
 Quadrupole moment (field-independent basis, Debye-Ang):
   XX=            -68.0054   YY=            -51.0589   ZZ=            -51.7864
   XY=             -2.0031   XZ=             -2.2281   YZ=              0.0368

  Exact polarizability:  89.390  -6.090  70.738   0.890  -2.031  71.487
 Approx polarizability: 125.133  -7.849 103.723   5.264  -6.019 107.982

                      1                      2                      3
                      A                      A                      A
 Frequencies --     49.7712                66.2549               127.9028
 Red. masses --      5.5753                 3.3122                 2.8581
 Frc consts  --      0.0081                 0.0086                 0.0275
 IR Inten    --      4.7822                 4.3419                 1.1741

                      4                      5                      6
                      A                      A                      A
 Frequencies --    193.9893               220.1454               259.2275
 Red. masses --      1.1139                 2.3544                 2.5735
 Frc consts  --      0.0247                 0.0672                 0.1019
 IR Inten    --      0.2448                 2.6608                 0.5388

                      7                      8                      9
                      A                      A                      A
 Frequencies --    323.8468               372.4362               418.4750
 Red. masses --      2.3763                 2.7634                 2.7164
 Frc consts  --      0.1468                 0.2258                 0.2803
 IR Inten    --      1.8092                 2.2447                 3.1144

                     10                     11                     12
                      A                      A                      A
 Frequencies --    468.3467               499.7787               613.2717
 Red. masses --      2.6025                 2.6686                 2.8650
 Frc consts  --      0.3363                 0.3927                 0.6349
 IR Inten    --      3.1240                16.6726                 1.7676

                     13                     14                     15
                      A                      A                      A
 Frequencies --    725.8367               758.6112               822.2779
 Red. masses --      2.4477                 3.2126                 2.2678
 Frc consts  --      0.7598                 1.0893                 0.9034
 IR Inten    --      1.1523                 3.9562                10.3003

                     16                     17                     18
                      A                      A                      A
 Frequencies --    847.4484               917.6872               946.7250
 Red. masses --      3.3275                 2.2688                 1.2527
 Frc consts  --      1.4080                 1.1257                 0.6615
 IR Inten    --      4.1268                19.9664                 2.0521

                     19                     20                     21
                      A                      A                      A
 Frequencies --    967.6180               983.2273              1001.2998
 Red. masses --      1.4632                 3.5352                 2.2808
 Frc consts  --      0.8072                 2.0136                 1.3473
 IR Inten    --      6.5118                51.4186                12.4764

                     22                     23                     24
                      A                      A                      A
 Frequencies --   1046.2920              1054.9853              1078.0702
 Red. masses --      1.5739                 1.8149                 2.2697
 Frc consts  --      1.0152                 1.1901                 1.5542
 IR Inten    --      2.9250                12.2623                16.0067

                     25                     26                     27
                      A                      A                      A
 Frequencies --   1109.7322              1148.8528              1159.4820
 Red. masses --      1.7657                 1.5768                 1.4490
 Frc consts  --      1.2812                 1.2262                 1.1478
 IR Inten    --     18.0530                 5.4180                 6.0436

                     28                     29                     30
                      A                      A                      A
 Frequencies --   1209.4847              1252.5584              1279.4085
 Red. masses --      2.2389                 2.1319                 1.5391
 Frc consts  --      1.9297                 1.9706                 1.4844
 IR Inten    --     42.8782                11.3957                 2.4843

                     31                     32                     33
                      A                      A                      A
 Frequencies --   1311.1874              1350.4152              1399.0385
 Red. masses --      1.7455                 1.9541                 1.4410
 Frc consts  --      1.7681                 2.0995                 1.6618
 IR Inten    --      4.7397                 6.5240                 2.0366

                     34                     35                     36
                      A                      A                      A
 Frequencies --   1423.8243              1427.9378              1452.7149
 Red. masses --      1.1936                 1.4801                 1.1224
 Frc consts  --      1.4257                 1.7781                 1.3956
 IR Inten    --      6.2265                 4.8860                 9.4346

                     37                     38                     39
                      A                      A                      A
 Frequencies --   1473.4151              1489.4336              1505.4216
 Red. masses --      1.0502                 1.2692                 1.3060
 Frc consts  --      1.3433                 1.6589                 1.7439
 IR Inten    --      2.9362                 6.0469                 5.5269

                     40                     41                     42
                      A                      A                      A
 Frequencies --   1522.7818              1834.9555              2869.5473
 Red. masses --      1.2925                10.0787                 1.0825
 Frc consts  --      1.7659                19.9943                 5.2516
 IR Inten    --      1.2851               196.4375                91.4490

                     43                     44                     45
                      A                      A                      A
 Frequencies --   3011.7465              3019.0595              3034.6309
 Red. masses --      1.0631                 1.0549                 1.0356
 Frc consts  --      5.6816                 5.6652                 5.6192
 IR Inten    --     13.7932                58.7403                20.2420

                     46                     47                     48
                      A                      A                      A
 Frequencies --   3067.5217              3084.9339              3099.2800
 Red. masses --      1.1112                 1.0974                 1.0999
 Frc consts  --      6.1607                 6.1531                 6.2250
 IR Inten    --     31.0649                15.2625                15.3993

                     49                     50                     51
                      A                      A                      A
 Frequencies --   3108.9400              3116.9301              3200.1805
 Red. masses --      1.0552                 1.1006                 1.1160
 Frc consts  --      6.0092                 6.2998                 6.7340
 IR Inten    --      7.2396                18.3074                 8.4538

 - Thermochemistry -
 -------------------
 Temperature   298.150 Kelvin.  Pressure   1.00000 Atm.
 Atom     1 has atomic number  6 and mass  12.00000

 Molecular mass:   126.06808 amu.
 Principal axes and moments of inertia in atomic units:
                           1         2         3
     Eigenvalues --   522.596771851.543722024.60696
           X            0.99976  -0.02007  -0.00845
           Y            0.02024   0.99958   0.02051
           Z            0.00804  -0.02068   0.99975
 This molecule is an asymmetric top.
 Rotational symmetry number  1.
 Warning -- assumption of classical behavior for rotation
           may cause significant error
 Rotational temperatures (Kelvin)      0.16574     0.04678     0.04278
 Rotational constants (GHZ):           3.45341     0.97472     0.89140
 Zero-point vibrational energy     411078.4 (Joules/Mol)
                                   98.25009 (Kcal/Mol)
 Warning -- explicit consideration of  12 degrees of freedom as
           vibrations may cause significant error
 Vibrational temperatures:     71.61    95.33   184.02   279.11   316.74
          (Kelvin)            372.97   465.94   535.85   602.09   673.85
                              719.07   882.36  1044.32  1091.47  1183.07
                             1219.29  1320.35  1362.12  1392.18  1414.64
                             1440.65  1505.38  1517.89  1551.10  1596.66
                             1652.94  1668.23  1740.18  1802.15  1840.78
                             1886.50  1942.94  2012.90  2048.56  2054.48
                             2090.13  2119.91  2142.96  2165.96  2190.94
                             2640.09  4128.63  4333.23  4343.75  4366.15
                             4413.47  4438.53  4459.17  4473.07  4484.56
                             4604.34

 Zero-point correction=                           0.156571 (Hartree/Particle)
 Thermal correction to Energy=                    0.165750
 Thermal correction to Enthalpy=                  0.166694
 Thermal correction to Gibbs Free Energy=         0.121789
 Sum of electronic and zero-point Energies=           -422.997522
 Sum of electronic and thermal Energies=              -422.988344
 Sum of electronic and thermal Enthalpies=            -422.987400
 Sum of electronic and thermal Free Energies=         -423.032305

                     E (Thermal)             CV                S
                      KCal/Mol        Cal/Mol-Kelvin    Cal/Mol-Kelvin
 Total                  104.009             33.403             94.511
 Electronic               0.000              0.000              0.000
 Translational            0.889              2.981             40.409
 Rotational               0.889              2.981             29.062
 Vibrational            102.232             27.441             25.040
 Vibration     1          0.595              1.978              4.826
 Vibration     2          0.598              1.970              4.262
 Vibration     3          0.611              1.925              2.977
 Vibration     4          0.635              1.848              2.189
 Vibration     5          0.647              1.810              1.958
 Vibration     6          0.668              1.747              1.667
 Vibration     7          0.708              1.628              1.291
 Vibration     8          0.744              1.529              1.070
 Vibration     9          0.781              1.430              0.897
 Vibration    10          0.826              1.320              0.742
 Vibration    11          0.855              1.251              0.659
 Vibration    12          0.973              1.004              0.427

 Optimization completed.
    -- Stationary point found.
 Normal termination of Gaussian 09 at Mon Jan 27 18:06:06 2020.
