 Gaussian 09, Revision D.01,
 Gaussian 09:  ES64L-G09RevD.01 24-Apr-2013

 -----------------------------
 # b3lyp 6-31G(2df,p) opt Freq
 -----------------------------

 -----
 titel
 -----
 Symbolic Z-matrix:
 Charge =  0 Multiplicity = 1

 SCF Done:  E(RB3LYP) =  -423.153752247     A.U. after   14 cycles
 Optimization completed.
    -- Stationary point found.
 Normal termination of Gaussian 09 at Mon Jan 27 16:29:14 2020.

 ----------------------------------------------------------------------
 #N Geom=AllCheck Guess=TCheck SCRF=Check GenChk RB3LYP/6-31G(2df,p) Fr
 eq
 ----------------------------------------------------------------------

 Structure from the checkpoint file:  "/scratch/puck/g09_ab34e6cf-6b67-4099-9455-2976d29a57f5/Gau-30121.chk"
 -----
 titel
 -----
 Charge =  0 Multiplicity = 1

                         Standard orientation:
 ---------------------------------------------------------------------
 Center     Atomic      Atomic             Coordinates (Angstroms)
 Number     Number       Type             X           Y           Z
 ---------------------------------------------------------------------
      1          6           0        1.950419   -1.361604    0.412865
      2          6           0        0.722598   -0.645210   -0.125141
      3          6           0       -0.276846   -1.463893   -0.901146
      4          6           0       -0.625902   -1.013654    0.492277
      5          6           0       -1.759825   -0.048304    0.676848
      6          8           0       -2.592416    0.200032   -0.156646
      7          6           0        1.023607    0.767620   -0.538707
      8          6           0        1.114813    1.865289    0.435149
      9          8           0        0.000107    1.753422   -0.454356
     10          1           0        1.723459   -2.403271    0.657270
     11          1           0        2.754627   -1.364305   -0.332232
     12          1           0        2.335139   -0.874873    1.315589
     13          1           0       -0.842775   -0.970444   -1.684388
     14          1           0       -0.055514   -2.510506   -1.079781
     15          1           0       -0.553550   -1.726128    1.312071
     16          1           0       -1.821500    0.395234    1.696187
     17          1           0        1.636153    0.847687   -1.439682
     18          1           0        0.891437    1.669721    1.482895
     19          1           0        1.777801    2.707787    0.247219
 ---------------------------------------------------------------------

 SCF Done:  E(RB3LYP) =  -423.153752247     A.U. after    1 cycles

 The electronic state is 1-A.
 Alpha  occ. eigenvalues --  -19.16064 -19.12623 -10.26377 -10.24764 -10.24023
 Alpha  occ. eigenvalues --  -10.21987 -10.20223 -10.19333 -10.19142  -1.08116
 Alpha  occ. eigenvalues --   -1.03415  -0.87979  -0.74058  -0.68178  -0.66752
 Alpha  occ. eigenvalues --   -0.64829  -0.57254  -0.54665  -0.51163  -0.50032
 Alpha  occ. eigenvalues --   -0.48050  -0.44456  -0.43151  -0.42464  -0.41016
 Alpha  occ. eigenvalues --   -0.39405  -0.38752  -0.37312  -0.36423  -0.33317
 Alpha  occ. eigenvalues --   -0.29689  -0.28634  -0.27369  -0.24334
 Alpha virt. eigenvalues --   -0.01362   0.08134   0.09227   0.09864   0.10287
 Alpha virt. eigenvalues --    0.10698   0.13252   0.14430   0.14810   0.16006
 Alpha virt. eigenvalues --    0.17840   0.18369   0.18474   0.19117   0.20396

 Mulliken charges:
               1
     1  C   -0.456103
     2  C    0.299258
     3  C   -0.332772
     4  C   -0.148644
     5  C    0.147879
     6  O   -0.247641
     7  C    0.006045
     8  C   -0.179979
     9  O   -0.217892
    10  H    0.122033
    11  H    0.124791
    12  H    0.122090
    13  H    0.145627
    14  H    0.112878
    15  H    0.097825
    16  H    0.067461
    17  H    0.102339
    18  H    0.114436
    19  H    0.120368
 Sum of Mulliken charges =   0.00000

 Dipole moment (field-independent basis, Debye):
    X=              3.7588    Y=             -1.3918    Z=              1.6248  Tot=              4.3250
 Quadrupole moment (field-independent basis, Debye-Ang):
   XX=            -59.1217   YY=            -51.9072   ZZ=            -50.6854
   XY=              3.4046   XZ=             -2.9148   YZ=              1.3291

  Exact polarizability:  81.991  -0.517  77.096   0.191   4.796  70.792
 Approx polarizability: 120.277  -3.806 106.408   5.786   5.274 113.180

                      1                      2                      3
                      A                      A                      A
 Frequencies --     53.4406               112.1726               141.8628
 Red. masses --      3.6553                 4.6157                 3.2153
 Frc consts  --      0.0062                 0.0342                 0.0381
 IR Inten    --      0.6217                 9.7942                 2.7020

                      4                      5                      6
                      A                      A                      A
 Frequencies --    167.8541               216.6579               224.0978
 Red. masses --      3.6820                 1.5972                 1.6323
 Frc consts  --      0.0611                 0.0442                 0.0483
 IR Inten    --      4.2756                 0.4295                 2.3235

                      7                      8                      9
                      A                      A                      A
 Frequencies --    300.6947               308.2937               357.4236
 Red. masses --      3.3997                 2.7888                 2.5409
 Frc consts  --      0.1811                 0.1562                 0.1913
 IR Inten    --      0.4018                 0.5367                 3.4369

                     10                     11                     12
                      A                      A                      A
 Frequencies --    483.2451               540.2680               639.9641
 Red. masses --      3.1456                 3.6213                 2.5399
 Frc consts  --      0.4328                 0.6228                 0.6129
 IR Inten    --      3.6004                 4.1432                 2.9923

                     13                     14                     15
                      A                      A                      A
 Frequencies --    695.5727               787.6578               848.2354
 Red. masses --      2.3471                 3.1669                 2.6643
 Frc consts  --      0.6691                 1.1576                 1.1295
 IR Inten    --     10.3957                 7.3180                 4.4661

                     16                     17                     18
                      A                      A                      A
 Frequencies --    890.8544               912.4997               936.9282
 Red. masses --      3.4416                 2.2691                 1.2721
 Frc consts  --      1.6093                 1.1132                 0.6579
 IR Inten    --     27.7612                 7.7838                 1.3384

                     19                     20                     21
                      A                      A                      A
 Frequencies --    957.2969               964.6432              1009.6554
 Red. masses --      2.7104                 1.8711                 1.5011
 Frc consts  --      1.4635                 1.0259                 0.9016
 IR Inten    --     16.2338                33.7868                 7.1054

                     22                     23                     24
                      A                      A                      A
 Frequencies --   1042.8163              1071.8212              1088.9821
 Red. masses --      1.5128                 1.3366                 1.4992
 Frc consts  --      0.9693                 0.9047                 1.0475
 IR Inten    --      6.4182                 6.1621                 6.9910

                     25                     26                     27
                      A                      A                      A
 Frequencies --   1113.2384              1120.4912              1136.6697
 Red. masses --      1.6746                 1.7493                 1.5021
 Frc consts  --      1.2228                 1.2940                 1.1434
 IR Inten    --     25.8251                 1.2103                 3.8442

                     28                     29                     30
                      A                      A                      A
 Frequencies --   1154.8698              1172.5368              1242.2384
 Red. masses --      1.3982                 1.3610                 2.3430
 Frc consts  --      1.0987                 1.1024                 2.1302
 IR Inten    --      0.1860                 0.4191                 0.4690

                     31                     32                     33
                      A                      A                      A
 Frequencies --   1283.9985              1327.0367              1398.6209
 Red. masses --      2.1124                 1.5084                 1.9492
 Frc consts  --      2.0519                 1.5651                 2.2465
 IR Inten    --      8.8035                 2.8264                27.0456

                     34                     35                     36
                      A                      A                      A
 Frequencies --   1412.8350              1424.1822              1434.0037
 Red. masses --      1.3343                 1.1866                 1.9883
 Frc consts  --      1.5692                 1.4180                 2.4090
 IR Inten    --      1.5428                 6.3878                12.7776

                     37                     38                     39
                      A                      A                      A
 Frequencies --   1484.3763              1490.5416              1502.3651
 Red. masses --      1.2025                 1.0720                 1.1600
 Frc consts  --      1.5611                 1.4033                 1.5426
 IR Inten    --     10.7895                 2.7148                 6.4250

                     40                     41                     42
                      A                      A                      A
 Frequencies --   1525.3535              1820.7081              2871.4270
 Red. masses --      1.3428                10.2906                 1.0824
 Frc consts  --      1.8407                20.0989                 5.2583
 IR Inten    --      2.9979               156.6697               127.7361

                     43                     44                     45
                      A                      A                      A
 Frequencies --   3027.5578              3082.0479              3088.1905
 Red. masses --      1.0358                 1.0805                 1.0566
 Frc consts  --      5.5936                 6.0470                 5.9371
 IR Inten    --     26.1829                20.0151                22.6668

                     46                     47                     48
                      A                      A                      A
 Frequencies --   3089.4818              3108.5387              3128.0526
 Red. masses --      1.0999                 1.1011                 1.0825
 Frc consts  --      6.1855                 6.2691                 6.2404
 IR Inten    --     27.5701                19.9287                10.6157

                     49                     50                     51
                      A                      A                      A
 Frequencies --   3133.8506              3176.5307              3223.8750
 Red. masses --      1.0580                 1.1198                 1.1171
 Frc consts  --      6.1221                 6.6572                 6.8406
 IR Inten    --      9.3893                24.3546                 3.3847

 - Thermochemistry -
 -------------------
 Temperature   298.150 Kelvin.  Pressure   1.00000 Atm.
 Atom     1 has atomic number  6 and mass  12.00000

 Molecular mass:   126.06808 amu.
 Principal axes and moments of inertia in atomic units:
                           1         2         3
     Eigenvalues --   852.639771076.713691607.34428
           X            0.99978  -0.02105   0.00223
           Y            0.02102   0.99966   0.01549
           Z           -0.00255  -0.01544   0.99988
 This molecule is an asymmetric top.
 Rotational symmetry number  1.
 Warning -- assumption of classical behavior for rotation
           may cause significant error
 Rotational temperatures (Kelvin)      0.10158     0.08044     0.05389
 Rotational constants (GHZ):           2.11665     1.67616     1.12281
 Zero-point vibrational energy     411076.1 (Joules/Mol)
                                   98.24954 (Kcal/Mol)
 Warning -- explicit consideration of  11 degrees of freedom as
           vibrations may cause significant error
 Vibrational temperatures:     76.89   161.39   204.11   241.50   311.72
          (Kelvin)            322.43   432.63   443.57   514.25   695.28
                              777.32   920.76  1000.77  1133.26  1220.42
                             1281.74  1312.88  1348.03  1377.33  1387.90
                             1452.67  1500.38  1542.11  1566.80  1601.70
                             1612.13  1635.41  1661.60  1687.02  1787.30
                             1847.39  1909.31  2012.30  2032.75  2049.08
                             2063.21  2135.68  2144.55  2161.57  2194.64
                             2619.59  4131.34  4355.97  4434.37  4443.21
                             4445.07  4472.49  4500.56  4508.91  4570.31
                             4638.43

 Zero-point correction=                           0.156571 (Hartree/Particle)
 Thermal correction to Energy=                    0.165841
 Thermal correction to Enthalpy=                  0.166785
 Thermal correction to Gibbs Free Energy=         0.122161
 Sum of electronic and zero-point Energies=           -422.997182
 Sum of electronic and thermal Energies=              -422.987912
 Sum of electronic and thermal Enthalpies=            -422.986967
 Sum of electronic and thermal Free Energies=         -423.031591

                     E (Thermal)             CV                S
                      KCal/Mol        Cal/Mol-Kelvin    Cal/Mol-Kelvin
 Total                  104.067             33.682             93.919
 Electronic               0.000              0.000              0.000
 Translational            0.889              2.981             40.409
 Rotational               0.889              2.981             28.780
 Vibrational            102.289             27.720             24.730
 Vibration     1          0.596              1.976              4.686
 Vibration     2          0.607              1.939              3.231
 Vibration     3          0.615              1.911              2.779
 Vibration     4          0.625              1.882              2.459
 Vibration     5          0.645              1.816              1.987
 Vibration     6          0.649              1.804              1.926
 Vibration     7          0.693              1.672              1.413
 Vibration     8          0.698              1.658              1.371
 Vibration     9          0.733              1.560              1.133
 Vibration    10          0.839              1.287              0.701
 Vibration    11          0.895              1.161              0.565

 Optimization completed.
    -- Stationary point found.
 Normal termination of Gaussian 09 at Mon Jan 27 17:14:11 2020.
