 Gaussian 09, Revision D.01,
 Gaussian 09:  ES64L-G09RevD.01 24-Apr-2013

 -----------------------------
 # b3lyp 6-31G(2df,p) opt Freq
 -----------------------------

 -----
 titel
 -----
 Symbolic Z-matrix:
 Charge =  0 Multiplicity = 1

 SCF Done:  E(RB3LYP) =  -423.140075933     A.U. after   13 cycles
 Optimization completed.
    -- Stationary point found.
 Normal termination of Gaussian 09 at Tue Jan 28 09:55:21 2020.

 ----------------------------------------------------------------------
 #N Geom=AllCheck Guess=TCheck SCRF=Check GenChk RB3LYP/6-31G(2df,p) Fr
 eq
 ----------------------------------------------------------------------

 Structure from the checkpoint file:  "/scratch/puck/g09_55199c17-fee3-4d29-a3fa-088d5edd1f4b/Gau-132564.chk"
 -----
 titel
 -----
 Charge =  0 Multiplicity = 1

                         Standard orientation:
 ---------------------------------------------------------------------
 Center     Atomic      Atomic             Coordinates (Angstroms)
 Number     Number       Type             X           Y           Z
 ---------------------------------------------------------------------
      1          6           0        2.881531   -0.184656   -0.228430
      2          6           0        1.749989   -0.068118    0.800848
      3          6           0        0.383662    0.020401    0.180694
      4          6           0       -0.205675   -1.086926   -0.723583
      5          6           0       -1.622150   -0.494697   -0.647917
      6          8           0       -1.927122   -0.648727    0.772094
      7          6           0       -0.967076    0.387055    0.974030
      8          6           0       -1.213046    1.032398   -0.386602
      9          8           0        0.169672    1.199023   -0.676397
     10          1           0        3.856864   -0.189651    0.266702
     11          1           0        2.797656   -1.106723   -0.812113
     12          1           0        2.855958    0.658366   -0.924431
     13          1           0        1.758792   -0.931339    1.478277
     14          1           0        1.907197    0.821555    1.422297
     15          1           0        0.250482   -1.066770   -1.714828
     16          1           0       -0.183484   -2.092918   -0.299891
     17          1           0       -2.415613   -0.832868   -1.310953
     18          1           0       -0.940725    0.845884    1.961039
     19          1           0       -1.870923    1.859347   -0.645907
 ---------------------------------------------------------------------

 SCF Done:  E(RB3LYP) =  -423.140075933     A.U. after    1 cycles

 The electronic state is 1-A.
 Alpha  occ. eigenvalues --  -19.14058 -19.13903 -10.24183 -10.23962 -10.23876
 Alpha  occ. eigenvalues --  -10.23696 -10.18926 -10.18415 -10.17691  -1.08223
 Alpha  occ. eigenvalues --   -1.02119  -0.79154  -0.75944  -0.70678  -0.68921
 Alpha  occ. eigenvalues --   -0.62583  -0.57495  -0.53902  -0.50913  -0.48887
 Alpha  occ. eigenvalues --   -0.46302  -0.44257  -0.43938  -0.40451  -0.39358
 Alpha  occ. eigenvalues --   -0.38195  -0.37957  -0.35494  -0.34789  -0.33350
 Alpha  occ. eigenvalues --   -0.31724  -0.30530  -0.25565  -0.23977
 Alpha virt. eigenvalues --    0.06957   0.09564   0.11330   0.12159   0.12429
 Alpha virt. eigenvalues --    0.13410   0.14502   0.15288   0.16358   0.16485
 Alpha virt. eigenvalues --    0.17006   0.17533   0.18225   0.19152   0.20259

 Mulliken charges:
               1
     1  C   -0.383687
     2  C   -0.310080
     3  C    0.398410
     4  C   -0.246246
     5  C    0.021025
     6  O   -0.296582
     7  C    0.003265
     8  C    0.064054
     9  O   -0.330925
    10  H    0.113793
    11  H    0.119307
    12  H    0.139373
    13  H    0.107935
    14  H    0.107230
    15  H    0.111130
    16  H    0.109529
    17  H    0.085971
    18  H    0.091660
    19  H    0.094839
 Sum of Mulliken charges =   0.00000

 Dipole moment (field-independent basis, Debye):
    X=              0.5286    Y=             -0.1904    Z=             -0.0697  Tot=              0.5662
 Quadrupole moment (field-independent basis, Debye-Ang):
   XX=            -53.6120   YY=            -53.8507   ZZ=            -52.2985
   XY=             -3.4595   XZ=              4.1212   YZ=              2.9271

  Exact polarizability:  84.513  -1.887  68.581   2.675   2.954  68.450
 Approx polarizability: 112.834   1.631 107.055   0.840   0.456 106.096

                      1                      2                      3
                      A                      A                      A
 Frequencies --     86.3587               164.9923               212.4901
 Red. masses --      2.5007                 3.0025                 1.2351
 Frc consts  --      0.0110                 0.0482                 0.0329
 IR Inten    --      0.0374                 0.1066                 0.0799

                      4                      5                      6
                      A                      A                      A
 Frequencies --    297.8618               334.6833               451.0594
 Red. masses --      2.2055                 2.6967                 1.9306
 Frc consts  --      0.1153                 0.1780                 0.2314
 IR Inten    --      0.5208                 1.0810                 2.1577

                      7                      8                      9
                      A                      A                      A
 Frequencies --    531.5548               552.2115               630.3519
 Red. masses --      4.9666                 4.5646                 3.1910
 Frc consts  --      0.8268                 0.8201                 0.7470
 IR Inten    --      9.2243                14.1822                 0.8781

                     10                     11                     12
                      A                      A                      A
 Frequencies --    700.6924               765.0554               768.6853
 Red. masses --      4.5292                 3.6909                 1.6985
 Frc consts  --      1.3102                 1.2728                 0.5913
 IR Inten    --      0.8044                 0.6496                 6.5451

                     13                     14                     15
                      A                      A                      A
 Frequencies --    790.3020               845.1073               853.6959
 Red. masses --      2.1628                 3.6135                 1.5849
 Frc consts  --      0.7959                 1.5206                 0.6806
 IR Inten    --      3.7535                25.7695                 4.8027

                     16                     17                     18
                      A                      A                      A
 Frequencies --    876.3463               934.1864               937.6092
 Red. masses --      3.6767                 3.7738                 1.9971
 Frc consts  --      1.6636                 1.9404                 1.0344
 IR Inten    --     21.6240                11.6658                11.8104

                     19                     20                     21
                      A                      A                      A
 Frequencies --    968.1830               983.1703              1012.3364
 Red. masses --      2.2913                 2.3588                 2.4147
 Frc consts  --      1.2655                 1.3434                 1.4580
 IR Inten    --      9.2257                22.0056                13.4342

                     22                     23                     24
                      A                      A                      A
 Frequencies --   1028.5342              1050.6766              1065.6408
 Red. masses --      2.9197                 2.3196                 1.4466
 Frc consts  --      1.8198                 1.5087                 0.9678
 IR Inten    --     76.8494                 3.9368                 0.3736

                     25                     26                     27
                      A                      A                      A
 Frequencies --   1120.3677              1138.0352              1161.4233
 Red. masses --      2.3040                 1.7663                 1.4840
 Frc consts  --      1.7039                 1.3478                 1.1794
 IR Inten    --      1.5530                 3.8436                 1.0472

                     28                     29                     30
                      A                      A                      A
 Frequencies --   1180.2572              1209.3173              1230.1500
 Red. masses --      1.5851                 1.4189                 1.8377
 Frc consts  --      1.3009                 1.2226                 1.6384
 IR Inten    --      3.2368                 3.2486                 4.0184

                     31                     32                     33
                      A                      A                      A
 Frequencies --   1262.1170              1273.1083              1309.8097
 Red. masses --      1.4997                 1.7003                 1.3735
 Frc consts  --      1.4075                 1.6237                 1.3883
 IR Inten    --      9.6123                21.1265                 7.3127

                     34                     35                     36
                      A                      A                      A
 Frequencies --   1322.0670              1348.4388              1393.7800
 Red. masses --      2.0056                 1.5157                 2.3460
 Frc consts  --      2.0654                 1.6238                 2.6851
 IR Inten    --     10.3297                 2.2128                 2.1668

                     37                     38                     39
                      A                      A                      A
 Frequencies --   1411.0712              1461.7747              1474.8696
 Red. masses --      1.2305                 1.1379                 1.0764
 Frc consts  --      1.4436                 1.4326                 1.3795
 IR Inten    --      1.9507                 3.7210                 1.5901

                     40                     41                     42
                      A                      A                      A
 Frequencies --   1500.1748              1509.0698              3027.8587
 Red. masses --      1.0389                 1.0702                 1.0595
 Frc consts  --      1.3776                 1.4359                 5.7232
 IR Inten    --      5.1198                 4.4603                19.0700

                     43                     44                     45
                      A                      A                      A
 Frequencies --   3042.6766              3063.6462              3078.9934
 Red. masses --      1.0353                 1.1017                 1.0574
 Frc consts  --      5.6469                 6.0924                 5.9063
 IR Inten    --     22.4586                10.9798                13.4863

                     46                     47                     48
                      A                      A                      A
 Frequencies --   3110.3420              3122.0332              3135.1134
 Red. masses --      1.1016                 1.1020                 1.0896
 Frc consts  --      6.2792                 6.3286                 6.3097
 IR Inten    --     34.3348                21.3633                28.0519

                     49                     50                     51
                      A                      A                      A
 Frequencies --   3141.8218              3144.6579              3153.9763
 Red. masses --      1.1065                 1.0938                 1.0968
 Frc consts  --      6.4354                 6.3730                 6.4283
 IR Inten    --     11.9574                33.7772                36.0526

 - Thermochemistry -
 -------------------
 Temperature   298.150 Kelvin.  Pressure   1.00000 Atm.
 Atom     1 has atomic number  6 and mass  12.00000

 Molecular mass:   126.06808 amu.
 Principal axes and moments of inertia in atomic units:
                           1         2         3
     Eigenvalues --   501.544811323.142041370.27656
           X            0.99972  -0.02235   0.00820
           Y            0.01863   0.94892   0.31495
           Z           -0.01482  -0.31471   0.94907
 This molecule is an asymmetric top.
 Rotational symmetry number  1.
 Warning -- assumption of classical behavior for rotation
           may cause significant error
 Rotational temperatures (Kelvin)      0.17269     0.06546     0.06321
 Rotational constants (GHZ):           3.59836     1.36398     1.31706
 Zero-point vibrational energy     419702.2 (Joules/Mol)
                                  100.31124 (Kcal/Mol)
 Warning -- explicit consideration of   8 degrees of freedom as
           vibrations may cause significant error
 Vibrational temperatures:    124.25   237.39   305.73   428.56   481.53
          (Kelvin)            648.97   764.79   794.51   906.93  1008.14
                             1100.74  1105.97  1137.07  1215.92  1228.28
                             1260.87  1344.08  1349.01  1393.00  1414.56
                             1456.52  1479.83  1511.69  1533.22  1611.96
                             1637.38  1671.03  1698.12  1739.94  1769.91
                             1815.90  1831.72  1884.52  1902.16  1940.10
                             2005.34  2030.21  2103.17  2122.01  2158.41
                             2171.21  4356.41  4377.73  4407.90  4429.98
                             4475.08  4491.90  4510.72  4520.38  4524.46
                             4537.86

 Zero-point correction=                           0.159856 (Hartree/Particle)
 Thermal correction to Energy=                    0.167274
 Thermal correction to Enthalpy=                  0.168218
 Thermal correction to Gibbs Free Energy=         0.127973
 Sum of electronic and zero-point Energies=           -422.980220
 Sum of electronic and thermal Energies=              -422.972802
 Sum of electronic and thermal Enthalpies=            -422.971858
 Sum of electronic and thermal Free Energies=         -423.012103

                     E (Thermal)             CV                S
                      KCal/Mol        Cal/Mol-Kelvin    Cal/Mol-Kelvin
 Total                  104.966             29.811             84.703
 Electronic               0.000              0.000              0.000
 Translational            0.889              2.981             40.409
 Rotational               0.889              2.981             28.299
 Vibrational            103.189             23.850             15.995
 Vibration     1          0.601              1.959              3.741
 Vibration     2          0.623              1.885              2.492
 Vibration     3          0.644              1.822              2.022
 Vibration     4          0.691              1.678              1.429
 Vibration     5          0.716              1.606              1.237
 Vibration     6          0.810              1.359              0.793
 Vibration     7          0.887              1.180              0.584
 Vibration     8          0.908              1.135              0.540

 Optimization completed.
    -- Stationary point found.
 Normal termination of Gaussian 09 at Tue Jan 28 10:39:35 2020.
