 Gaussian 09, Revision D.01,
 Gaussian 09:  ES64L-G09RevD.01 24-Apr-2013

 -----------------------------
 # b3lyp 6-31G(2df,p) opt Freq
 -----------------------------

 -----
 titel
 -----
 Symbolic Z-matrix:
 Charge =  0 Multiplicity = 1

 SCF Done:  E(RB3LYP) =  -423.172467445     A.U. after   14 cycles
 Optimization completed.
    -- Stationary point found.
 Normal termination of Gaussian 09 at Mon Jan 27 12:57:47 2020.

 ----------------------------------------------------------------------
 #N Geom=AllCheck Guess=TCheck SCRF=Check GenChk RB3LYP/6-31G(2df,p) Fr
 eq
 ----------------------------------------------------------------------

 Structure from the checkpoint file:  "/scratch/puck/g09_27a21c2d-f2a1-442f-bd43-02c5f4a544a1/Gau-154789.chk"
 -----
 titel
 -----
 Charge =  0 Multiplicity = 1

                         Standard orientation:
 ---------------------------------------------------------------------
 Center     Atomic      Atomic             Coordinates (Angstroms)
 Number     Number       Type             X           Y           Z
 ---------------------------------------------------------------------
      1          8           0       -3.546512   -0.043352   -0.097851
      2          6           0       -2.352569   -0.016163   -0.039550
      3          6           0       -1.318837    1.121813    0.041545
      4          6           0       -0.245034    0.045785    0.406298
      5          6           0       -1.263676   -1.093242    0.078756
      6          6           0        1.027765    0.064000   -0.407331
      7          6           0        2.142172    1.065028   -0.020469
      8          6           0        3.013991   -0.194871    0.147371
      9          8           0        1.888302   -1.061744   -0.109292
     10          1           0       -1.153955    1.586540   -0.938084
     11          1           0       -1.527693    1.911437    0.767207
     12          1           0        0.001536    0.063312    1.471476
     13          1           0       -1.068769   -1.586917   -0.880245
     14          1           0       -1.429770   -1.865445    0.833258
     15          1           0        0.777216    0.082175   -1.480272
     16          1           0        2.449753    1.768524   -0.794943
     17          1           0        1.947630    1.611050    0.905102
     18          1           0        3.802096   -0.317351   -0.606370
     19          1           0        3.444767   -0.366664    1.140301
 ---------------------------------------------------------------------

 SCF Done:  E(RB3LYP) =  -423.172467445     A.U. after    1 cycles

 The electronic state is 1-A.
 Alpha  occ. eigenvalues --  -19.13655 -19.13455 -10.27107 -10.24140 -10.23553
 Alpha  occ. eigenvalues --  -10.20203 -10.19642 -10.19525 -10.19240  -1.04569
 Alpha  occ. eigenvalues --   -1.04022  -0.85238  -0.75035  -0.71134  -0.68453
 Alpha  occ. eigenvalues --   -0.61616  -0.56166  -0.53029  -0.49933  -0.49315
 Alpha  occ. eigenvalues --   -0.47042  -0.45639  -0.44093  -0.42419  -0.40695
 Alpha  occ. eigenvalues --   -0.38910  -0.38207  -0.37611  -0.34436  -0.33947
 Alpha  occ. eigenvalues --   -0.31870  -0.30618  -0.25211  -0.24293
 Alpha virt. eigenvalues --   -0.01982   0.07723   0.08071   0.09608   0.10252
 Alpha virt. eigenvalues --    0.11541   0.13745   0.14557   0.15516   0.16747
 Alpha virt. eigenvalues --    0.17276   0.17415   0.19067   0.19834   0.21746

 Mulliken charges:
               1
     1  O   -0.286256
     2  C    0.404460
     3  C   -0.374550
     4  C    0.010395
     5  C   -0.359087
     6  C    0.148851
     7  C   -0.300846
     8  C   -0.061372
     9  O   -0.294818
    10  H    0.129237
    11  H    0.130661
    12  H    0.080749
    13  H    0.136700
    14  H    0.134728
    15  H    0.067096
    16  H    0.112770
    17  H    0.110836
    18  H    0.103412
    19  H    0.107035
 Sum of Mulliken charges =   0.00000

 Dipole moment (field-independent basis, Debye):
    X=              2.9332    Y=              1.6615    Z=              0.2295  Tot=              3.3789
 Quadrupole moment (field-independent basis, Debye-Ang):
   XX=            -64.9711   YY=            -53.7483   ZZ=            -50.4440
   XY=              2.8929   XZ=             -0.4481   YZ=             -0.2887

  Exact polarizability:  96.467   0.311  71.073   1.287  -0.650  62.307
 Approx polarizability: 125.183  -0.164 105.297   2.526  -0.790  96.838

                      1                      2                      3
                      A                      A                      A
 Frequencies --     37.2757                64.8979                77.8495
 Red. masses --      4.2333                 3.9803                 2.2231
 Frc consts  --      0.0035                 0.0099                 0.0079
 IR Inten    --      3.8193                 1.5566                 2.4478

                      4                      5                      6
                      A                      A                      A
 Frequencies --    158.7996               296.7309               327.1242
 Red. masses --      3.0559                 3.4340                 2.9476
 Frc consts  --      0.0454                 0.1781                 0.1858
 IR Inten    --      1.9448                 0.7158                 0.5838

                      7                      8                      9
                      A                      A                      A
 Frequencies --    399.0589               414.2644               500.3798
 Red. masses --      4.8594                 1.9555                 2.7867
 Frc consts  --      0.4559                 0.1977                 0.4111
 IR Inten    --      7.3373                 0.6119                 0.6605

                     10                     11                     12
                      A                      A                      A
 Frequencies --    657.4146               673.0673               725.8330
 Red. masses --      1.4685                 2.8784                 2.1473
 Frc consts  --      0.3739                 0.7683                 0.6665
 IR Inten    --      0.2957                 5.6549                 1.4032

                     13                     14                     15
                      A                      A                      A
 Frequencies --    786.6011               838.0095               892.9820
 Red. masses --      1.3587                 2.8326                 3.1012
 Frc consts  --      0.4953                 1.1720                 1.4570
 IR Inten    --      3.1523                 5.6345                12.3332

                     16                     17                     18
                      A                      A                      A
 Frequencies --    929.6024               948.3698               951.1437
 Red. masses --      2.1660                 2.4580                 1.9654
 Frc consts  --      1.1028                 1.3025                 1.0476
 IR Inten    --      0.1512                 5.4794                 7.3895

                     19                     20                     21
                      A                      A                      A
 Frequencies --    991.5282              1012.3439              1027.2301
 Red. masses --      1.4891                 3.3046                 4.4813
 Frc consts  --      0.8625                 1.9954                 2.7861
 IR Inten    --      4.2102                18.6087                74.0532

                     22                     23                     24
                      A                      A                      A
 Frequencies --   1036.7003              1091.3926              1108.5448
 Red. masses --      4.2839                 2.9816                 2.7675
 Frc consts  --      2.7126                 2.0925                 2.0038
 IR Inten    --     82.8878                11.7584                34.3272

                     25                     26                     27
                      A                      A                      A
 Frequencies --   1147.7482              1164.6306              1192.6587
 Red. masses --      1.7412                 1.1925                 1.3965
 Frc consts  --      1.3514                 0.9530                 1.1703
 IR Inten    --      7.7728                 1.0968                 2.9347

                     28                     29                     30
                      A                      A                      A
 Frequencies --   1208.3113              1231.8072              1236.7922
 Red. masses --      1.3844                 1.5395                 1.5213
 Frc consts  --      1.1909                 1.3763                 1.3711
 IR Inten    --      3.6309                 1.5533                 0.8108

                     31                     32                     33
                      A                      A                      A
 Frequencies --   1254.6463              1260.6520              1286.7366
 Red. masses --      1.4174                 1.4428                 1.2741
 Frc consts  --      1.3146                 1.3510                 1.2428
 IR Inten    --      5.3775                 3.7187                 1.5195

                     34                     35                     36
                      A                      A                      A
 Frequencies --   1316.3230              1359.1807              1413.3237
 Red. masses --      1.3251                 1.4092                 1.5205
 Frc consts  --      1.3527                 1.5339                 1.7894
 IR Inten    --     19.3551                 1.6834                11.2580

                     37                     38                     39
                      A                      A                      A
 Frequencies --   1424.5170              1445.2005              1489.1512
 Red. masses --      1.0883                 1.1316                 1.1071
 Frc consts  --      1.3011                 1.3925                 1.4464
 IR Inten    --     15.9298                 3.1057                 3.9264

                     40                     41                     42
                      A                      A                      A
 Frequencies --   1532.1827              1896.0107              2969.0686
 Red. masses --      1.1125                12.6419                 1.0834
 Frc consts  --      1.5388                26.7759                 5.6271
 IR Inten    --      1.0114               314.6259                56.4353

                     43                     44                     45
                      A                      A                      A
 Frequencies --   3017.0593              3043.8047              3052.6271
 Red. masses --      1.0577                 1.0623                 1.0638
 Frc consts  --      5.6727                 5.7989                 5.8407
 IR Inten    --     85.3751                 7.3495                 4.6232

                     46                     47                     48
                      A                      A                      A
 Frequencies --   3059.5518              3069.9663              3078.2410
 Red. masses --      1.1081                 1.0851                 1.0615
 Frc consts  --      6.1113                 6.0255                 5.9262
 IR Inten    --     32.6345                17.5933                25.4412

                     49                     50                     51
                      A                      A                      A
 Frequencies --   3113.0511              3117.1314              3134.9783
 Red. masses --      1.1006                 1.1014                 1.1080
 Frc consts  --      6.2845                 6.3052                 6.4159
 IR Inten    --      9.4421                 9.4571                25.9174

 - Thermochemistry -
 -------------------
 Temperature   298.150 Kelvin.  Pressure   1.00000 Atm.
 Atom     1 has atomic number  8 and mass  15.99491

 Molecular mass:   126.06808 amu.
 Principal axes and moments of inertia in atomic units:
                           1         2         3
     Eigenvalues --   339.280452145.755102376.56753
           X            0.99996   0.00948  -0.00009
           Y           -0.00948   0.99994  -0.00570
           Z            0.00004   0.00570   0.99998
 This molecule is an asymmetric top.
 Rotational symmetry number  1.
 Rotational temperatures (Kelvin)      0.25529     0.04037     0.03644
 Rotational constants (GHZ):           5.31932     0.84108     0.75939
 Zero-point vibrational energy     415478.0 (Joules/Mol)
                                   99.30162 (Kcal/Mol)
 Warning -- explicit consideration of   9 degrees of freedom as
           vibrations may cause significant error
 Vibrational temperatures:     53.63    93.37   112.01   228.48   426.93
          (Kelvin)            470.66   574.16   596.03   719.93   945.87
                              968.39  1044.31  1131.74  1205.71  1284.80
                             1337.49  1364.49  1368.48  1426.59  1456.54
                             1477.95  1491.58  1570.27  1594.95  1651.35
                             1675.64  1715.97  1738.49  1772.29  1779.47
                             1805.15  1813.79  1851.32  1893.89  1955.56
                             2033.45  2049.56  2079.32  2142.55  2204.47
                             2727.93  4271.82  4340.87  4379.35  4392.04
                             4402.01  4416.99  4428.90  4478.98  4484.85
                             4510.53

 Zero-point correction=                           0.158247 (Hartree/Particle)
 Thermal correction to Energy=                    0.166873
 Thermal correction to Enthalpy=                  0.167817
 Thermal correction to Gibbs Free Energy=         0.123338
 Sum of electronic and zero-point Energies=           -423.014220
 Sum of electronic and thermal Energies=              -423.005594
 Sum of electronic and thermal Enthalpies=            -423.004650
 Sum of electronic and thermal Free Energies=         -423.049129

                     E (Thermal)             CV                S
                      KCal/Mol        Cal/Mol-Kelvin    Cal/Mol-Kelvin
 Total                  104.714             31.367             93.614
 Electronic               0.000              0.000              0.000
 Translational            0.889              2.981             40.409
 Rotational               0.889              2.981             28.938
 Vibrational            102.937             25.406             24.267
 Vibration     1          0.594              1.982              5.399
 Vibration     2          0.597              1.971              4.302
 Vibration     3          0.599              1.964              3.944
 Vibration     4          0.621              1.893              2.564
 Vibration     5          0.690              1.680              1.435
 Vibration     6          0.711              1.621              1.274
 Vibration     7          0.765              1.472              0.966
 Vibration     8          0.778              1.439              0.912
 Vibration     9          0.856              1.249              0.657

 Optimization completed.
    -- Stationary point found.
 Normal termination of Gaussian 09 at Mon Jan 27 13:36:11 2020.
