 Gaussian 09, Revision D.01,
 Gaussian 09:  ES64L-G09RevD.01 24-Apr-2013

 -----------------------------
 # b3lyp 6-31G(2df,p) opt Freq
 -----------------------------

 -----
 titel
 -----
 Symbolic Z-matrix:
 Charge =  0 Multiplicity = 1

 SCF Done:  E(RB3LYP) =  -423.159987148     A.U. after   13 cycles
 SCF Done:  E(RB3LYP) =  -423.159987458     A.U. after    6 cycles
 Optimization completed.
    -- Stationary point found.
 Normal termination of Gaussian 09 at Mon Jan 27 18:26:02 2020.

 ----------------------------------------------------------------------
 #N Geom=AllCheck Guess=TCheck SCRF=Check GenChk RB3LYP/6-31G(2df,p) Fr
 eq
 ----------------------------------------------------------------------

 Structure from the checkpoint file:  "/scratch/puck/g09_c22ad8ae-4cdb-48ac-b538-5a8064280598/Gau-35360.chk"
 -----
 titel
 -----
 Charge =  0 Multiplicity = 1

                         Standard orientation:
 ---------------------------------------------------------------------
 Center     Atomic      Atomic             Coordinates (Angstroms)
 Number     Number       Type             X           Y           Z
 ---------------------------------------------------------------------
      1          8           0        2.252729   -0.840079   -0.210143
      2          6           0        0.921467   -0.544621    0.019080
      3          6           0        0.105643   -1.014815    1.219541
      4          6           0       -0.792677    0.263755    1.052555
      5          6           0       -2.046762   -0.033527    0.216320
      6          6           0       -1.473762   -0.574741   -1.125805
      7          6           0       -0.021091   -0.098031   -1.114797
      8          6           0        0.257915    0.817547    0.041548
      9          8           0        0.715144    2.108017   -0.106891
     10          1           0        2.303723   -1.643533   -0.739529
     11          1           0       -0.403606   -1.983846    1.155866
     12          1           0        0.701690   -0.981465    2.135760
     13          1           0       -0.965563    0.835038    1.965423
     14          1           0       -2.722084   -0.742406    0.705722
     15          1           0       -2.607527    0.892292    0.046377
     16          1           0       -1.547264   -1.666409   -1.184867
     17          1           0       -2.014745   -0.175183   -1.988810
     18          1           0        0.503569    0.120110   -2.039096
     19          1           0        1.304430    2.308502    0.628774
 ---------------------------------------------------------------------

 SCF Done:  E(RB3LYP) =  -423.159987458     A.U. after    1 cycles

 The electronic state is 1-A.
 Alpha  occ. eigenvalues --  -19.14733 -19.14623 -10.23132 -10.22620 -10.18523
 Alpha  occ. eigenvalues --  -10.17973 -10.17865 -10.17802 -10.17650  -1.03809
 Alpha  occ. eigenvalues --   -1.02431  -0.89446  -0.75166  -0.73319  -0.65267
 Alpha  occ. eigenvalues --   -0.59439  -0.55976  -0.55205  -0.53157  -0.47240
 Alpha  occ. eigenvalues --   -0.46416  -0.44204  -0.41167  -0.40610  -0.38785
 Alpha  occ. eigenvalues --   -0.37471  -0.36466  -0.34760  -0.34016  -0.32681
 Alpha  occ. eigenvalues --   -0.30222  -0.28214  -0.23692  -0.23301
 Alpha virt. eigenvalues --    0.06959   0.09103   0.09608   0.11168   0.12882
 Alpha virt. eigenvalues --    0.14657   0.15370   0.16004   0.16661   0.17582
 Alpha virt. eigenvalues --    0.18731   0.19502   0.20412   0.22448   0.23332

 Mulliken charges:
               1
     1  O   -0.471867
     2  C    0.307645
     3  C   -0.301273
     4  C   -0.106384
     5  C   -0.207755
     6  C   -0.237926
     7  C   -0.156413
     8  C    0.330700
     9  O   -0.460631
    10  H    0.284005
    11  H    0.084538
    12  H    0.100773
    13  H    0.065960
    14  H    0.093409
    15  H    0.102379
    16  H    0.094962
    17  H    0.101117
    18  H    0.088337
    19  H    0.288424
 Sum of Mulliken charges =   0.00000

 Dipole moment (field-independent basis, Debye):
    X=             -0.2969    Y=             -1.2341    Z=              0.5051  Tot=              1.3661
 Quadrupole moment (field-independent basis, Debye-Ang):
   XX=            -54.3118   YY=            -51.5883   ZZ=            -50.6145
   XY=             -0.4495   XZ=              0.0359   YZ=              4.6540

  Exact polarizability:  78.355  -0.420  71.912   1.056   1.333  72.443
 Approx polarizability: 109.012  -1.095 110.570   2.010   2.175 106.742

                      1                      2                      3
                      A                      A                      A
 Frequencies --    173.6965               200.6679               222.5882
 Red. masses --      3.3374                 1.9900                 1.9817
 Frc consts  --      0.0593                 0.0472                 0.0578
 IR Inten    --     16.8099                 0.2537                19.1534

                      4                      5                      6
                      A                      A                      A
 Frequencies --    262.5524               308.1534               318.3420
 Red. masses --      1.3550                 1.8307                 1.7323
 Frc consts  --      0.0550                 0.1024                 0.1034
 IR Inten    --     73.1075                28.3654                55.8134

                      7                      8                      9
                      A                      A                      A
 Frequencies --    362.3823               423.1991               519.0748
 Red. masses --      3.5215                 2.2605                 4.8937
 Frc consts  --      0.2725                 0.2385                 0.7769
 IR Inten    --     11.3535                 3.0131                 8.7979

                     10                     11                     12
                      A                      A                      A
 Frequencies --    558.1221               669.0767               679.4850
 Red. masses --      3.3781                 4.0469                 3.5020
 Frc consts  --      0.6200                 1.0674                 0.9526
 IR Inten    --      2.6103                 6.8904                 4.1694

                     13                     14                     15
                      A                      A                      A
 Frequencies --    695.1269               760.7952               835.2262
 Red. masses --      2.5238                 3.6440                 2.5427
 Frc consts  --      0.7185                 1.2427                 1.0451
 IR Inten    --      2.9350                 7.2938                 5.1217

                     16                     17                     18
                      A                      A                      A
 Frequencies --    861.8305               898.3040               911.3071
 Red. masses --      1.8345                 3.4893                 2.1388
 Frc consts  --      0.8028                 1.6589                 1.0465
 IR Inten    --      2.4409                 8.6859                 8.9501

                     19                     20                     21
                      A                      A                      A
 Frequencies --    935.9513               974.1221               995.7121
 Red. masses --      2.2163                 1.6252                 1.8317
 Frc consts  --      1.1439                 0.9086                 1.0700
 IR Inten    --      6.1229                 2.0683                 0.1785

                     22                     23                     24
                      A                      A                      A
 Frequencies --   1046.3418              1063.2912              1088.9122
 Red. masses --      1.7745                 1.5868                 2.0084
 Frc consts  --      1.1447                 1.0570                 1.4031
 IR Inten    --      2.5637                14.7115                 3.4838

                     25                     26                     27
                      A                      A                      A
 Frequencies --   1119.6361              1138.7827              1194.9007
 Red. masses --      1.4810                 1.4923                 2.1690
 Frc consts  --      1.0938                 1.1402                 1.8246
 IR Inten    --      2.8117                 3.5248                27.5715

                     28                     29                     30
                      A                      A                      A
 Frequencies --   1204.9641              1222.0537              1228.0309
 Red. masses --      1.6945                 1.7821                 1.6369
 Frc consts  --      1.4495                 1.5681                 1.4545
 IR Inten    --      4.5555                34.0073                27.2249

                     31                     32                     33
                      A                      A                      A
 Frequencies --   1256.5282              1281.4969              1284.7430
 Red. masses --      1.5001                 1.5481                 1.6624
 Frc consts  --      1.3955                 1.4979                 1.6166
 IR Inten    --     68.6022                19.9090                90.7887

                     34                     35                     36
                      A                      A                      A
 Frequencies --   1302.0987              1330.1801              1337.9774
 Red. masses --      1.4384                 1.5629                 1.4649
 Frc consts  --      1.4368                 1.6293                 1.5451
 IR Inten    --     71.2277                16.9135                 6.2357

                     37                     38                     39
                      A                      A                      A
 Frequencies --   1375.7375              1479.6579              1486.3652
 Red. masses --      2.1640                 1.3962                 1.0852
 Frc consts  --      2.4131                 1.8010                 1.4126
 IR Inten    --     23.1266                 8.5913                 0.8256

                     40                     41                     42
                      A                      A                      A
 Frequencies --   1504.8291              1525.8718              3027.6568
 Red. masses --      1.2150                 2.0531                 1.0619
 Frc consts  --      1.6210                 2.8164                 5.7354
 IR Inten    --      2.0677                31.0721                38.3985

                     43                     44                     45
                      A                      A                      A
 Frequencies --   3036.7748              3042.7051              3074.0127
 Red. masses --      1.0594                 1.0658                 1.0983
 Frc consts  --      5.7562                 5.8133                 6.1147
 IR Inten    --     36.5387                44.5028                16.9763

                     46                     47                     48
                      A                      A                      A
 Frequencies --   3089.3688              3092.3866              3107.6496
 Red. masses --      1.1030                 1.1039                 1.0901
 Frc consts  --      6.2025                 6.2195                 6.2026
 IR Inten    --     37.2317                27.2242                41.8545

                     49                     50                     51
                      A                      A                      A
 Frequencies --   3177.6625              3791.2998              3792.5738
 Red. masses --      1.0894                 1.0663                 1.0661
 Frc consts  --      6.4814                 9.0300                 9.0348
 IR Inten    --      8.5154                20.9332                22.0543

 - Thermochemistry -
 -------------------
 Temperature   298.150 Kelvin.  Pressure   1.00000 Atm.
 Atom     1 has atomic number  8 and mass  15.99491

 Molecular mass:   126.06808 amu.
 Principal axes and moments of inertia in atomic units:
                           1         2         3
     Eigenvalues --   759.512121062.230861224.93247
           X            0.99985   0.01535   0.00787
           Y           -0.01560   0.99934   0.03285
           Z           -0.00736  -0.03297   0.99943
 This molecule is an asymmetric top.
 Rotational symmetry number  1.
 Warning -- assumption of classical behavior for rotation
           may cause significant error
 Rotational temperatures (Kelvin)      0.11404     0.08154     0.07071
 Rotational constants (GHZ):           2.37618     1.69901     1.47334
 Zero-point vibrational energy     420309.2 (Joules/Mol)
                                  100.45630 (Kcal/Mol)
 Warning -- explicit consideration of  10 degrees of freedom as
           vibrations may cause significant error
 Vibrational temperatures:    249.91   288.72   320.25   377.75   443.36
          (Kelvin)            458.02   521.39   608.89   746.83   803.01
                              962.65   977.63  1000.13  1094.61  1201.70
                             1239.98  1292.46  1311.17  1346.62  1401.54
                             1432.61  1505.45  1529.84  1566.70  1610.90
                             1638.45  1719.19  1733.67  1758.26  1766.86
                             1807.86  1843.79  1848.46  1873.43  1913.83
                             1925.05  1979.38  2128.90  2138.55  2165.11
                             2195.39  4356.12  4369.24  4377.77  4422.81
                             4444.91  4449.25  4471.21  4571.94  5454.83
                             5456.66

 Zero-point correction=                           0.160087 (Hartree/Particle)
 Thermal correction to Energy=                    0.168020
 Thermal correction to Enthalpy=                  0.168964
 Thermal correction to Gibbs Free Energy=         0.128292
 Sum of electronic and zero-point Energies=           -422.999900
 Sum of electronic and thermal Energies=              -422.991967
 Sum of electronic and thermal Enthalpies=            -422.991023
 Sum of electronic and thermal Free Energies=         -423.031695

                     E (Thermal)             CV                S
                      KCal/Mol        Cal/Mol-Kelvin    Cal/Mol-Kelvin
 Total                  105.434             32.055             85.602
 Electronic               0.000              0.000              0.000
 Translational            0.889              2.981             40.409
 Rotational               0.889              2.981             28.382
 Vibrational            103.657             26.094             16.812
 Vibration     1          0.627              1.875              2.395
 Vibration     2          0.638              1.839              2.127
 Vibration     3          0.648              1.807              1.938
 Vibration     4          0.670              1.741              1.645
 Vibration     5          0.698              1.658              1.372
 Vibration     6          0.705              1.639              1.319
 Vibration     7          0.736              1.550              1.112
 Vibration     8          0.785              1.420              0.881
 Vibration     9          0.874              1.208              0.612
 Vibration    10          0.914              1.122              0.528

 Normal termination of Gaussian 09 at Mon Jan 27 19:14:54 2020.
