 Gaussian 09, Revision D.01,
 Gaussian 09:  ES64L-G09RevD.01 24-Apr-2013

 -----------------------------
 # b3lyp 6-31G(2df,p) opt Freq
 -----------------------------

 -----
 titel
 -----
 Symbolic Z-matrix:
 Charge =  0 Multiplicity = 1

 SCF Done:  E(RB3LYP) =  -423.208470223     A.U. after   13 cycles
 Optimization completed.
    -- Stationary point found.
 Normal termination of Gaussian 09 at Mon Jan 27 18:40:05 2020.

 ----------------------------------------------------------------------
 #N Geom=AllCheck Guess=TCheck SCRF=Check GenChk RB3LYP/6-31G(2df,p) Fr
 eq
 ----------------------------------------------------------------------

 Structure from the checkpoint file:  "/scratch/puck/g09_880f3866-40a1-43a5-8814-9c74c79822f2/Gau-18824.chk"
 -----
 titel
 -----
 Charge =  0 Multiplicity = 1

                         Standard orientation:
 ---------------------------------------------------------------------
 Center     Atomic      Atomic             Coordinates (Angstroms)
 Number     Number       Type             X           Y           Z
 ---------------------------------------------------------------------
      1          6           0        2.350697    0.406849    0.365020
      2          6           0        0.899570    0.152887    0.028587
      3          8           0        0.805776   -0.931798   -0.900811
      4          6           0       -0.494443   -1.485682   -0.705581
      5          6           0       -1.005939   -0.812108    0.601458
      6          6           0       -1.936593    0.377260    0.328178
      7          6           0       -1.159806    1.458910   -0.384804
      8          6           0        0.159756    1.362002   -0.533294
      9          8           0        0.207509   -0.322963    1.172760
     10          1           0        2.431251    1.214239    1.097093
     11          1           0        2.792801   -0.501730    0.778112
     12          1           0        2.896823    0.692579   -0.537563
     13          1           0       -1.147243   -1.267428   -1.559663
     14          1           0       -0.395677   -2.570834   -0.602750
     15          1           0       -1.448264   -1.524944    1.300412
     16          1           0       -2.793225    0.054173   -0.277423
     17          1           0       -2.352012    0.759863    1.270601
     18          1           0       -1.707710    2.314235   -0.770992
     19          1           0        0.737529    2.107223   -1.070803
 ---------------------------------------------------------------------

 SCF Done:  E(RB3LYP) =  -423.208470223     A.U. after    1 cycles

 The electronic state is 1-A.
 Alpha  occ. eigenvalues --  -19.14008 -19.13573 -10.27836 -10.23633 -10.22625
 Alpha  occ. eigenvalues --  -10.19071 -10.18828 -10.17893 -10.17475  -1.08464
 Alpha  occ. eigenvalues --   -0.98498  -0.80401  -0.79333  -0.70744  -0.67370
 Alpha  occ. eigenvalues --   -0.61868  -0.59448  -0.53686  -0.51480  -0.46718
 Alpha  occ. eigenvalues --   -0.46351  -0.45556  -0.43652  -0.41214  -0.40241
 Alpha  occ. eigenvalues --   -0.38627  -0.37761  -0.37125  -0.35387  -0.33037
 Alpha  occ. eigenvalues --   -0.32035  -0.27729  -0.25559  -0.23936
 Alpha virt. eigenvalues --    0.01113   0.08943   0.11431   0.11836   0.12804
 Alpha virt. eigenvalues --    0.13671   0.14584   0.15876   0.16631   0.17207
 Alpha virt. eigenvalues --    0.17922   0.19175   0.20561   0.21133   0.22942

 Mulliken charges:
               1
     1  C   -0.463730
     2  C    0.414755
     3  O   -0.287509
     4  C   -0.104540
     5  C    0.040573
     6  C   -0.267548
     7  C   -0.090641
     8  C   -0.060982
     9  O   -0.274499
    10  H    0.130447
    11  H    0.132708
    12  H    0.128474
    13  H    0.100701
    14  H    0.109354
    15  H    0.083900
    16  H    0.107775
    17  H    0.115142
    18  H    0.094432
    19  H    0.091189
 Sum of Mulliken charges =   0.00000

 Dipole moment (field-independent basis, Debye):
    X=             -1.4500    Y=              0.4398    Z=             -0.2116  Tot=              1.5300
 Quadrupole moment (field-independent basis, Debye-Ang):
   XX=            -49.0092   YY=            -50.8989   ZZ=            -56.2568
   XY=              2.7042   XZ=              0.4018   YZ=             -1.4069

  Exact polarizability:  89.816   1.717  74.432  -1.570  -2.548  60.785
 Approx polarizability: 131.913   1.329 103.609  -4.735  -2.281  95.567

                      1                      2                      3
                      A                      A                      A
 Frequencies --    157.0732               199.6011               262.8930
 Red. masses --      2.3337                 1.0312                 2.9109
 Frc consts  --      0.0339                 0.0242                 0.1185
 IR Inten    --      1.7998                 0.1052                 2.8029

                      4                      5                      6
                      A                      A                      A
 Frequencies --    276.0519               333.9047               375.9037
 Red. masses --      2.4943                 3.4124                 2.1826
 Frc consts  --      0.1120                 0.2242                 0.1817
 IR Inten    --      3.0124                 0.6985                 1.1876

                      7                      8                      9
                      A                      A                      A
 Frequencies --    491.5438               504.2475               536.9789
 Red. masses --      2.9187                 3.8206                 4.0623
 Frc consts  --      0.4155                 0.5724                 0.6901
 IR Inten    --      0.4559                11.5253                 3.1172

                     10                     11                     12
                      A                      A                      A
 Frequencies --    647.8843               718.4743               727.6265
 Red. masses --      4.0599                 5.8350                 1.6899
 Frc consts  --      1.0041                 1.7747                 0.5272
 IR Inten    --      1.5014                 5.7259                10.9542

                     13                     14                     15
                      A                      A                      A
 Frequencies --    794.6890               831.8208               855.2247
 Red. masses --      3.9431                 3.1810                 2.3785
 Frc consts  --      1.4672                 1.2968                 1.0250
 IR Inten    --      0.7359                 4.0826                63.5544

                     16                     17                     18
                      A                      A                      A
 Frequencies --    882.4147               910.9470               918.3373
 Red. masses --      3.0419                 2.1609                 2.8719
 Frc consts  --      1.3955                 1.0565                 1.4270
 IR Inten    --     12.1778                 9.1817                 6.4543

                     19                     20                     21
                      A                      A                      A
 Frequencies --    958.1367               988.5588              1024.3650
 Red. masses --      1.8153                 1.2561                 2.5411
 Frc consts  --      0.9819                 0.7232                 1.5710
 IR Inten    --     11.3087                 0.4111                20.9892

                     22                     23                     24
                      A                      A                      A
 Frequencies --   1044.0146              1065.4090              1077.3836
 Red. masses --      3.7771                 3.5197                 1.8117
 Frc consts  --      2.4256                 2.3539                 1.2390
 IR Inten    --     81.1492                13.5735                11.6849

                     25                     26                     27
                      A                      A                      A
 Frequencies --   1131.9721              1161.8331              1200.0989
 Red. masses --      1.9436                 1.3425                 1.1394
 Frc consts  --      1.4674                 1.0677                 0.9669
 IR Inten    --     31.9133                14.3656                14.1111

                     28                     29                     30
                      A                      A                      A
 Frequencies --   1212.1089              1218.6883              1280.4348
 Red. masses --      1.4246                 1.4082                 3.0942
 Frc consts  --      1.2331                 1.2322                 2.9889
 IR Inten    --     21.5202                11.0015                51.3374

                     31                     32                     33
                      A                      A                      A
 Frequencies --   1318.4747              1340.6133              1355.5441
 Red. masses --      1.7096                 1.6071                 1.3475
 Frc consts  --      1.7510                 1.7017                 1.4588
 IR Inten    --      5.9061                12.4732                 1.5265

                     34                     35                     36
                      A                      A                      A
 Frequencies --   1379.3249              1407.4084              1416.0087
 Red. masses --      1.3929                 1.3652                 1.7217
 Frc consts  --      1.5614                 1.5932                 2.0339
 IR Inten    --      3.3450                 7.0954                23.6509

                     37                     38                     39
                      A                      A                      A
 Frequencies --   1467.2228              1481.1496              1484.7668
 Red. masses --      1.0950                 1.0590                 1.0495
 Frc consts  --      1.3889                 1.3689                 1.3632
 IR Inten    --      5.9601                 0.6148                 2.6279

                     40                     41                     42
                      A                      A                      A
 Frequencies --   1519.0120              1708.7772              3013.5845
 Red. masses --      1.0916                 6.8735                 1.0609
 Frc consts  --      1.4840                11.8250                 5.6768
 IR Inten    --      0.8605                 9.6690                27.3721

                     43                     44                     45
                      A                      A                      A
 Frequencies --   3025.5441              3046.6088              3056.3115
 Red. masses --      1.0618                 1.0982                 1.0346
 Frc consts  --      5.7267                 6.0056                 5.6941
 IR Inten    --     39.6018                30.7861                 8.5573

                     46                     47                     48
                      A                      A                      A
 Frequencies --   3073.3936              3094.5942              3133.2563
 Red. masses --      1.1040                 1.0903                 1.1019
 Frc consts  --      6.1443                 6.1516                 6.3735
 IR Inten    --     20.8157                52.6414                11.5297

                     49                     50                     51
                      A                      A                      A
 Frequencies --   3144.6809              3157.4543              3185.6114
 Red. masses --      1.1027                 1.0853                 1.0980
 Frc consts  --      6.4250                 6.3748                 6.5649
 IR Inten    --     11.7440                10.3825                19.7118

 - Thermochemistry -
 -------------------
 Temperature   298.150 Kelvin.  Pressure   1.00000 Atm.
 Atom     1 has atomic number  6 and mass  12.00000

 Molecular mass:   126.06808 amu.
 Principal axes and moments of inertia in atomic units:
                           1         2         3
     Eigenvalues --   672.43002 964.412981183.71738
           X            0.99880   0.04753   0.01168
           Y           -0.04735   0.99877  -0.01504
           Z           -0.01238   0.01447   0.99982
 This molecule is an asymmetric top.
 Rotational symmetry number  1.
 Warning -- assumption of classical behavior for rotation
           may cause significant error
 Rotational temperatures (Kelvin)      0.12881     0.08981     0.07317
 Rotational constants (GHZ):           2.68391     1.87134     1.52464
 Zero-point vibrational energy     422269.6 (Joules/Mol)
                                  100.92485 (Kcal/Mol)
 Warning -- explicit consideration of   9 degrees of freedom as
           vibrations may cause significant error
 Vibrational temperatures:    225.99   287.18   378.24   397.18   480.41
          (Kelvin)            540.84   707.22   725.50   772.59   932.16
                             1033.72  1046.89  1143.38  1196.80  1230.48
                             1269.60  1310.65  1321.28  1378.54  1422.31
                             1473.83  1502.10  1532.88  1550.11  1628.65
                             1671.62  1726.67  1743.95  1753.42  1842.26
                             1896.99  1928.84  1950.32  1984.54  2024.94
                             2037.32  2111.00  2131.04  2136.25  2185.52
                             2458.55  4335.87  4353.08  4383.39  4397.35
                             4421.92  4452.43  4508.05  4524.49  4542.87
                             4583.38

 Zero-point correction=                           0.160834 (Hartree/Particle)
 Thermal correction to Energy=                    0.168235
 Thermal correction to Enthalpy=                  0.169180
 Thermal correction to Gibbs Free Energy=         0.129502
 Sum of electronic and zero-point Energies=           -423.047636
 Sum of electronic and thermal Energies=              -423.040235
 Sum of electronic and thermal Enthalpies=            -423.039291
 Sum of electronic and thermal Free Energies=         -423.078968

                     E (Thermal)             CV                S
                      KCal/Mol        Cal/Mol-Kelvin    Cal/Mol-Kelvin
 Total                  105.569             30.179             83.508
 Electronic               0.000              0.000              0.000
 Translational            0.889              2.981             40.409
 Rotational               0.889              2.981             28.131
 Vibrational            103.792             24.218             14.968
 Vibration     1          0.621              1.895              2.585
 Vibration     2          0.638              1.840              2.137
 Vibration     3          0.670              1.741              1.642
 Vibration     4          0.678              1.718              1.558
 Vibration     5          0.715              1.608              1.241
 Vibration     6          0.747              1.521              1.056
 Vibration     7          0.847              1.269              0.680
 Vibration     8          0.860              1.241              0.648
 Vibration     9          0.892              1.168              0.572

 Optimization completed.
    -- Stationary point found.
 Normal termination of Gaussian 09 at Mon Jan 27 20:26:59 2020.
