 Gaussian 09, Revision D.01,
 Gaussian 09:  ES64L-G09RevD.01 24-Apr-2013

 -----------------------------
 # b3lyp 6-31G(2df,p) opt Freq
 -----------------------------

 -----
 titel
 -----
 Symbolic Z-matrix:
 Charge =  0 Multiplicity = 1

 SCF Done:  E(RB3LYP) =  -423.218493678     A.U. after   14 cycles
 Optimization completed.
    -- Stationary point found.
 Normal termination of Gaussian 09 at Tue Jan 28 12:40:00 2020.

 ----------------------------------------------------------------------
 #N Geom=AllCheck Guess=TCheck SCRF=Check GenChk RB3LYP/6-31G(2df,p) Fr
 eq
 ----------------------------------------------------------------------

 Structure from the checkpoint file:  "/scratch/puck/g09_c2dfa0b3-3a39-41aa-807e-77779d0b8dd7/Gau-29190.chk"
 -----
 titel
 -----
 Charge =  0 Multiplicity = 1

                         Standard orientation:
 ---------------------------------------------------------------------
 Center     Atomic      Atomic             Coordinates (Angstroms)
 Number     Number       Type             X           Y           Z
 ---------------------------------------------------------------------
      1          6           0        2.759202   -0.372421   -0.688946
      2          6           0        2.100944    0.456974    0.430511
      3          6           0        0.612718    0.568867    0.284586
      4          6           0       -0.084968    1.653119   -0.078405
      5          6           0       -1.576262    1.425444   -0.150222
      6          6           0       -1.644058   -0.091826   -0.005462
      7          8           0       -2.493379   -0.844782   -0.409022
      8          6           0       -0.326545   -0.575595    0.617036
      9          8           0        0.039696   -1.846857    0.133648
     10          1           0        3.838434   -0.448196   -0.524340
     11          1           0        2.335991   -1.377824   -0.723991
     12          1           0        2.595646    0.098331   -1.663496
     13          1           0        2.334551   -0.004786    1.399175
     14          1           0        2.535399    1.463379    0.447224
     15          1           0        0.360865    2.618328   -0.294522
     16          1           0       -2.126428    1.907435    0.671192
     17          1           0       -2.051409    1.754314   -1.080845
     18          1           0       -0.460889   -0.620386    1.716013
     19          1           0       -0.778884   -2.244856   -0.198002
 ---------------------------------------------------------------------

 SCF Done:  E(RB3LYP) =  -423.218493678     A.U. after    1 cycles

 The electronic state is 1-A.
 Alpha  occ. eigenvalues --  -19.15062 -19.14000 -10.27913 -10.24170 -10.20387
 Alpha  occ. eigenvalues --  -10.19704 -10.19308 -10.19009 -10.17097  -1.06414
 Alpha  occ. eigenvalues --   -1.02001  -0.85364  -0.77361  -0.70998  -0.68418
 Alpha  occ. eigenvalues --   -0.61803  -0.56514  -0.53837  -0.49909  -0.48016
 Alpha  occ. eigenvalues --   -0.46383  -0.44991  -0.44162  -0.42094  -0.40139
 Alpha  occ. eigenvalues --   -0.39229  -0.37776  -0.36987  -0.36161  -0.34458
 Alpha  occ. eigenvalues --   -0.33464  -0.27616  -0.25688  -0.25054
 Alpha virt. eigenvalues --   -0.02789   0.00746   0.10344   0.10584   0.11311
 Alpha virt. eigenvalues --    0.13570   0.14482   0.14860   0.16500   0.16936
 Alpha virt. eigenvalues --    0.17694   0.18448   0.20265   0.21393   0.23698

 Mulliken charges:
               1
     1  C   -0.376734
     2  C   -0.294622
     3  C    0.303119
     4  C   -0.183330
     5  C   -0.369251
     6  C    0.362050
     7  O   -0.316871
     8  C   -0.037005
     9  O   -0.433669
    10  H    0.108954
    11  H    0.151095
    12  H    0.114474
    13  H    0.107702
    14  H    0.101234
    15  H    0.098840
    16  H    0.137054
    17  H    0.137511
    18  H    0.095705
    19  H    0.293742
 Sum of Mulliken charges =   0.00000

 Dipole moment (field-independent basis, Debye):
    X=              0.6318    Y=              2.1333    Z=              0.7191  Tot=              2.3382
 Quadrupole moment (field-independent basis, Debye-Ang):
   XX=            -56.8857   YY=            -52.4342   ZZ=            -52.5455
   XY=             -1.5984   XZ=             -1.4106   YZ=             -0.3789

  Exact polarizability:  92.499  -4.816  83.042   3.622  -2.022  59.289
 Approx polarizability: 124.968  -6.992 128.905   9.858  -3.955  92.695

                      1                      2                      3
                      A                      A                      A
 Frequencies --     59.8991                81.9607               172.0738
 Red. masses --      5.4778                 2.3845                 3.3037
 Frc consts  --      0.0116                 0.0094                 0.0576
 IR Inten    --      0.3035                 0.8738                 2.4644

                      4                      5                      6
                      A                      A                      A
 Frequencies --    209.8306               257.2420               265.0107
 Red. masses --      1.2953                 3.2137                 2.7178
 Frc consts  --      0.0336                 0.1253                 0.1125
 IR Inten    --      0.7053                16.9272                 2.2539

                      7                      8                      9
                      A                      A                      A
 Frequencies --    322.4459               350.4381               365.9266
 Red. masses --      2.6764                 2.6360                 1.2251
 Frc consts  --      0.1639                 0.1907                 0.0967
 IR Inten    --      2.1079                13.9870                52.6852

                     10                     11                     12
                      A                      A                      A
 Frequencies --    456.8390               528.0127               617.1295
 Red. masses --      2.8642                 3.5249                 3.9361
 Frc consts  --      0.3522                 0.5790                 0.8832
 IR Inten    --     10.5969                 4.6840                 1.8701

                     13                     14                     15
                      A                      A                      A
 Frequencies --    643.8495               697.0532               785.0324
 Red. masses --      4.1455                 5.6399                 1.6485
 Frc consts  --      1.0125                 1.6146                 0.5986
 IR Inten    --      4.1650                 1.6755                 3.7097

                     16                     17                     18
                      A                      A                      A
 Frequencies --    803.2367               838.8088               870.3743
 Red. masses --      1.4787                 1.3659                 2.9407
 Frc consts  --      0.5621                 0.5662                 1.3125
 IR Inten    --      9.6206                10.2260                 7.4581

                     19                     20                     21
                      A                      A                      A
 Frequencies --    966.8090               976.1961               984.8429
 Red. masses --      2.6389                 2.3589                 1.7900
 Frc consts  --      1.4533                 1.3245                 1.0229
 IR Inten    --      0.0191                 8.6485                 5.1829

                     22                     23                     24
                      A                      A                      A
 Frequencies --   1070.9916              1081.5756              1095.9373
 Red. masses --      3.5188                 1.8389                 1.4810
 Frc consts  --      2.3780                 1.2674                 1.0480
 IR Inten    --     45.8904                34.0454                 1.3149

                     25                     26                     27
                      A                      A                      A
 Frequencies --   1136.9087              1180.7750              1204.3971
 Red. masses --      1.4444                 2.2695                 1.8215
 Frc consts  --      1.1000                 1.8643                 1.5567
 IR Inten    --     46.6710                14.4153                 8.2526

                     28                     29                     30
                      A                      A                      A
 Frequencies --   1223.2540              1271.9881              1285.5029
 Red. masses --      1.8048                 1.3181                 1.6893
 Frc consts  --      1.5912                 1.2565                 1.6447
 IR Inten    --     40.4102                 0.9715                19.4985

                     31                     32                     33
                      A                      A                      A
 Frequencies --   1334.9476              1347.0014              1359.1721
 Red. masses --      1.2205                 1.6372                 1.4904
 Frc consts  --      1.2815                 1.7501                 1.6222
 IR Inten    --      5.2740                13.1490                15.1118

                     34                     35                     36
                      A                      A                      A
 Frequencies --   1407.0055              1413.7933              1455.1185
 Red. masses --      1.2119                 1.7170                 1.0889
 Frc consts  --      1.4135                 2.0220                 1.3584
 IR Inten    --      1.6841                23.4713                 5.3592

                     37                     38                     39
                      A                      A                      A
 Frequencies --   1482.1567              1495.8572              1514.1083
 Red. masses --      1.0805                 1.0414                 1.0640
 Frc consts  --      1.3985                 1.3729                 1.4371
 IR Inten    --      2.6976                 5.6081                 2.8925

                     40                     41                     42
                      A                      A                      A
 Frequencies --   1699.6848              1848.2925              2905.2243
 Red. masses --      7.4372                12.5261                 1.0779
 Frc consts  --     12.6589                25.2120                 5.3603
 IR Inten    --      1.9262               195.0537                36.4318

                     43                     44                     45
                      A                      A                      A
 Frequencies --   3010.1673              3016.2677              3042.0696
 Red. masses --      1.0679                 1.0606                 1.0376
 Frc consts  --      5.7010                 5.6852                 5.6576
 IR Inten    --     18.6434                26.8979                31.6791

                     46                     47                     48
                      A                      A                      A
 Frequencies --   3059.2472              3069.7639              3107.7549
 Red. masses --      1.0990                 1.0920                 1.1022
 Frc consts  --      6.0601                 6.0629                 6.2719
 IR Inten    --     22.6337                10.8836                34.7923

                     49                     50                     51
                      A                      A                      A
 Frequencies --   3143.9969              3186.7439              3722.9731
 Red. masses --      1.1002                 1.0930                 1.0654
 Frc consts  --      6.4073                 6.5401                 8.7002
 IR Inten    --     10.3552                11.9662                46.3816

 - Thermochemistry -
 -------------------
 Temperature   298.150 Kelvin.  Pressure   1.00000 Atm.
 Atom     1 has atomic number  6 and mass  12.00000

 Molecular mass:   126.06808 amu.
 Principal axes and moments of inertia in atomic units:
                           1         2         3
     Eigenvalues --   663.178711384.176681852.92530
           X            0.99958  -0.02677  -0.01066
           Y            0.02675   0.99964  -0.00180
           Z            0.01070   0.00151   0.99994
 This molecule is an asymmetric top.
 Rotational symmetry number  1.
 Warning -- assumption of classical behavior for rotation
           may cause significant error
 Rotational temperatures (Kelvin)      0.13060     0.06257     0.04674
 Rotational constants (GHZ):           2.72135     1.30384     0.97400
 Zero-point vibrational energy     415257.8 (Joules/Mol)
                                   99.24900 (Kcal/Mol)
 Warning -- explicit consideration of  12 degrees of freedom as
           vibrations may cause significant error
 Vibrational temperatures:     86.18   117.92   247.58   301.90   370.11
          (Kelvin)            381.29   463.93   504.20   526.49   657.29
                              759.69   887.91   926.35  1002.90  1129.49
                             1155.68  1206.86  1252.27  1391.02  1404.53
                             1416.97  1540.92  1556.14  1576.81  1635.76
                             1698.87  1732.86  1759.99  1830.10  1849.55
                             1920.69  1938.03  1955.54  2024.36  2034.13
                             2093.59  2132.49  2152.20  2178.46  2445.46
                             2659.28  4179.96  4330.95  4339.73  4376.85
                             4401.57  4416.70  4471.36  4523.50  4585.01
                             5356.52

 Zero-point correction=                           0.158163 (Hartree/Particle)
 Thermal correction to Energy=                    0.167287
 Thermal correction to Enthalpy=                  0.168231
 Thermal correction to Gibbs Free Energy=         0.123995
 Sum of electronic and zero-point Energies=           -423.060330
 Sum of electronic and thermal Energies=              -423.051206
 Sum of electronic and thermal Enthalpies=            -423.050262
 Sum of electronic and thermal Free Energies=         -423.094498

                     E (Thermal)             CV                S
                      KCal/Mol        Cal/Mol-Kelvin    Cal/Mol-Kelvin
 Total                  104.974             33.825             93.103
 Electronic               0.000              0.000              0.000
 Translational            0.889              2.981             40.409
 Rotational               0.889              2.981             28.921
 Vibrational            103.197             27.863             23.773
 Vibration     1          0.597              1.973              4.461
 Vibration     2          0.600              1.962              3.843
 Vibration     3          0.626              1.877              2.413
 Vibration     4          0.642              1.826              2.045
 Vibration     5          0.667              1.751              1.680
 Vibration     6          0.671              1.737              1.629
 Vibration     7          0.707              1.630              1.298
 Vibration     8          0.727              1.574              1.164
 Vibration     9          0.739              1.542              1.097
 Vibration    10          0.815              1.346              0.775
 Vibration    11          0.883              1.188              0.592
 Vibration    12          0.977              0.996              0.421

 Optimization completed.
    -- Stationary point found.
 Normal termination of Gaussian 09 at Tue Jan 28 13:21:55 2020.
