 Gaussian 09, Revision D.01,
 Gaussian 09:  ES64L-G09RevD.01 24-Apr-2013

 -----------------------------
 # b3lyp 6-31G(2df,p) opt Freq
 -----------------------------

 -----
 titel
 -----
 Symbolic Z-matrix:
 Charge =  0 Multiplicity = 1

 SCF Done:  E(RB3LYP) =  -423.208047180     A.U. after   14 cycles
 Optimization completed.
    -- Stationary point found.
 Normal termination of Gaussian 09 at Mon Jan 27 22:13:30 2020.

 ----------------------------------------------------------------------
 #N Geom=AllCheck Guess=TCheck SCRF=Check GenChk RB3LYP/6-31G(2df,p) Fr
 eq
 ----------------------------------------------------------------------

 Structure from the checkpoint file:  "/scratch/puck/g09_be8ebbb8-1e46-417c-b379-7e010364be48/Gau-28357.chk"
 -----
 titel
 -----
 Charge =  0 Multiplicity = 1

                         Standard orientation:
 ---------------------------------------------------------------------
 Center     Atomic      Atomic             Coordinates (Angstroms)
 Number     Number       Type             X           Y           Z
 ---------------------------------------------------------------------
      1          6           0       -1.855023    1.100656    0.927875
      2          6           0       -0.705353    0.566012    0.109919
      3          6           0        0.293316    1.573253   -0.480780
      4          6           0        1.611872    0.806354   -0.706532
      5          6           0        1.540061   -0.412039    0.229538
      6          8           0        2.487102   -1.022716    0.663078
      7          6           0        0.105743   -0.665482    0.535335
      8          6           0       -0.853060   -0.691377   -0.670079
      9          8           0       -2.049159   -1.387359   -0.515437
     10          1           0       -1.487834    1.645308    1.804164
     11          1           0       -2.459298    1.794583    0.331866
     12          1           0       -2.508830    0.294227    1.263575
     13          1           0       -0.094643    2.040164   -1.392376
     14          1           0        0.448905    2.374519    0.250177
     15          1           0        1.705392    0.441248   -1.737184
     16          1           0        2.509577    1.390791   -0.497321
     17          1           0       -0.161306   -1.283456    1.383885
     18          1           0       -0.418799   -0.751889   -1.668877
     19          1           0       -1.862051   -2.329147   -0.590702
 ---------------------------------------------------------------------

 SCF Done:  E(RB3LYP) =  -423.208047180     A.U. after    1 cycles

 The electronic state is 1-A.
 Alpha  occ. eigenvalues --  -19.15959 -19.11878 -10.26157 -10.25213 -10.21094
 Alpha  occ. eigenvalues --  -10.19561 -10.19316 -10.19012 -10.18186  -1.04621
 Alpha  occ. eigenvalues --   -1.02978  -0.88847  -0.76649  -0.73202  -0.66423
 Alpha  occ. eigenvalues --   -0.63248  -0.55838  -0.54762  -0.52511  -0.46995
 Alpha  occ. eigenvalues --   -0.46003  -0.44823  -0.42738  -0.41124  -0.40298
 Alpha  occ. eigenvalues --   -0.39471  -0.39054  -0.37586  -0.34560  -0.34275
 Alpha  occ. eigenvalues --   -0.33026  -0.29047  -0.26301  -0.23299
 Alpha virt. eigenvalues --   -0.00879   0.06657   0.08760   0.10265   0.12075
 Alpha virt. eigenvalues --    0.12240   0.14411   0.15326   0.15944   0.17949
 Alpha virt. eigenvalues --    0.18555   0.19914   0.20302   0.20820   0.23041

 Mulliken charges:
               1
     1  C   -0.478708
     2  C    0.292445
     3  C   -0.277216
     4  C   -0.347255
     5  C    0.418392
     6  O   -0.336815
     7  C   -0.254068
     8  C    0.062221
     9  O   -0.422899
    10  H    0.118296
    11  H    0.121894
    12  H    0.139299
    13  H    0.105183
    14  H    0.111319
    15  H    0.128146
    16  H    0.130098
    17  H    0.103764
    18  H    0.091252
    19  H    0.294650
 Sum of Mulliken charges =   0.00000

 Dipole moment (field-independent basis, Debye):
    X=             -1.8118    Y=              0.7445    Z=             -1.2289  Tot=              2.3124
 Quadrupole moment (field-independent basis, Debye-Ang):
   XX=            -63.8251   YY=            -48.6260   ZZ=            -51.9081
   XY=              5.7742   XZ=             -3.8222   YZ=              2.0926

  Exact polarizability:  87.567  -1.220  76.531   0.110  -2.065  65.639
 Approx polarizability: 126.923  -6.021 111.777   8.181  -4.901 101.837

                      1                      2                      3
                      A                      A                      A
 Frequencies --    110.3039               176.6348               196.8146
 Red. masses --      4.5734                 2.0312                 1.0776
 Frc consts  --      0.0328                 0.0373                 0.0246
 IR Inten    --      5.1803                 0.8500                 1.7291

                      4                      5                      6
                      A                      A                      A
 Frequencies --    225.9384               262.1302               294.4068
 Red. masses --      3.7526                 2.4666                 2.2187
 Frc consts  --      0.1129                 0.0999                 0.1133
 IR Inten    --      2.1741                12.2869                10.2701

                      7                      8                      9
                      A                      A                      A
 Frequencies --    329.9381               373.2241               458.4520
 Red. masses --      1.5182                 2.2870                 4.5417
 Frc consts  --      0.0974                 0.1877                 0.5624
 IR Inten    --    101.5450                 1.2340                 1.8069

                     10                     11                     12
                      A                      A                      A
 Frequencies --    486.8146               527.0999               600.6933
 Red. masses --      3.7307                 3.5278                 2.7272
 Frc consts  --      0.5209                 0.5775                 0.5798
 IR Inten    --     12.6165                 5.0315                 3.6287

                     13                     14                     15
                      A                      A                      A
 Frequencies --    650.6063               675.2096               812.2175
 Red. masses --      5.0881                 2.9374                 2.3973
 Frc consts  --      1.2690                 0.7890                 0.9318
 IR Inten    --      1.3279                 2.5461                 2.8066

                     16                     17                     18
                      A                      A                      A
 Frequencies --    836.4704               881.0971               909.9842
 Red. masses --      3.0370                 2.2897                 2.2594
 Frc consts  --      1.2520                 1.0473                 1.1023
 IR Inten    --      5.7161                 0.2599                22.3281

                     19                     20                     21
                      A                      A                      A
 Frequencies --    954.2181               994.8083              1022.6475
 Red. masses --      1.4283                 2.4361                 1.7015
 Frc consts  --      0.7662                 1.4205                 1.0484
 IR Inten    --      3.4963                 6.4531                 3.1029

                     22                     23                     24
                      A                      A                      A
 Frequencies --   1035.6409              1060.6104              1089.1630
 Red. masses --      1.9015                 1.2026                 1.5071
 Frc consts  --      1.2016                 0.7971                 1.0534
 IR Inten    --     30.4584                 6.2898                16.4821

                     25                     26                     27
                      A                      A                      A
 Frequencies --   1145.4862              1163.4017              1174.8719
 Red. masses --      3.1584                 1.7418                 2.7970
 Frc consts  --      2.4418                 1.3890                 2.2747
 IR Inten    --     64.2595                11.2121                82.3347

                     28                     29                     30
                      A                      A                      A
 Frequencies --   1213.5865              1237.8595              1261.7082
 Red. masses --      1.6415                 1.6182                 1.5525
 Frc consts  --      1.4244                 1.4609                 1.4562
 IR Inten    --     19.2404                12.7651                90.8443

                     31                     32                     33
                      A                      A                      A
 Frequencies --   1279.9572              1303.2929              1317.2320
 Red. masses --      1.4503                 1.7187                 1.5502
 Frc consts  --      1.3999                 1.7200                 1.5847
 IR Inten    --      9.8396                13.7143                 3.5165

                     34                     35                     36
                      A                      A                      A
 Frequencies --   1375.4144              1418.3221              1461.6466
 Red. masses --      1.5104                 1.3740                 1.1296
 Frc consts  --      1.6834                 1.6285                 1.4219
 IR Inten    --      4.0232                 2.7527                 8.0340

                     37                     38                     39
                      A                      A                      A
 Frequencies --   1468.5996              1492.4833              1495.1139
 Red. masses --      1.6833                 1.0743                 1.0619
 Frc consts  --      2.1390                 1.4099                 1.3985
 IR Inten    --      3.2111                 1.6708                 3.1056

                     40                     41                     42
                      A                      A                      A
 Frequencies --   1510.6360              1825.5742              3031.9185
 Red. masses --      1.2316                12.2646                 1.0407
 Frc consts  --      1.6559                24.0826                 5.6365
 IR Inten    --     10.9814               299.7502                16.3915

                     43                     44                     45
                      A                      A                      A
 Frequencies --   3037.6997              3040.1606              3077.3296
 Red. masses --      1.0656                 1.0622                 1.1030
 Frc consts  --      5.7937                 5.7845                 6.1543
 IR Inten    --     29.7347                28.0177                14.5407

                     46                     47                     48
                      A                      A                      A
 Frequencies --   3087.2042              3089.4153              3118.3606
 Red. masses --      1.0876                 1.0999                 1.0947
 Frc consts  --      6.1071                 6.1854                 6.2717
 IR Inten    --     27.2898                27.8254                11.2078

                     49                     50                     51
                      A                      A                      A
 Frequencies --   3138.8283              3196.2987              3806.8519
 Red. masses --      1.0978                 1.0912                 1.0663
 Frc consts  --      6.3724                 6.5683                 9.1047
 IR Inten    --      8.8354                 2.8496                33.2562

 - Thermochemistry -
 -------------------
 Temperature   298.150 Kelvin.  Pressure   1.00000 Atm.
 Atom     1 has atomic number  6 and mass  12.00000

 Molecular mass:   126.06808 amu.
 Principal axes and moments of inertia in atomic units:
                           1         2         3
     Eigenvalues --   703.703201307.035971617.57157
           X            0.99930   0.01342  -0.03490
           Y           -0.01304   0.99985   0.01108
           Z            0.03504  -0.01061   0.99933
 This molecule is an asymmetric top.
 Rotational symmetry number  1.
 Warning -- assumption of classical behavior for rotation
           may cause significant error
 Rotational temperatures (Kelvin)      0.12308     0.06627     0.05355
 Rotational constants (GHZ):           2.56463     1.38079     1.11571
 Zero-point vibrational energy     417104.2 (Joules/Mol)
                                   99.69030 (Kcal/Mol)
 Warning -- explicit consideration of  12 degrees of freedom as
           vibrations may cause significant error
 Vibrational temperatures:    158.70   254.14   283.17   325.07   377.15
          (Kelvin)            423.59   474.71   536.99   659.61   700.42
                              758.38   864.26   936.08   971.47  1168.60
                             1203.49  1267.70  1309.26  1372.91  1431.31
                             1471.36  1490.05  1525.98  1567.06  1648.10
                             1673.87  1690.38  1746.08  1781.00  1815.31
                             1841.57  1875.15  1895.20  1978.91  2040.65
                             2102.98  2112.98  2147.35  2151.13  2173.47
                             2626.59  4362.25  4370.57  4374.11  4427.59
                             4441.79  4444.97  4486.62  4516.07  4598.76
                             5477.20

 Zero-point correction=                           0.158867 (Hartree/Particle)
 Thermal correction to Energy=                    0.167463
 Thermal correction to Enthalpy=                  0.168407
 Thermal correction to Gibbs Free Energy=         0.126052
 Sum of electronic and zero-point Energies=           -423.049181
 Sum of electronic and thermal Energies=              -423.040584
 Sum of electronic and thermal Enthalpies=            -423.039640
 Sum of electronic and thermal Free Energies=         -423.081995

                     E (Thermal)             CV                S
                      KCal/Mol        Cal/Mol-Kelvin    Cal/Mol-Kelvin
 Total                  105.085             33.300             89.144
 Electronic               0.000              0.000              0.000
 Translational            0.889              2.981             40.409
 Rotational               0.889              2.981             28.788
 Vibrational            103.307             27.338             19.947
 Vibration     1          0.606              1.941              3.264
 Vibration     2          0.628              1.871              2.364
 Vibration     3          0.636              1.844              2.163
 Vibration     4          0.650              1.802              1.911
 Vibration     5          0.669              1.742              1.648
 Vibration     6          0.689              1.684              1.449
 Vibration     7          0.713              1.616              1.260
 Vibration     8          0.745              1.527              1.067
 Vibration     9          0.816              1.342              0.771
 Vibration    10          0.843              1.279              0.692
 Vibration    11          0.882              1.190              0.594
 Vibration    12          0.959              1.030              0.448

 Optimization completed.
    -- Stationary point found.
 Normal termination of Gaussian 09 at Tue Jan 28 00:27:45 2020.
