 Gaussian 09, Revision D.01,
 Gaussian 09:  ES64L-G09RevD.01 24-Apr-2013

 -----------------------------
 # b3lyp 6-31G(2df,p) opt Freq
 -----------------------------

 -----
 titel
 -----
 Symbolic Z-matrix:
 Charge =  0 Multiplicity = 1

 SCF Done:  E(RB3LYP) =  -423.199795257     A.U. after   13 cycles
 Optimization completed.
    -- Stationary point found.
 Normal termination of Gaussian 09 at Mon Jan 27 11:30:40 2020.

 ----------------------------------------------------------------------
 #N Geom=AllCheck Guess=TCheck SCRF=Check GenChk RB3LYP/6-31G(2df,p) Fr
 eq
 ----------------------------------------------------------------------

 Structure from the checkpoint file:  "/scratch/puck/g09_7433bf38-e2fd-476d-ada3-8102c30df5e6/Gau-61248.chk"
 -----
 titel
 -----
 Charge =  0 Multiplicity = 1

                         Standard orientation:
 ---------------------------------------------------------------------
 Center     Atomic      Atomic             Coordinates (Angstroms)
 Number     Number       Type             X           Y           Z
 ---------------------------------------------------------------------
      1          6           0        1.500553    0.701220   -0.645592
      2          6           0        1.701692   -0.676069    0.010298
      3          8           0        0.633695   -1.610397   -0.126646
      4          6           0       -0.646935   -1.196159    0.347991
      5          8           0       -0.575897   -0.119080    1.247611
      6          6           0       -0.765009    1.096110    0.502675
      7          6           0        0.612252    1.681212    0.142745
      8          6           0       -1.554379    0.651224   -0.704917
      9          6           0       -1.494418   -0.671215   -0.795784
     10          1           0        2.493141    1.156138   -0.752725
     11          1           0        1.113609    0.555569   -1.659881
     12          1           0        2.545540   -1.179551   -0.471268
     13          1           0        1.954175   -0.541125    1.071078
     14          1           0       -1.064117   -2.061741    0.873327
     15          1           0       -1.316135    1.791202    1.146230
     16          1           0        0.480852    2.611055   -0.425079
     17          1           0        1.110336    1.951761    1.081366
     18          1           0       -2.011723    1.343149   -1.400735
     19          1           0       -1.890592   -1.308579   -1.574531
 ---------------------------------------------------------------------

 SCF Done:  E(RB3LYP) =  -423.199795257     A.U. after    1 cycles

 The electronic state is 1-A.
 Alpha  occ. eigenvalues --  -19.14335 -19.12739 -10.27299 -10.23777 -10.22123
 Alpha  occ. eigenvalues --  -10.18940 -10.18579 -10.18476 -10.18107  -1.06618
 Alpha  occ. eigenvalues --   -0.99617  -0.80378  -0.78686  -0.71134  -0.69341
 Alpha  occ. eigenvalues --   -0.58021  -0.56910  -0.56559  -0.52400  -0.49954
 Alpha  occ. eigenvalues --   -0.46862  -0.43377  -0.42864  -0.42183  -0.41061
 Alpha  occ. eigenvalues --   -0.39259  -0.36609  -0.34659  -0.33989  -0.32776
 Alpha  occ. eigenvalues --   -0.31357  -0.27275  -0.25862  -0.24098
 Alpha virt. eigenvalues --    0.00606   0.09174   0.12225   0.12831   0.14094
 Alpha virt. eigenvalues --    0.14421   0.14784   0.15763   0.16217   0.16866
 Alpha virt. eigenvalues --    0.17328   0.18374   0.20360   0.21160   0.22577

 Mulliken charges:
               1
     1  C   -0.222328
     2  C   -0.051534
     3  O   -0.282925
     4  C    0.148195
     5  O   -0.247370
     6  C    0.045739
     7  C   -0.205687
     8  C   -0.094571
     9  C   -0.095283
    10  H    0.097712
    11  H    0.109635
    12  H    0.101909
    13  H    0.098146
    14  H    0.089598
    15  H    0.085670
    16  H    0.095283
    17  H    0.107598
    18  H    0.108220
    19  H    0.111994
 Sum of Mulliken charges =   0.00000

 Dipole moment (field-independent basis, Debye):
    X=             -0.2494    Y=              1.6775    Z=             -1.0223  Tot=              1.9803
 Quadrupole moment (field-independent basis, Debye-Ang):
   XX=            -50.5867   YY=            -52.3173   ZZ=            -54.2642
   XY=              1.2167   XZ=              1.6746   YZ=             -0.1833

  Exact polarizability:  75.698   0.573  83.668   3.054   1.159  64.173
 Approx polarizability: 102.311  -0.709 132.217   3.917   3.466  99.451

                      1                      2                      3
                      A                      A                      A
 Frequencies --    161.7132               216.3562               312.8964
 Red. masses --      3.5408                 2.5530                 2.5995
 Frc consts  --      0.0546                 0.0704                 0.1500
 IR Inten    --      4.9643                 0.9204                 1.2894

                      4                      5                      6
                      A                      A                      A
 Frequencies --    327.7457               359.8306               412.5529
 Red. masses --      4.0500                 2.3108                 3.8395
 Frc consts  --      0.2563                 0.1763                 0.3850
 IR Inten    --      1.8258                 6.0125                 4.1422

                      7                      8                      9
                      A                      A                      A
 Frequencies --    491.1484               594.5861               613.3102
 Red. masses --      1.9560                 4.2575                 3.0975
 Frc consts  --      0.2780                 0.8868                 0.6865
 IR Inten    --      0.6030                 1.2036                 7.7688

                     10                     11                     12
                      A                      A                      A
 Frequencies --    730.9881               782.4730               818.7228
 Red. masses --      1.6701                 3.2099                 4.3195
 Frc consts  --      0.5258                 1.1579                 1.7059
 IR Inten    --     14.8570                 4.6352                 4.6407

                     13                     14                     15
                      A                      A                      A
 Frequencies --    840.9472               851.5341               859.0653
 Red. masses --      3.2779                 3.0466                 1.9512
 Frc consts  --      1.3658                 1.3016                 0.8484
 IR Inten    --     12.2201                 2.1128                 1.7197

                     16                     17                     18
                      A                      A                      A
 Frequencies --    930.6783               940.4553               958.8338
 Red. masses --      2.6858                 1.7720                 1.7756
 Frc consts  --      1.3706                 0.9234                 0.9618
 IR Inten    --     28.7690                 6.0369                23.0370

                     19                     20                     21
                      A                      A                      A
 Frequencies --    964.8129               985.8892              1007.6554
 Red. masses --      2.2401                 2.4205                 2.1119
 Frc consts  --      1.2286                 1.3862                 1.2634
 IR Inten    --     24.4191                11.3169                36.6453

                     22                     23                     24
                      A                      A                      A
 Frequencies --   1059.2406              1075.7082              1105.2133
 Red. masses --      1.8132                 4.1372                 2.0746
 Frc consts  --      1.1986                 2.8206                 1.4931
 IR Inten    --     17.6749               106.7516                17.1780

                     25                     26                     27
                      A                      A                      A
 Frequencies --   1132.0745              1139.0379              1201.6411
 Red. masses --      1.7048                 3.0824                 1.2482
 Frc consts  --      1.2873                 2.3562                 1.0619
 IR Inten    --     37.0126               100.9080                 8.2335

                     28                     29                     30
                      A                      A                      A
 Frequencies --   1244.4655              1291.6799              1313.7473
 Red. masses --      1.4048                 1.2424                 1.2244
 Frc consts  --      1.2818                 1.2213                 1.2451
 IR Inten    --      2.5053                 0.6979                 0.9971

                     31                     32                     33
                      A                      A                      A
 Frequencies --   1329.1079              1351.5450              1368.1115
 Red. masses --      1.2729                 1.5976                 1.3520
 Frc consts  --      1.3249                 1.7194                 1.4910
 IR Inten    --     17.3522                 4.9528                 7.2226

                     34                     35                     36
                      A                      A                      A
 Frequencies --   1369.2218              1381.0671              1393.9929
 Red. masses --      1.5223                 1.2679                 1.4318
 Frc consts  --      1.6815                 1.4248                 1.6393
 IR Inten    --     12.2197                 3.5765                 2.0170

                     37                     38                     39
                      A                      A                      A
 Frequencies --   1418.7931              1470.0609              1477.2946
 Red. masses --      1.2550                 1.0826                 1.0974
 Frc consts  --      1.4885                 1.3784                 1.4111
 IR Inten    --     10.2337                 3.1054                 4.7619

                     40                     41                     42
                      A                      A                      A
 Frequencies --   1493.7911              1681.9816              3010.0299
 Red. masses --      1.0871                 6.5227                 1.0666
 Frc consts  --      1.4293                10.8723                 5.6934
 IR Inten    --      2.4672                 1.6413                43.5090

                     43                     44                     45
                      A                      A                      A
 Frequencies --   3022.8424              3034.0874              3047.4879
 Red. masses --      1.0617                 1.0638                 1.0827
 Frc consts  --      5.7156                 5.7698                 5.9246
 IR Inten    --     10.3821                29.1188                71.6449

                     46                     47                     48
                      A                      A                      A
 Frequencies --   3056.2501              3063.4926              3079.6272
 Red. masses --      1.0882                 1.1025                 1.0962
 Frc consts  --      5.9887                 6.0963                 6.1255
 IR Inten    --     50.1680                10.0996                37.3275

                     49                     50                     51
                      A                      A                      A
 Frequencies --   3084.6605              3209.3253              3238.7851
 Red. masses --      1.1003                 1.0869                 1.1064
 Frc consts  --      6.1686                 6.5961                 6.8381
 IR Inten    --     44.8478                 3.8600                 6.3905

 - Thermochemistry -
 -------------------
 Temperature   298.150 Kelvin.  Pressure   1.00000 Atm.
 Atom     1 has atomic number  6 and mass  12.00000

 Molecular mass:   126.06808 amu.
 Principal axes and moments of inertia in atomic units:
                           1         2         3
     Eigenvalues --   767.15973 846.514191177.64527
           X            0.99312   0.11642   0.01254
           Y           -0.11637   0.99320  -0.00451
           Z           -0.01298   0.00302   0.99991
 This molecule is an asymmetric top.
 Rotational symmetry number  1.
 Warning -- assumption of classical behavior for rotation
           may cause significant error
 Rotational temperatures (Kelvin)      0.11290     0.10232     0.07355
 Rotational constants (GHZ):           2.35250     2.13197     1.53250
 Zero-point vibrational energy     426507.9 (Joules/Mol)
                                  101.93784 (Kcal/Mol)
 Warning -- explicit consideration of   9 degrees of freedom as
           vibrations may cause significant error
 Vibrational temperatures:    232.67   311.29   450.19   471.55   517.72
          (Kelvin)            593.57   706.65   855.48   882.42  1051.73
                             1125.80  1177.96  1209.93  1225.17  1236.00
                             1339.04  1353.10  1379.55  1388.15  1418.47
                             1449.79  1524.01  1547.70  1590.15  1628.80
                             1638.82  1728.89  1790.51  1858.44  1890.19
                             1912.29  1944.57  1968.40  1970.00  1987.05
                             2005.64  2041.32  2115.09  2125.49  2149.23
                             2419.99  4330.76  4349.19  4365.37  4384.65
                             4397.26  4407.68  4430.89  4438.13  4617.50
                             4659.88

 Zero-point correction=                           0.162448 (Hartree/Particle)
 Thermal correction to Energy=                    0.169386
 Thermal correction to Enthalpy=                  0.170330
 Thermal correction to Gibbs Free Energy=         0.131487
 Sum of electronic and zero-point Energies=           -423.037347
 Sum of electronic and thermal Energies=              -423.030409
 Sum of electronic and thermal Enthalpies=            -423.029465
 Sum of electronic and thermal Free Energies=         -423.068309

                     E (Thermal)             CV                S
                      KCal/Mol        Cal/Mol-Kelvin    Cal/Mol-Kelvin
 Total                  106.291             28.713             81.753
 Electronic               0.000              0.000              0.000
 Translational            0.889              2.981             40.409
 Rotational               0.889              2.981             28.127
 Vibrational            104.514             22.751             13.217
 Vibration     1          0.622              1.889              2.530
 Vibration     2          0.645              1.816              1.989
 Vibration     3          0.701              1.649              1.347
 Vibration     4          0.711              1.620              1.271
 Vibration     5          0.734              1.555              1.123
 Vibration     6          0.776              1.443              0.918
 Vibration     7          0.847              1.270              0.681
 Vibration     8          0.952              1.043              0.459
 Vibration     9          0.973              1.004              0.427

 Normal termination of Gaussian 09 at Mon Jan 27 13:53:08 2020.
