 Gaussian 09, Revision D.01,
 Gaussian 09:  ES64L-G09RevD.01 24-Apr-2013

 -----------------------------
 # b3lyp 6-31G(2df,p) opt Freq
 -----------------------------

 -----
 titel
 -----
 Symbolic Z-matrix:
 Charge =  0 Multiplicity = 1

 SCF Done:  E(RB3LYP) =  -423.200391856     A.U. after   14 cycles
 Optimization completed.
    -- Stationary point found.
 Normal termination of Gaussian 09 at Tue Jan 28 03:17:08 2020.

 ----------------------------------------------------------------------
 #N Geom=AllCheck Guess=TCheck SCRF=Check GenChk RB3LYP/6-31G(2df,p) Fr
 eq
 ----------------------------------------------------------------------

 Structure from the checkpoint file:  "/scratch/puck/g09_3e725eeb-a8c6-4314-85e8-f089e984edd2/Gau-1277.chk"
 -----
 titel
 -----
 Charge =  0 Multiplicity = 1

                         Standard orientation:
 ---------------------------------------------------------------------
 Center     Atomic      Atomic             Coordinates (Angstroms)
 Number     Number       Type             X           Y           Z
 ---------------------------------------------------------------------
      1          6           0        2.752869   -1.032062   -0.110871
      2          6           0        1.567957   -0.168093    0.315207
      3          6           0        1.287152    1.031654   -0.626788
      4          6           0       -0.187754    1.325713   -0.442847
      5          8           0       -0.628067    1.348181    0.909146
      6          6           0       -0.830540    0.129663    0.162444
      7          6           0        0.221246   -0.932945    0.391762
      8          6           0       -2.251683   -0.193729   -0.123361
      9          8           0       -2.654510   -1.303336   -0.370058
     10          1           0        2.591993   -1.460115   -1.107050
     11          1           0        3.679020   -0.448562   -0.143280
     12          1           0        2.907640   -1.861551    0.586829
     13          1           0        1.769396    0.239496    1.310435
     14          1           0        1.918789    1.897836   -0.405351
     15          1           0        1.458366    0.760176   -1.676809
     16          1           0       -0.717665    1.997247   -1.115312
     17          1           0        0.089507   -1.457678    1.342328
     18          1           0        0.131237   -1.679331   -0.406262
     19          1           0       -2.923154    0.692517   -0.091504
 ---------------------------------------------------------------------

 SCF Done:  E(RB3LYP) =  -423.200391856     A.U. after    1 cycles

 The electronic state is 1-A.
 Alpha  occ. eigenvalues --  -19.16871 -19.14386 -10.27431 -10.25369 -10.24930
 Alpha  occ. eigenvalues --  -10.19827 -10.19675 -10.19168 -10.18197  -1.09157
 Alpha  occ. eigenvalues --   -1.04924  -0.82933  -0.74323  -0.72908  -0.67882
 Alpha  occ. eigenvalues --   -0.62069  -0.57196  -0.56168  -0.50811  -0.48652
 Alpha  occ. eigenvalues --   -0.46997  -0.44999  -0.43177  -0.42280  -0.40759
 Alpha  occ. eigenvalues --   -0.39224  -0.38939  -0.36957  -0.36179  -0.33643
 Alpha  occ. eigenvalues --   -0.33359  -0.30444  -0.28225  -0.25568
 Alpha virt. eigenvalues --   -0.03465   0.08276   0.10556   0.11090   0.11591
 Alpha virt. eigenvalues --    0.12785   0.13626   0.14097   0.15247   0.16468
 Alpha virt. eigenvalues --    0.16881   0.17974   0.19336   0.20103   0.20524

 Mulliken charges:
               1
     1  C   -0.408561
     2  C    0.029134
     3  C   -0.255886
     4  C   -0.006814
     5  O   -0.288358
     6  C    0.309237
     7  C   -0.307050
     8  C    0.090824
     9  O   -0.260432
    10  H    0.115211
    11  H    0.116171
    12  H    0.119398
    13  H    0.096119
    14  H    0.115691
    15  H    0.108139
    16  H    0.103201
    17  H    0.117455
    18  H    0.121696
    19  H    0.084825
 Sum of Mulliken charges =   0.00000

 Dipole moment (field-independent basis, Debye):
    X=              2.2469    Y=              1.2045    Z=             -0.8858  Tot=              2.6989
 Quadrupole moment (field-independent basis, Debye-Ang):
   XX=            -56.7421   YY=            -55.7615   ZZ=            -53.1524
   XY=             -4.5367   XZ=             -0.3507   YZ=             -3.9873

  Exact polarizability:  89.515   3.027  78.791  -0.047  -2.599  61.039
 Approx polarizability: 113.062  13.204 126.534  -0.261   2.096  99.761

                      1                      2                      3
                      A                      A                      A
 Frequencies --     97.0304               119.0332               182.5471
 Red. masses --      3.8544                 3.1340                 3.5251
 Frc consts  --      0.0214                 0.0262                 0.0692
 IR Inten    --      3.0008                 1.9624                 7.9844

                      4                      5                      6
                      A                      A                      A
 Frequencies --    233.7952               254.8276               304.6092
 Red. masses --      1.2530                 1.7034                 2.6407
 Frc consts  --      0.0404                 0.0652                 0.1444
 IR Inten    --      2.2922                 2.9144                 1.2546

                      7                      8                      9
                      A                      A                      A
 Frequencies --    376.7192               398.7633               429.9313
 Red. masses --      2.5231                 3.9385                 1.8022
 Frc consts  --      0.2110                 0.3690                 0.1963
 IR Inten    --      5.8453                 3.1013                 4.1696

                     10                     11                     12
                      A                      A                      A
 Frequencies --    481.0784               615.6438               654.3411
 Red. masses --      5.8348                 4.7549                 5.1445
 Frc consts  --      0.7956                 1.0618                 1.2978
 IR Inten    --      3.0004                21.0340                 0.1632

                     13                     14                     15
                      A                      A                      A
 Frequencies --    763.8995               823.9056               849.1445
 Red. masses --      3.7245                 4.0550                 2.8630
 Frc consts  --      1.2805                 1.6218                 1.2163
 IR Inten    --     10.5278                12.9833                16.1185

                     16                     17                     18
                      A                      A                      A
 Frequencies --    879.5029               904.3444               932.9039
 Red. masses --      2.1233                 1.6446                 1.5593
 Frc consts  --      0.9677                 0.7924                 0.7996
 IR Inten    --      3.5790                 1.5181                 8.6572

                     19                     20                     21
                      A                      A                      A
 Frequencies --    953.8255              1001.4828              1021.9251
 Red. masses --      2.0121                 2.1905                 1.3762
 Frc consts  --      1.0786                 1.2944                 0.8468
 IR Inten    --      4.5503                 2.0845                 6.1424

                     22                     23                     24
                      A                      A                      A
 Frequencies --   1055.7418              1090.7057              1135.8823
 Red. masses --      1.6462                 2.4997                 1.9806
 Frc consts  --      1.0811                 1.7521                 1.5056
 IR Inten    --     11.9636                 1.5434                 9.5304

                     25                     26                     27
                      A                      A                      A
 Frequencies --   1152.1528              1176.8600              1235.3397
 Red. masses --      1.8887                 1.4007                 1.7380
 Frc consts  --      1.4772                 1.1430                 1.5627
 IR Inten    --      1.9917                 0.9323                14.8201

                     28                     29                     30
                      A                      A                      A
 Frequencies --   1256.4044              1279.4475              1301.4702
 Red. masses --      1.3901                 1.5852                 1.5072
 Frc consts  --      1.2929                 1.5289                 1.5041
 IR Inten    --      2.3728                 2.9317                 2.7571

                     31                     32                     33
                      A                      A                      A
 Frequencies --   1337.7291              1353.7960              1369.2421
 Red. masses --      2.7107                 1.2989                 1.6634
 Frc consts  --      2.8581                 1.4025                 1.8375
 IR Inten    --      2.2823                 1.1399                 9.5342

                     34                     35                     36
                      A                      A                      A
 Frequencies --   1392.3415              1414.5022              1439.0839
 Red. masses --      1.4075                 1.2515                 2.0934
 Frc consts  --      1.6077                 1.4753                 2.5543
 IR Inten    --      3.0791                 0.6170                30.3054

                     37                     38                     39
                      A                      A                      A
 Frequencies --   1476.1614              1488.8690              1498.7655
 Red. masses --      1.0948                 1.1104                 1.0515
 Frc consts  --      1.4056                 1.4503                 1.3917
 IR Inten    --      2.8153                 1.3384                 2.7187

                     40                     41                     42
                      A                      A                      A
 Frequencies --   1499.9549              1817.2767              2896.6348
 Red. masses --      1.0490                10.6684                 1.0842
 Frc consts  --      1.3906                20.7583                 5.3597
 IR Inten    --      7.0348               199.0699                94.6927

                     43                     44                     45
                      A                      A                      A
 Frequencies --   3026.6969              3030.2244              3047.7534
 Red. masses --      1.0415                 1.0578                 1.0651
 Frc consts  --      5.6216                 5.7230                 5.8293
 IR Inten    --     14.6401                31.0369                10.0878

                     46                     47                     48
                      A                      A                      A
 Frequencies --   3056.0739              3082.8343              3092.8639
 Red. masses --      1.0804                 1.0996                 1.1015
 Frc consts  --      5.9449                 6.1571                 6.2079
 IR Inten    --      5.9157                11.6226                11.7465

                     49                     50                     51
                      A                      A                      A
 Frequencies --   3099.9696              3101.5930              3139.1569
 Red. masses --      1.1013                 1.1002                 1.0904
 Frc consts  --      6.2357                 6.2356                 6.3308
 IR Inten    --     21.8613                52.3911                24.7508

 - Thermochemistry -
 -------------------
 Temperature   298.150 Kelvin.  Pressure   1.00000 Atm.
 Atom     1 has atomic number  6 and mass  12.00000

 Molecular mass:   126.06808 amu.
 Principal axes and moments of inertia in atomic units:
                           1         2         3
     Eigenvalues --   604.371411469.541981820.43205
           X            0.99921  -0.03954  -0.00336
           Y            0.03934   0.99813  -0.04681
           Z            0.00521   0.04664   0.99890
 This molecule is an asymmetric top.
 Rotational symmetry number  1.
 Warning -- assumption of classical behavior for rotation
           may cause significant error
 Rotational temperatures (Kelvin)      0.14331     0.05894     0.04758
 Rotational constants (GHZ):           2.98615     1.22810     0.99138
 Zero-point vibrational energy     416448.7 (Joules/Mol)
                                   99.53362 (Kcal/Mol)
 Warning -- explicit consideration of  11 degrees of freedom as
           vibrations may cause significant error
 Vibrational temperatures:    139.60   171.26   262.64   336.38   366.64
          (Kelvin)            438.26   542.01   573.73   618.57   692.16
                              885.77   941.45  1099.08  1185.41  1221.73
                             1265.41  1301.15  1342.24  1372.34  1440.91
                             1470.32  1518.98  1569.28  1634.28  1657.69
                             1693.24  1777.38  1807.68  1840.84  1872.52
                             1924.69  1947.81  1970.03  2003.27  2035.15
                             2070.52  2123.86  2142.15  2156.39  2158.10
                             2614.65  4167.61  4354.74  4359.81  4385.03
                             4397.00  4435.51  4449.94  4460.16  4462.50
                             4516.54

 Zero-point correction=                           0.158617 (Hartree/Particle)
 Thermal correction to Energy=                    0.167065
 Thermal correction to Enthalpy=                  0.168009
 Thermal correction to Gibbs Free Energy=         0.125529
 Sum of electronic and zero-point Energies=           -423.041775
 Sum of electronic and thermal Energies=              -423.033327
 Sum of electronic and thermal Enthalpies=            -423.032383
 Sum of electronic and thermal Free Energies=         -423.074863

                     E (Thermal)             CV                S
                      KCal/Mol        Cal/Mol-Kelvin    Cal/Mol-Kelvin
 Total                  104.835             32.049             89.407
 Electronic               0.000              0.000              0.000
 Translational            0.889              2.981             40.409
 Rotational               0.889              2.981             28.871
 Vibrational            103.057             26.087             20.127
 Vibration     1          0.603              1.951              3.513
 Vibration     2          0.609              1.933              3.116
 Vibration     3          0.630              1.864              2.302
 Vibration     4          0.654              1.789              1.850
 Vibration     5          0.665              1.755              1.697
 Vibration     6          0.696              1.665              1.391
 Vibration     7          0.747              1.520              1.052
 Vibration     8          0.765              1.473              0.967
 Vibration     9          0.791              1.405              0.859
 Vibration    10          0.837              1.292              0.707
 Vibration    11          0.975              0.999              0.424

 Optimization completed.
    -- Stationary point found.
 Normal termination of Gaussian 09 at Tue Jan 28 03:58:28 2020.
