 Gaussian 09, Revision D.01,
 Gaussian 09:  ES64L-G09RevD.01 24-Apr-2013

 -----------------------------
 # b3lyp 6-31G(2df,p) opt Freq
 -----------------------------

 -----
 titel
 -----
 Symbolic Z-matrix:
 Charge =  0 Multiplicity = 1

 SCF Done:  E(RB3LYP) =  -423.164656237     A.U. after   14 cycles
 Optimization completed.
    -- Stationary point found.
 Normal termination of Gaussian 09 at Tue Jan 28 12:12:15 2020.

 ----------------------------------------------------------------------
 #N Geom=AllCheck Guess=TCheck SCRF=Check GenChk RB3LYP/6-31G(2df,p) Fr
 eq
 ----------------------------------------------------------------------

 Structure from the checkpoint file:  "/scratch/puck/g09_27e9dbed-9ddb-4212-9d13-3272ef86558a/Gau-54394.chk"
 -----
 titel
 -----
 Charge =  0 Multiplicity = 1

                         Standard orientation:
 ---------------------------------------------------------------------
 Center     Atomic      Atomic             Coordinates (Angstroms)
 Number     Number       Type             X           Y           Z
 ---------------------------------------------------------------------
      1          6           0        2.493361   -0.544462   -0.060515
      2          8           0        1.295858   -0.626289   -0.825327
      3          6           0        0.155462   -0.260055   -0.123980
      4          6           0       -0.382829   -1.225643    0.986341
      5          6           0       -1.764834   -1.281608    0.268201
      6          6           0       -1.271805   -0.272819   -0.798384
      7          6           0       -1.478828    1.219863   -0.414075
      8          6           0       -0.062457    1.235030    0.195979
      9          8           0        0.642854    2.100343    0.632433
     10          1           0        2.461588   -1.216098    0.809406
     11          1           0        3.305758   -0.859331   -0.718767
     12          1           0        2.676170    0.477963    0.286987
     13          1           0        0.153861   -2.176627    0.958393
     14          1           0       -0.371501   -0.846137    2.010617
     15          1           0       -1.991602   -2.269446   -0.137956
     16          1           0       -2.624042   -0.950008    0.856925
     17          1           0       -1.400495   -0.521999   -1.849997
     18          1           0       -1.550165    1.900451   -1.268741
     19          1           0       -2.297693    1.446973    0.274880
 ---------------------------------------------------------------------

 SCF Done:  E(RB3LYP) =  -423.164656237     A.U. after    1 cycles

 The electronic state is 1-A.
 Alpha  occ. eigenvalues --  -19.14964 -19.13957 -10.26667 -10.23990 -10.22349
 Alpha  occ. eigenvalues --  -10.19688 -10.19362 -10.19219 -10.19186  -1.05238
 Alpha  occ. eigenvalues --   -1.03619  -0.87337  -0.75469  -0.70565  -0.66229
 Alpha  occ. eigenvalues --   -0.62355  -0.57492  -0.52345  -0.49975  -0.48271
 Alpha  occ. eigenvalues --   -0.46330  -0.44546  -0.44245  -0.42203  -0.41932
 Alpha  occ. eigenvalues --   -0.39557  -0.37156  -0.36554  -0.33948  -0.33094
 Alpha  occ. eigenvalues --   -0.32136  -0.29732  -0.27804  -0.22206
 Alpha virt. eigenvalues --   -0.02486   0.08696   0.09117   0.09405   0.12363
 Alpha virt. eigenvalues --    0.13059   0.14178   0.14867   0.15235   0.15950
 Alpha virt. eigenvalues --    0.17891   0.18261   0.19969   0.21105   0.22057

 Mulliken charges:
               1
     1  C   -0.271419
     2  O   -0.292254
     3  C    0.338396
     4  C   -0.304566
     5  C   -0.220865
     6  C   -0.103620
     7  C   -0.356534
     8  C    0.339713
     9  O   -0.304485
    10  H    0.108938
    11  H    0.127972
    12  H    0.144376
    13  H    0.120195
    14  H    0.110170
    15  H    0.111207
    16  H    0.102801
    17  H    0.085504
    18  H    0.138568
    19  H    0.125904
 Sum of Mulliken charges =   0.00000

 Dipole moment (field-independent basis, Debye):
    X=             -1.3011    Y=             -1.7563    Z=              0.0653  Tot=              2.1867
 Quadrupole moment (field-independent basis, Debye-Ang):
   XX=            -49.3254   YY=            -57.4432   ZZ=            -53.5310
   XY=             -3.0284   XZ=              0.6191   YZ=             -3.2836

  Exact polarizability:  85.825   0.100  77.059   2.743  -1.127  64.318
 Approx polarizability: 116.020   4.246 112.103   5.154   3.573 100.532

                      1                      2                      3
                      A                      A                      A
 Frequencies --     52.3980               112.0021               135.7225
 Red. masses --      2.7677                 2.4451                 2.6572
 Frc consts  --      0.0045                 0.0181                 0.0288
 IR Inten    --      2.5111                 4.7542                 3.4506

                      4                      5                      6
                      A                      A                      A
 Frequencies --    177.6227               220.4513               288.4325
 Red. masses --      1.1693                 3.2847                 3.6152
 Frc consts  --      0.0217                 0.0941                 0.1772
 IR Inten    --      1.0382                 3.3663                 1.3070

                      7                      8                      9
                      A                      A                      A
 Frequencies --    315.7269               419.9579               467.1232
 Red. masses --      3.4895                 2.7265                 2.9354
 Frc consts  --      0.2049                 0.2833                 0.3774
 IR Inten    --      1.5909                 2.1571                 5.6767

                     10                     11                     12
                      A                      A                      A
 Frequencies --    506.8459               582.2317               666.6131
 Red. masses --      2.7556                 3.0995                 3.6984
 Frc consts  --      0.4171                 0.6191                 0.9683
 IR Inten    --      0.3782                 1.0926                10.4073

                     13                     14                     15
                      A                      A                      A
 Frequencies --    731.0267               773.0400               821.5350
 Red. masses --      1.6542                 1.9428                 2.2917
 Frc consts  --      0.5208                 0.6840                 0.9113
 IR Inten    --      0.4084                 5.3255                 6.3298

                     16                     17                     18
                      A                      A                      A
 Frequencies --    866.6733               927.4076               965.6852
 Red. masses --      2.5647                 2.1747                 2.7591
 Frc consts  --      1.1350                 1.1020                 1.5160
 IR Inten    --      0.2629                 2.1781                 3.4047

                     19                     20                     21
                      A                      A                      A
 Frequencies --   1004.8366              1009.7084              1030.1836
 Red. masses --      2.7079                 1.7080                 4.9297
 Frc consts  --      1.6109                 1.0260                 3.0825
 IR Inten    --     36.6012                10.3023                30.9419

                     22                     23                     24
                      A                      A                      A
 Frequencies --   1039.7106              1075.0436              1128.2427
 Red. masses --      2.6702                 2.5274                 1.6394
 Frc consts  --      1.7007                 1.7210                 1.2295
 IR Inten    --     15.2583                 2.5172                 1.7811

                     25                     26                     27
                      A                      A                      A
 Frequencies --   1148.9010              1177.4795              1184.0859
 Red. masses --      3.1465                 1.5920                 1.3085
 Frc consts  --      2.4471                 1.3005                 1.0809
 IR Inten    --    110.6590                 1.3947                 5.4885

                     28                     29                     30
                      A                      A                      A
 Frequencies --   1211.9513              1215.8496              1229.2329
 Red. masses --      1.4895                 1.5284                 1.3575
 Frc consts  --      1.2890                 1.3312                 1.2085
 IR Inten    --     10.9054                 1.7956                10.3806

                     31                     32                     33
                      A                      A                      A
 Frequencies --   1246.9333              1275.9786              1301.3270
 Red. masses --      1.4611                 1.5529                 1.5171
 Frc consts  --      1.3385                 1.4897                 1.5137
 IR Inten    --      1.0025                 0.5703                 1.8095

                     34                     35                     36
                      A                      A                      A
 Frequencies --   1316.3360              1433.4594              1466.7219
 Red. masses --      2.9254                 1.1011                 1.0851
 Frc consts  --      2.9865                 1.3331                 1.3754
 IR Inten    --     73.6467                10.5942                 1.2487

                     37                     38                     39
                      A                      A                      A
 Frequencies --   1479.1369              1487.1706              1493.2844
 Red. masses --      1.1631                 1.0489                 1.1157
 Frc consts  --      1.4992                 1.3668                 1.4659
 IR Inten    --      0.6904                 5.8392                 2.6765

                     40                     41                     42
                      A                      A                      A
 Frequencies --   1512.4145              1874.1876              3000.9601
 Red. masses --      1.0500                12.7854                 1.0412
 Frc consts  --      1.4150                26.4601                 5.5247
 IR Inten    --      7.3708               236.9302                46.9350

                     43                     44                     45
                      A                      A                      A
 Frequencies --   3052.7461              3061.4702              3067.7126
 Red. masses --      1.0590                 1.0576                 1.0601
 Frc consts  --      5.8149                 5.8405                 5.8782
 IR Inten    --      9.8091                38.2411                23.4612

                     46                     47                     48
                      A                      A                      A
 Frequencies --   3077.8268              3103.8864              3106.6807
 Red. masses --      1.0929                 1.1050                 1.1079
 Frc consts  --      6.0996                 6.2724                 6.2999
 IR Inten    --     29.5355                 5.5435                 3.0584

                     49                     50                     51
                      A                      A                      A
 Frequencies --   3125.9171              3128.9026              3134.4688
 Red. masses --      1.1059                 1.1030                 1.0920
 Frc consts  --      6.3667                 6.3624                 6.3214
 IR Inten    --     13.3617                21.9181                31.9710

 - Thermochemistry -
 -------------------
 Temperature   298.150 Kelvin.  Pressure   1.00000 Atm.
 Atom     1 has atomic number  6 and mass  12.00000

 Molecular mass:   126.06808 amu.
 Principal axes and moments of inertia in atomic units:
                           1         2         3
     Eigenvalues --   814.606851037.773351480.15188
           X            0.99885  -0.04697   0.00987
           Y            0.04737   0.99786  -0.04512
           Z           -0.00773   0.04553   0.99893
 This molecule is an asymmetric top.
 Rotational symmetry number  1.
 Warning -- assumption of classical behavior for rotation
           may cause significant error
 Rotational temperatures (Kelvin)      0.10633     0.08346     0.05852
 Rotational constants (GHZ):           2.21548     1.73905     1.21929
 Zero-point vibrational energy     414106.8 (Joules/Mol)
                                   98.97389 (Kcal/Mol)
 Warning -- explicit consideration of  11 degrees of freedom as
           vibrations may cause significant error
 Vibrational temperatures:     75.39   161.15   195.27   255.56   317.18
          (Kelvin)            414.99   454.26   604.22   672.09   729.24
                              837.70   959.11  1051.78  1112.23  1182.00
                             1246.95  1334.33  1389.40  1445.73  1452.74
                             1482.20  1495.91  1546.75  1623.29  1653.01
                             1694.13  1703.63  1743.73  1749.33  1768.59
                             1794.06  1835.85  1872.32  1893.91  2062.43
                             2110.28  2128.15  2139.70  2148.50  2176.02
                             2696.53  4317.71  4392.22  4404.77  4413.75
                             4428.30  4465.79  4469.82  4497.49  4501.79
                             4509.80

 Zero-point correction=                           0.157725 (Hartree/Particle)
 Thermal correction to Energy=                    0.166567
 Thermal correction to Enthalpy=                  0.167512
 Thermal correction to Gibbs Free Energy=         0.123759
 Sum of electronic and zero-point Energies=           -423.006931
 Sum of electronic and thermal Energies=              -422.998089
 Sum of electronic and thermal Enthalpies=            -422.997145
 Sum of electronic and thermal Free Energies=         -423.040897

                     E (Thermal)             CV                S
                      KCal/Mol        Cal/Mol-Kelvin    Cal/Mol-Kelvin
 Total                  104.523             32.637             92.085
 Electronic               0.000              0.000              0.000
 Translational            0.889              2.981             40.409
 Rotational               0.889              2.981             28.616
 Vibrational            102.745             26.675             23.060
 Vibration     1          0.596              1.977              4.725
 Vibration     2          0.607              1.940              3.234
 Vibration     3          0.614              1.918              2.863
 Vibration     4          0.628              1.870              2.353
 Vibration     5          0.647              1.810              1.955
 Vibration     6          0.685              1.695              1.483
 Vibration     7          0.703              1.644              1.332
 Vibration     8          0.783              1.427              0.892
 Vibration     9          0.824              1.323              0.746
 Vibration    10          0.862              1.235              0.641
 Vibration    11          0.939              1.070              0.481

 Optimization completed.
    -- Stationary point found.
 Normal termination of Gaussian 09 at Tue Jan 28 12:58:04 2020.
