 Gaussian 09, Revision D.01,
 Gaussian 09:  ES64L-G09RevD.01 24-Apr-2013

 -----------------------------
 # b3lyp 6-31G(2df,p) opt Freq
 -----------------------------

 -----
 titel
 -----
 Symbolic Z-matrix:
 Charge =  0 Multiplicity = 1

 SCF Done:  E(RB3LYP) =  -423.173363583     A.U. after   15 cycles
 Optimization completed.
    -- Stationary point found.
 Normal termination of Gaussian 09 at Mon Jan 27 15:26:20 2020.

 ----------------------------------------------------------------------
 #N Geom=AllCheck Guess=TCheck SCRF=Check GenChk RB3LYP/6-31G(2df,p) Fr
 eq
 ----------------------------------------------------------------------

 Structure from the checkpoint file:  "/scratch/puck/g09_733e641d-7c44-4dfd-930e-888c500327f8/Gau-162459.chk"
 -----
 titel
 -----
 Charge =  0 Multiplicity = 1

                         Standard orientation:
 ---------------------------------------------------------------------
 Center     Atomic      Atomic             Coordinates (Angstroms)
 Number     Number       Type             X           Y           Z
 ---------------------------------------------------------------------
      1          6           0       -2.652344    1.339434   -0.518981
      2          6           0       -2.448551   -0.174735   -0.364061
      3          8           0       -3.216856   -0.698879    0.716717
      4          6           0       -1.027136   -0.519220   -0.241133
      5          6           0        0.138577   -0.794812   -0.106442
      6          6           0        1.547901   -1.133371    0.027230
      7          6           0        2.532417    0.056294    0.005376
      8          6           0        2.092887    1.333538    0.687219
      9          8           0        3.614778   -0.072561   -0.510527
     10          1           0       -3.720398    1.555105   -0.605144
     11          1           0       -2.255992    1.870656    0.352765
     12          1           0       -2.138404    1.713647   -1.409230
     13          1           0       -2.855013   -0.674608   -1.251708
     14          1           0       -2.808137   -0.395168    1.534880
     15          1           0        1.713970   -1.647463    0.986300
     16          1           0        1.870346   -1.828739   -0.753952
     17          1           0        1.733745    1.125610    1.701157
     18          1           0        2.923830    2.038605    0.717679
     19          1           0        1.250170    1.771110    0.142485
 ---------------------------------------------------------------------

 SCF Done:  E(RB3LYP) =  -423.173363583     A.U. after    1 cycles

 The electronic state is 1-A.
 Alpha  occ. eigenvalues --  -19.14297 -19.13673 -10.28187 -10.26063 -10.22021
 Alpha  occ. eigenvalues --  -10.19369 -10.18955 -10.18660 -10.18167  -1.04904
 Alpha  occ. eigenvalues --   -1.02628  -0.80789  -0.77657  -0.73995  -0.70793
 Alpha  occ. eigenvalues --   -0.64069  -0.55442  -0.53363  -0.48918  -0.47460
 Alpha  occ. eigenvalues --   -0.46950  -0.46327  -0.44134  -0.42406  -0.41334
 Alpha  occ. eigenvalues --   -0.40203  -0.39105  -0.38262  -0.35910  -0.34980
 Alpha  occ. eigenvalues --   -0.28986  -0.28298  -0.26307  -0.24314
 Alpha virt. eigenvalues --   -0.01875   0.02933   0.04207   0.08351   0.09857
 Alpha virt. eigenvalues --    0.12342   0.13173   0.14378   0.14907   0.15935
 Alpha virt. eigenvalues --    0.16536   0.17147   0.17774   0.20454   0.21771

 Mulliken charges:
               1
     1  C   -0.386348
     2  C   -0.018585
     3  O   -0.411774
     4  C    0.087832
     5  C    0.018047
     6  C   -0.444578
     7  C    0.396500
     8  C   -0.474189
     9  O   -0.285747
    10  H    0.128256
    11  H    0.114327
    12  H    0.125610
    13  H    0.121264
    14  H    0.281341
    15  H    0.154392
    16  H    0.157559
    17  H    0.137678
    18  H    0.142826
    19  H    0.155590
 Sum of Mulliken charges =   0.00000

 Dipole moment (field-independent basis, Debye):
    X=             -1.0560    Y=              1.2781    Z=              1.3601  Tot=              2.1444
 Quadrupole moment (field-independent basis, Debye-Ang):
   XX=            -68.5408   YY=            -52.3197   ZZ=            -49.6364
   XY=             -3.7073   XZ=              5.1981   YZ=              0.4928

  Exact polarizability: 111.501  -5.608  70.112  -0.254   1.203  62.608
 Approx polarizability: 161.468 -10.766  95.745  -3.242   0.680  95.762

                      1                      2                      3
                      A                      A                      A
 Frequencies --     16.0081                36.0437                64.6647
 Red. masses --      3.3000                 4.5091                 4.0359
 Frc consts  --      0.0005                 0.0035                 0.0099
 IR Inten    --      0.6437                 5.6763                 0.6319

                      4                      5                      6
                      A                      A                      A
 Frequencies --    126.9932               141.0807               178.3482
 Red. masses --      3.3390                 1.1056                 3.0774
 Frc consts  --      0.0317                 0.0130                 0.0577
 IR Inten    --      1.3040                 0.0367                 2.9655

                      7                      8                      9
                      A                      A                      A
 Frequencies --    254.3769               265.8543               323.3329
 Red. masses --      1.1392                 1.1341                 2.7937
 Frc consts  --      0.0434                 0.0472                 0.1721
 IR Inten    --      5.3027                75.7574                29.7289

                     10                     11                     12
                      A                      A                      A
 Frequencies --    333.0604               371.4528               442.0417
 Red. masses --      3.2051                 4.1381                 3.2404
 Frc consts  --      0.2095                 0.3364                 0.3731
 IR Inten    --      4.8064                 1.4010                13.7606

                     13                     14                     15
                      A                      A                      A
 Frequencies --    470.2868               528.6994               557.3528
 Red. masses --      3.3681                 3.0150                 5.9656
 Frc consts  --      0.4389                 0.4965                 1.0919
 IR Inten    --      4.1484                22.1532                 6.3634

                     16                     17                     18
                      A                      A                      A
 Frequencies --    591.2511               739.9322               771.3784
 Red. masses --      3.6553                 3.1307                 3.2061
 Frc consts  --      0.7529                 1.0099                 1.1240
 IR Inten    --      4.2305                 5.8189                 2.9987

                     19                     20                     21
                      A                      A                      A
 Frequencies --    839.7215               901.4226              1000.5789
 Red. masses --      1.6179                 2.3580                 1.8214
 Frc consts  --      0.6721                 1.1289                 1.0744
 IR Inten    --      1.3764                14.3596                 3.3593

                     22                     23                     24
                      A                      A                      A
 Frequencies --   1019.6572              1048.5349              1066.5412
 Red. masses --      1.9117                 1.8478                 1.7582
 Frc consts  --      1.1710                 1.1969                 1.1783
 IR Inten    --     40.1215                 2.6022                33.9836

                     25                     26                     27
                      A                      A                      A
 Frequencies --   1098.1770              1170.9924              1193.8145
 Red. masses --      3.2516                 2.1766                 1.6832
 Frc consts  --      2.3104                 1.7585                 1.4134
 IR Inten    --     60.5630                35.1842                31.7029

                     28                     29                     30
                      A                      A                      A
 Frequencies --   1231.7606              1282.4275              1300.1319
 Red. masses --      1.7773                 1.3646                 1.5851
 Frc consts  --      1.5888                 1.3223                 1.5786
 IR Inten    --     57.0673                 8.1870                15.0990

                     31                     32                     33
                      A                      A                      A
 Frequencies --   1338.4951              1382.8033              1398.5315
 Red. masses --      1.3893                 1.3104                 1.2380
 Frc consts  --      1.4665                 1.4763                 1.4266
 IR Inten    --     22.3419                28.9941                 4.7433

                     34                     35                     36
                      A                      A                      A
 Frequencies --   1417.0718              1439.9780              1458.9445
 Red. masses --      1.1912                 1.0873                 1.0520
 Frc consts  --      1.4094                 1.3284                 1.3192
 IR Inten    --     80.8669                 3.7193                15.4124

                     37                     38                     39
                      A                      A                      A
 Frequencies --   1472.3518              1489.0293              1491.9445
 Red. masses --      1.0506                 1.0515                 1.0567
 Frc consts  --      1.3418                 1.3736                 1.3858
 IR Inten    --      9.3611                 7.9556                 0.3694

                     40                     41                     42
                      A                      A                      A
 Frequencies --   1824.2926              2356.4102              3005.1516
 Red. masses --     10.9555                11.8937                 1.0677
 Frc consts  --     21.4819                38.9106                 5.6813
 IR Inten    --    206.9033                 6.9971                11.6485

                     43                     44                     45
                      A                      A                      A
 Frequencies --   3036.3799              3040.7686              3043.7399
 Red. masses --      1.0533                 1.0636                 1.0366
 Frc consts  --      5.7213                 5.7941                 5.6580
 IR Inten    --      9.1365                18.4181                 1.6818

                     46                     47                     48
                      A                      A                      A
 Frequencies --   3082.8888              3106.1531              3112.4562
 Red. masses --      1.0908                 1.0971                 1.1012
 Frc consts  --      6.1081                 6.2364                 6.2854
 IR Inten    --      3.1983                 5.2084                25.8749

                     49                     50                     51
                      A                      A                      A
 Frequencies --   3127.7055              3158.4932              3804.4714
 Red. masses --      1.1029                 1.1031                 1.0661
 Frc consts  --      6.3571                 6.4837                 9.0915
 IR Inten    --     22.5666                10.4882                16.2076

 - Thermochemistry -
 -------------------
 Temperature   298.150 Kelvin.  Pressure   1.00000 Atm.
 Atom     1 has atomic number  6 and mass  12.00000

 Molecular mass:   126.06808 amu.
 Principal axes and moments of inertia in atomic units:
                           1         2         3
     Eigenvalues --   487.125842844.986933081.88770
           X            0.99987  -0.01060   0.01240
           Y            0.01043   0.99986   0.01343
           Z           -0.01254  -0.01330   0.99983
 This molecule is an asymmetric top.
 Rotational symmetry number  1.
 Warning -- assumption of classical behavior for rotation
           may cause significant error
 Rotational temperatures (Kelvin)      0.17781     0.03044     0.02810
 Rotational constants (GHZ):           3.70488     0.63436     0.58560
 Zero-point vibrational energy     406455.1 (Joules/Mol)
                                   97.14509 (Kcal/Mol)
 Warning -- explicit consideration of  16 degrees of freedom as
           vibrations may cause significant error
 Vibrational temperatures:     23.03    51.86    93.04   182.71   202.98
          (Kelvin)            256.60   365.99   382.50   465.20   479.20
                              534.44   636.00   676.64   760.68   801.91
                              850.68  1064.60  1109.84  1208.17  1296.94
                             1439.61  1467.06  1508.61  1534.51  1580.03
                             1684.79  1717.63  1772.23  1845.12  1870.60
                             1925.79  1989.54  2012.17  2038.85  2071.80
                             2099.09  2118.38  2142.38  2146.57  2624.75
                             3390.34  4323.74  4368.67  4374.98  4379.26
                             4435.58  4469.06  4478.12  4500.06  4544.36
                             5473.78

 Zero-point correction=                           0.154811 (Hartree/Particle)
 Thermal correction to Energy=                    0.165882
 Thermal correction to Enthalpy=                  0.166826
 Thermal correction to Gibbs Free Energy=         0.116068
 Sum of electronic and zero-point Energies=           -423.018553
 Sum of electronic and thermal Energies=              -423.007482
 Sum of electronic and thermal Enthalpies=            -423.006538
 Sum of electronic and thermal Free Energies=         -423.057296

                     E (Thermal)             CV                S
                      KCal/Mol        Cal/Mol-Kelvin    Cal/Mol-Kelvin
 Total                  104.092             37.930            106.829
 Electronic               0.000              0.000              0.000
 Translational            0.889              2.981             40.409
 Rotational               0.889              2.981             29.836
 Vibrational            102.315             31.968             36.584
 Vibration     1          0.593              1.986              7.076
 Vibration     2          0.594              1.982              5.465
 Vibration     3          0.597              1.971              4.310
 Vibration     4          0.611              1.926              2.991
 Vibration     5          0.615              1.912              2.789
 Vibration     6          0.629              1.869              2.346
 Vibration     7          0.665              1.755              1.700
 Vibration     8          0.672              1.736              1.623
 Vibration     9          0.708              1.629              1.293
 Vibration    10          0.715              1.609              1.245
 Vibration    11          0.743              1.531              1.074
 Vibration    12          0.802              1.378              0.820
 Vibration    13          0.827              1.316              0.737
 Vibration    14          0.884              1.186              0.590
 Vibration    15          0.913              1.124              0.529
 Vibration    16          0.949              1.050              0.465

 Optimization completed.
    -- Stationary point found.
 Normal termination of Gaussian 09 at Mon Jan 27 15:58:32 2020.
