 Gaussian 09, Revision D.01,
 Gaussian 09:  ES64L-G09RevD.01 24-Apr-2013

 -----------------------------
 # b3lyp 6-31G(2df,p) opt Freq
 -----------------------------

 -----
 titel
 -----
 Symbolic Z-matrix:
 Charge =  0 Multiplicity = 1

 SCF Done:  E(RB3LYP) =  -423.155701117     A.U. after   14 cycles
 Optimization completed.
    -- Stationary point found.
 Normal termination of Gaussian 09 at Mon Jan 27 18:42:02 2020.

 ----------------------------------------------------------------------
 #N Geom=AllCheck Guess=TCheck SCRF=Check GenChk RB3LYP/6-31G(2df,p) Fr
 eq
 ----------------------------------------------------------------------

 Structure from the checkpoint file:  "/scratch/puck/g09_bc66b44a-3f95-4b52-8b80-bd72f77c7464/Gau-116277.chk"
 -----
 titel
 -----
 Charge =  0 Multiplicity = 1

                         Standard orientation:
 ---------------------------------------------------------------------
 Center     Atomic      Atomic             Coordinates (Angstroms)
 Number     Number       Type             X           Y           Z
 ---------------------------------------------------------------------
      1          6           0       -0.176572    2.005647   -0.733141
      2          6           0        0.402647    0.702881   -0.263082
      3          6           0        1.901826    0.382416   -0.256227
      4          8           0        1.773831   -0.376009    0.980896
      5          6           0        0.401571   -0.038710    1.034243
      6          6           0       -0.358041   -0.641726   -0.173744
      7          6           0        0.126268   -1.905199   -0.856184
      8          6           0       -1.824573   -0.530968    0.027248
      9          8           0       -2.397750    0.383775    0.579075
     10          1           0       -1.207492    2.120611   -0.397854
     11          1           0        0.408696    2.844985   -0.341711
     12          1           0       -0.158434    2.067455   -1.827583
     13          1           0        2.322956   -0.212258   -1.073204
     14          1           0        2.513648    1.274866   -0.087796
     15          1           0       -0.074875    0.123349    1.993693
     16          1           0       -0.538227   -2.744062   -0.624029
     17          1           0        0.157505   -1.797669   -1.945786
     18          1           0        1.124980   -2.174342   -0.505855
     19          1           0       -2.396149   -1.411116   -0.344319
 ---------------------------------------------------------------------

 SCF Done:  E(RB3LYP) =  -423.155701117     A.U. after    1 cycles

 The electronic state is 1-A.
 Alpha  occ. eigenvalues --  -19.15590 -19.13412 -10.26863 -10.25337 -10.24585
 Alpha  occ. eigenvalues --  -10.21740 -10.21066 -10.18629 -10.18365  -1.07068
 Alpha  occ. eigenvalues --   -1.04102  -0.85681  -0.75627  -0.71372  -0.69114
 Alpha  occ. eigenvalues --   -0.64431  -0.56530  -0.54323  -0.50010  -0.47452
 Alpha  occ. eigenvalues --   -0.46973  -0.44329  -0.43356  -0.42164  -0.41427
 Alpha  occ. eigenvalues --   -0.40840  -0.39421  -0.38312  -0.37433  -0.33536
 Alpha  occ. eigenvalues --   -0.32632  -0.27861  -0.25686  -0.24142
 Alpha virt. eigenvalues --   -0.02665   0.07282   0.09251   0.10226   0.12434
 Alpha virt. eigenvalues --    0.13287   0.13751   0.13848   0.15260   0.17108
 Alpha virt. eigenvalues --    0.17797   0.18580   0.19365   0.20442   0.20793

 Mulliken charges:
               1
     1  C   -0.511883
     2  C    0.208102
     3  C   -0.142032
     4  O   -0.286972
     5  C    0.057686
     6  C    0.136569
     7  C   -0.506003
     8  C    0.090782
     9  O   -0.285736
    10  H    0.167068
    11  H    0.120201
    12  H    0.119052
    13  H    0.113060
    14  H    0.120780
    15  H    0.129682
    16  H    0.122370
    17  H    0.122161
    18  H    0.148089
    19  H    0.077024
 Sum of Mulliken charges =   0.00000

 Dipole moment (field-independent basis, Debye):
    X=              1.2842    Y=             -0.2882    Z=             -1.7779  Tot=              2.2121
 Quadrupole moment (field-independent basis, Debye-Ang):
   XX=            -59.5816   YY=            -51.5429   ZZ=            -52.9999
   XY=              5.0042   XZ=             -0.6636   YZ=              0.1991

  Exact polarizability:  86.477   4.821  79.487  -1.852   2.749  65.497
 Approx polarizability: 129.854   2.045 113.082  -1.693   4.534 105.292

                      1                      2                      3
                      A                      A                      A
 Frequencies --    130.2587               159.4891               179.4369
 Red. masses --      4.1017                 1.1398                 1.7970
 Frc consts  --      0.0410                 0.0171                 0.0341
 IR Inten    --      7.9476                 1.5789                 3.2027

                      4                      5                      6
                      A                      A                      A
 Frequencies --    185.2210               222.1414               250.5562
 Red. masses --      1.1945                 4.1864                 2.8553
 Frc consts  --      0.0241                 0.1217                 0.1056
 IR Inten    --      0.5728                 5.1667                 1.1429

                      7                      8                      9
                      A                      A                      A
 Frequencies --    293.8772               313.3617               352.6626
 Red. masses --      3.5059                 2.2901                 2.5894
 Frc consts  --      0.1784                 0.1325                 0.1897
 IR Inten    --      4.7789                 1.4115                 3.5728

                     10                     11                     12
                      A                      A                      A
 Frequencies --    423.7390               498.7251               609.1077
 Red. masses --      2.9126                 3.0049                 3.9442
 Frc consts  --      0.3081                 0.4404                 0.8622
 IR Inten    --      0.8507                 3.3906                 0.9915

                     13                     14                     15
                      A                      A                      A
 Frequencies --    672.4671               686.9101               730.8627
 Red. masses --      4.4940                 4.3475                 4.4657
 Frc consts  --      1.1974                 1.2086                 1.4054
 IR Inten    --     23.4488                 0.5206                14.4536

                     16                     17                     18
                      A                      A                      A
 Frequencies --    899.2601               925.1389               958.6508
 Red. masses --      2.5327                 1.9371                 1.6246
 Frc consts  --      1.2067                 0.9768                 0.8796
 IR Inten    --     33.3653                59.3906                93.5978

                     19                     20                     21
                      A                      A                      A
 Frequencies --    981.6013               986.0927               998.6482
 Red. masses --      3.3312                 1.6689                 1.6517
 Frc consts  --      1.8912                 0.9561                 0.9705
 IR Inten    --     20.6382                 3.5711                 2.0238

                     22                     23                     24
                      A                      A                      A
 Frequencies --   1038.4016              1061.7583              1108.4670
 Red. masses --      1.6103                 2.6407                 1.7499
 Frc consts  --      1.0230                 1.7540                 1.2668
 IR Inten    --      2.1976                29.0557                 1.9112

                     25                     26                     27
                      A                      A                      A
 Frequencies --   1126.8459              1154.2599              1167.6844
 Red. masses --      1.7470                 2.0096                 1.5453
 Frc consts  --      1.3070                 1.5775                 1.2414
 IR Inten    --      2.0483                32.7430                 5.6018

                     28                     29                     30
                      A                      A                      A
 Frequencies --   1222.4139              1230.2933              1276.2535
 Red. masses --      3.3787                 1.5052                 2.9810
 Frc consts  --      2.9747                 1.3424                 2.8608
 IR Inten    --      4.9210                 2.8719                58.0196

                     31                     32                     33
                      A                      A                      A
 Frequencies --   1308.6728              1407.2675              1409.8962
 Red. masses --      1.6524                 1.2621                 1.2620
 Frc consts  --      1.6674                 1.4726                 1.4781
 IR Inten    --      1.6973                10.1425                 6.5606

                     34                     35                     36
                      A                      A                      A
 Frequencies --   1427.1706              1455.7769              1491.1444
 Red. masses --      1.6177                 2.0707                 1.0526
 Frc consts  --      1.9414                 2.5856                 1.3789
 IR Inten    --     10.5362                 6.3860                10.8465

                     37                     38                     39
                      A                      A                      A
 Frequencies --   1494.0049              1500.9012              1504.8161
 Red. masses --      1.0687                 1.0750                 1.0526
 Frc consts  --      1.4054                 1.4268                 1.4044
 IR Inten    --      4.5856                 2.4858                 7.6316

                     40                     41                     42
                      A                      A                      A
 Frequencies --   1518.8441              1784.0203              2875.5494
 Red. masses --      1.0803                10.0757                 1.0827
 Frc consts  --      1.4683                18.8941                 5.2748
 IR Inten    --      1.9170               160.4000               127.0434

                     43                     44                     45
                      A                      A                      A
 Frequencies --   3030.3295              3034.7308              3039.6685
 Red. masses --      1.0411                 1.0398                 1.0521
 Frc consts  --      5.6326                 5.6421                 5.7274
 IR Inten    --     23.6521                36.0064                57.1714

                     46                     47                     48
                      A                      A                      A
 Frequencies --   3085.2352              3092.0534              3093.4533
 Red. masses --      1.1010                 1.1101                 1.1019
 Frc consts  --      6.1745                 6.2535                 6.2124
 IR Inten    --     12.4557                35.2106                19.9003

                     49                     50                     51
                      A                      A                      A
 Frequencies --   3126.5140              3150.4119              3194.2102
 Red. masses --      1.0979                 1.0957                 1.0938
 Frc consts  --      6.3233                 6.4073                 6.5754
 IR Inten    --      5.6188                 1.1971                 6.4526

 - Thermochemistry -
 -------------------
 Temperature   298.150 Kelvin.  Pressure   1.00000 Atm.
 Atom     1 has atomic number  6 and mass  12.00000

 Molecular mass:   126.06808 amu.
 Principal axes and moments of inertia in atomic units:
                           1         2         3
     Eigenvalues --   759.542491130.337401432.97568
           X            0.99950   0.02997  -0.01041
           Y           -0.02978   0.99940   0.01786
           Z            0.01094  -0.01754   0.99979
 This molecule is an asymmetric top.
 Rotational symmetry number  1.
 Warning -- assumption of classical behavior for rotation
           may cause significant error
 Rotational temperatures (Kelvin)      0.11403     0.07663     0.06044
 Rotational constants (GHZ):           2.37609     1.59664     1.25944
 Zero-point vibrational energy     411929.6 (Joules/Mol)
                                   98.45355 (Kcal/Mol)
 Warning -- explicit consideration of  12 degrees of freedom as
           vibrations may cause significant error
 Vibrational temperatures:    187.41   229.47   258.17   266.49   319.61
          (Kelvin)            360.49   422.82   450.86   507.40   609.67
                              717.55   876.37   967.53   988.31  1051.55
                             1293.83  1331.07  1379.28  1412.30  1418.77
                             1436.83  1494.03  1527.63  1594.83  1621.28
                             1660.72  1680.04  1758.78  1770.12  1836.24
                             1882.89  2024.74  2028.52  2053.38  2094.54
                             2145.42  2149.54  2159.46  2165.09  2185.28
                             2566.80  4137.27  4359.96  4366.30  4373.40
                             4438.96  4448.77  4450.78  4498.35  4532.73
                             4595.75

 Zero-point correction=                           0.156896 (Hartree/Particle)
 Thermal correction to Energy=                    0.165939
 Thermal correction to Enthalpy=                  0.166883
 Thermal correction to Gibbs Free Energy=         0.123675
 Sum of electronic and zero-point Energies=           -422.998805
 Sum of electronic and thermal Energies=              -422.989763
 Sum of electronic and thermal Enthalpies=            -422.988818
 Sum of electronic and thermal Free Energies=         -423.032026

                     E (Thermal)             CV                S
                      KCal/Mol        Cal/Mol-Kelvin    Cal/Mol-Kelvin
 Total                  104.128             33.847             90.937
 Electronic               0.000              0.000              0.000
 Translational            0.889              2.981             40.409
 Rotational               0.889              2.981             28.600
 Vibrational            102.351             27.885             21.929
 Vibration     1          0.612              1.923              2.942
 Vibration     2          0.621              1.892              2.556
 Vibration     3          0.629              1.868              2.334
 Vibration     4          0.631              1.860              2.275
 Vibration     5          0.648              1.807              1.942
 Vibration     6          0.663              1.762              1.727
 Vibration     7          0.689              1.685              1.452
 Vibration     8          0.701              1.648              1.345
 Vibration     9          0.729              1.570              1.154
 Vibration    10          0.786              1.419              0.879
 Vibration    11          0.854              1.253              0.661
 Vibration    12          0.968              1.013              0.434

 Optimization completed.
    -- Stationary point found.
 Normal termination of Gaussian 09 at Mon Jan 27 19:22:33 2020.
