 Gaussian 09, Revision D.01,
 Gaussian 09:  ES64L-G09RevD.01 24-Apr-2013

 -----------------------------
 # b3lyp 6-31G(2df,p) opt Freq
 -----------------------------

 -----
 titel
 -----
 Symbolic Z-matrix:
 Charge =  0 Multiplicity = 1

 SCF Done:  E(RB3LYP) =  -423.194923033     A.U. after   14 cycles
 Optimization completed.
    -- Stationary point found.
 Normal termination of Gaussian 09 at Tue Jan 28 00:07:06 2020.

 ----------------------------------------------------------------------
 #N Geom=AllCheck Guess=TCheck SCRF=Check GenChk RB3LYP/6-31G(2df,p) Fr
 eq
 ----------------------------------------------------------------------

 Structure from the checkpoint file:  "/scratch/puck/g09_9d10fd64-10a7-411d-9aee-349a8caf3167/Gau-21131.chk"
 -----
 titel
 -----
 Charge =  0 Multiplicity = 1

                         Standard orientation:
 ---------------------------------------------------------------------
 Center     Atomic      Atomic             Coordinates (Angstroms)
 Number     Number       Type             X           Y           Z
 ---------------------------------------------------------------------
      1          8           0        1.985973   -0.827557    0.207881
      2          6           0        0.606317   -1.084069    0.186390
      3          6           0       -0.259500   -0.308887    1.232208
      4          6           0        0.155955    1.176841    1.132144
      5          6           0       -0.043338    1.694589   -0.307622
      6          8           0        0.384626    0.765149   -1.313395
      7          6           0       -0.089340   -0.585068   -1.096026
      8          6           0       -1.546585   -0.665838   -0.691821
      9          6           0       -1.637389   -0.524160    0.634389
     10          1           0        2.118750   -0.061500   -0.367996
     11          1           0        0.460138   -2.161039    0.312344
     12          1           0       -0.147538   -0.678684    2.254495
     13          1           0       -0.422637    1.806138    1.817602
     14          1           0        1.208416    1.252506    1.424485
     15          1           0       -1.100003    1.940833   -0.468051
     16          1           0        0.540049    2.602344   -0.484839
     17          1           0        0.181448   -1.126242   -2.004584
     18          1           0       -2.365874   -0.779227   -1.390687
     19          1           0       -2.554257   -0.516310    1.213366
 ---------------------------------------------------------------------

 SCF Done:  E(RB3LYP) =  -423.194923033     A.U. after    1 cycles

 The electronic state is 1-A.
 Alpha  occ. eigenvalues --  -19.14604 -19.12961 -10.23254 -10.22786 -10.22564
 Alpha  occ. eigenvalues --  -10.19235 -10.19065 -10.18554 -10.18509  -1.04045
 Alpha  occ. eigenvalues --   -1.00586  -0.84589  -0.77419  -0.70378  -0.66323
 Alpha  occ. eigenvalues --   -0.63684  -0.55233  -0.54378  -0.52701  -0.49673
 Alpha  occ. eigenvalues --   -0.46504  -0.43944  -0.43499  -0.41620  -0.40665
 Alpha  occ. eigenvalues --   -0.39305  -0.37789  -0.35031  -0.34098  -0.32441
 Alpha  occ. eigenvalues --   -0.30470  -0.27755  -0.25534  -0.24359
 Alpha virt. eigenvalues --   -0.00164   0.09128   0.11132   0.12665   0.13295
 Alpha virt. eigenvalues --    0.13931   0.14666   0.15881   0.16613   0.17206
 Alpha virt. eigenvalues --    0.17671   0.19326   0.20378   0.21364   0.22451

 Mulliken charges:
               1
     1  O   -0.450173
     2  C    0.151061
     3  C   -0.096963
     4  C   -0.231480
     5  C   -0.072010
     6  O   -0.298621
     7  C    0.030926
     8  C   -0.099961
     9  C   -0.073588
    10  H    0.285946
    11  H    0.083959
    12  H    0.068322
    13  H    0.096933
    14  H    0.112684
    15  H    0.102973
    16  H    0.107962
    17  H    0.080173
    18  H    0.100897
    19  H    0.100960
 Sum of Mulliken charges =   0.00000

 Dipole moment (field-independent basis, Debye):
    X=             -1.8467    Y=              0.6667    Z=              0.4795  Tot=              2.0211
 Quadrupole moment (field-independent basis, Debye-Ang):
   XX=            -54.5102   YY=            -52.2199   ZZ=            -53.1566
   XY=              2.7885   XZ=             -1.1434   YZ=              2.2250

  Exact polarizability:  75.009   2.529  70.713  -0.325   3.012  76.041
 Approx polarizability: 111.520   3.205 101.995  -2.724   3.492 124.905

                      1                      2                      3
                      A                      A                      A
 Frequencies --    207.5695               265.6650               313.0086
 Red. masses --      4.2439                 3.1511                 3.2165
 Frc consts  --      0.1077                 0.1310                 0.1857
 IR Inten    --      1.6173                 6.8758                 6.4685

                      4                      5                      6
                      A                      A                      A
 Frequencies --    325.6161               379.2239               474.1488
 Red. masses --      3.3178                 2.4562                 2.9776
 Frc consts  --      0.2073                 0.2081                 0.3944
 IR Inten    --      0.9009                 4.4264                 2.2610

                      7                      8                      9
                      A                      A                      A
 Frequencies --    525.1452               551.1708               583.5506
 Red. masses --      1.1465                 3.4873                 4.1018
 Frc consts  --      0.1863                 0.6242                 0.8230
 IR Inten    --     59.6211                 4.5680                 1.0234

                     10                     11                     12
                      A                      A                      A
 Frequencies --    601.0820               749.5060               767.3922
 Red. masses --      3.9439                 1.9496                 1.7722
 Frc consts  --      0.8396                 0.6453                 0.6149
 IR Inten    --      2.7636                19.3322                14.3016

                     13                     14                     15
                      A                      A                      A
 Frequencies --    788.6492               806.9102               848.6036
 Red. masses --      3.9549                 2.8998                 3.2855
 Frc consts  --      1.4493                 1.1124                 1.3940
 IR Inten    --      4.8925                12.5999                11.7825

                     16                     17                     18
                      A                      A                      A
 Frequencies --    865.2495               943.8830               970.0685
 Red. masses --      2.4907                 1.8998                 1.5284
 Frc consts  --      1.0986                 0.9972                 0.8474
 IR Inten    --      1.4132                 3.8154                 1.7004

                     19                     20                     21
                      A                      A                      A
 Frequencies --    977.7156              1000.5265              1020.4495
 Red. masses --      1.8333                 2.5907                 2.4509
 Frc consts  --      1.0325                 1.5280                 1.5037
 IR Inten    --      2.1549                22.1750                29.0263

                     22                     23                     24
                      A                      A                      A
 Frequencies --   1043.5987              1081.3933              1087.4666
 Red. masses --      2.1342                 1.9406                 2.4544
 Frc consts  --      1.3695                 1.3371                 1.7101
 IR Inten    --     41.7893                27.7999                17.0612

                     25                     26                     27
                      A                      A                      A
 Frequencies --   1124.9817              1138.4747              1190.2461
 Red. masses --      2.3870                 1.5294                 1.7361
 Frc consts  --      1.7799                 1.1680                 1.4491
 IR Inten    --     97.2703                38.7221                12.1138

                     28                     29                     30
                      A                      A                      A
 Frequencies --   1240.4471              1254.4382              1273.1414
 Red. masses --      1.3053                 1.3791                 1.5183
 Frc consts  --      1.1834                 1.2786                 1.4500
 IR Inten    --      0.2624                12.6581                 2.5677

                     31                     32                     33
                      A                      A                      A
 Frequencies --   1298.0857              1317.3598              1329.1234
 Red. masses --      1.2582                 1.5228                 1.4180
 Frc consts  --      1.2492                 1.5571                 1.4759
 IR Inten    --      2.0951                 1.5912                 2.2603

                     34                     35                     36
                      A                      A                      A
 Frequencies --   1347.6671              1366.6531              1383.2052
 Red. masses --      1.3203                 1.3428                 1.5222
 Frc consts  --      1.4128                 1.4777                 1.7159
 IR Inten    --      1.4091                10.9858                 3.4891

                     37                     38                     39
                      A                      A                      A
 Frequencies --   1410.9030              1435.8965              1483.3389
 Red. masses --      1.2920                 1.2715                 1.0876
 Frc consts  --      1.5153                 1.5446                 1.4099
 IR Inten    --     10.9881                74.1723                 3.1400

                     40                     41                     42
                      A                      A                      A
 Frequencies --   1504.2507              1652.2654              3028.5490
 Red. masses --      1.0852                 5.9932                 1.0655
 Frc consts  --      1.4468                 9.6398                 5.7581
 IR Inten    --      4.1655                 1.4432                39.3789

                     43                     44                     45
                      A                      A                      A
 Frequencies --   3040.9855              3066.2906              3078.3425
 Red. masses --      1.0607                 1.0860                 1.0866
 Frc consts  --      5.7792                 6.0162                 6.0665
 IR Inten    --     28.9129                21.3882                50.0703

                     46                     47                     48
                      A                      A                      A
 Frequencies --   3081.4486              3094.6166              3098.8986
 Red. masses --      1.0991                 1.1020                 1.0893
 Frc consts  --      6.1488                 6.2178                 6.1630
 IR Inten    --     21.1138                34.8398                33.9007

                     49                     50                     51
                      A                      A                      A
 Frequencies --   3186.5196              3215.8296              3740.0674
 Red. masses --      1.0869                 1.1036                 1.0647
 Frc consts  --      6.5023                 6.7241                 8.7752
 IR Inten    --      8.3981                15.4709                38.0162

 - Thermochemistry -
 -------------------
 Temperature   298.150 Kelvin.  Pressure   1.00000 Atm.
 Atom     1 has atomic number  8 and mass  15.99491

 Molecular mass:   126.06808 amu.
 Principal axes and moments of inertia in atomic units:
                           1         2         3
     Eigenvalues --   818.08686 923.20363 982.04428
           X            0.99798   0.06284   0.00939
           Y           -0.06339   0.97499   0.21304
           Z            0.00424  -0.21320   0.97700
 This molecule is an asymmetric top.
 Rotational symmetry number  1.
 Warning -- assumption of classical behavior for rotation
           may cause significant error
 Rotational temperatures (Kelvin)      0.10587     0.09382     0.08820
 Rotational constants (GHZ):           2.20605     1.95487     1.83774
 Zero-point vibrational energy     428021.6 (Joules/Mol)
                                  102.29961 (Kcal/Mol)
 Warning -- explicit consideration of  10 degrees of freedom as
           vibrations may cause significant error
 Vibrational temperatures:    298.65   382.23   450.35   468.49   545.62
          (Kelvin)            682.19   755.57   793.01   839.60   864.82
                             1078.37  1104.10  1134.69  1160.96  1220.95
                             1244.90  1358.04  1395.71  1406.71  1439.53
                             1468.20  1501.50  1555.88  1564.62  1618.60
                             1638.01  1712.50  1784.72  1804.85  1831.76
                             1867.65  1895.38  1912.31  1938.99  1966.31
                             1990.12  2029.97  2065.93  2134.19  2164.28
                             2377.24  4357.40  4375.29  4411.70  4429.04
                             4433.51  4452.46  4458.62  4584.69  4626.86
                             5381.12

 Zero-point correction=                           0.163025 (Hartree/Particle)
 Thermal correction to Energy=                    0.169897
 Thermal correction to Enthalpy=                  0.170842
 Thermal correction to Gibbs Free Energy=         0.132325
 Sum of electronic and zero-point Energies=           -423.031898
 Sum of electronic and thermal Energies=              -423.025026
 Sum of electronic and thermal Enthalpies=            -423.024081
 Sum of electronic and thermal Free Energies=         -423.062598

                     E (Thermal)             CV                S
                      KCal/Mol        Cal/Mol-Kelvin    Cal/Mol-Kelvin
 Total                  106.612             29.239             81.065
 Electronic               0.000              0.000              0.000
 Translational            0.889              2.981             40.409
 Rotational               0.889              2.981             28.097
 Vibrational            104.835             23.277             12.560
 Vibration     1          0.641              1.829              2.065
 Vibration     2          0.671              1.736              1.624
 Vibration     3          0.701              1.649              1.346
 Vibration     4          0.710              1.624              1.282
 Vibration     5          0.749              1.514              1.042
 Vibration     6          0.831              1.307              0.726
 Vibration     7          0.880              1.194              0.598
 Vibration     8          0.906              1.137              0.542
 Vibration     9          0.940              1.067              0.479
 Vibration    10          0.959              1.030              0.448

 Optimization completed.
    -- Stationary point found.
 Normal termination of Gaussian 09 at Tue Jan 28 01:02:16 2020.
