 Gaussian 09, Revision D.01,
 Gaussian 09:  ES64L-G09RevD.01 24-Apr-2013

 -----------------------------
 # b3lyp 6-31G(2df,p) opt Freq
 -----------------------------

 -----
 titel
 -----
 Symbolic Z-matrix:
 Charge =  0 Multiplicity = 1

 SCF Done:  E(RB3LYP) =  -423.123782964     A.U. after   13 cycles
 Optimization completed.
    -- Stationary point found.
 Normal termination of Gaussian 09 at Mon Jan 27 12:07:57 2020.

 ----------------------------------------------------------------------
 #N Geom=AllCheck Guess=TCheck SCRF=Check GenChk RB3LYP/6-31G(2df,p) Fr
 eq
 ----------------------------------------------------------------------

 Structure from the checkpoint file:  "/scratch/puck/g09_85f517a9-7492-49a0-a49e-5fa5d1ce68aa/Gau-71565.chk"
 -----
 titel
 -----
 Charge =  0 Multiplicity = 1

                         Standard orientation:
 ---------------------------------------------------------------------
 Center     Atomic      Atomic             Coordinates (Angstroms)
 Number     Number       Type             X           Y           Z
 ---------------------------------------------------------------------
      1          6           0       -2.305509   -1.036092   -0.007612
      2          8           0       -2.644751    0.350045    0.085667
      3          6           0       -1.337052    0.000137   -0.378254
      4          6           0       -0.186829    0.381500    0.515669
      5          6           0        0.371917    1.824313    0.276682
      6          6           0        1.592826    1.229195   -0.489099
      7          6           0        1.175218   -0.147718    0.028609
      8          6           0        1.995241   -1.213744    0.604598
      9          8           0        1.355839   -1.366370   -0.670911
     10          1           0       -2.197670   -1.555247    0.944037
     11          1           0       -2.824641   -1.595862   -0.783972
     12          1           0       -1.182980    0.184781   -1.443177
     13          1           0       -0.445925    0.144987    1.551512
     14          1           0       -0.278489    2.491660   -0.291494
     15          1           0        0.653536    2.319640    1.207587
     16          1           0        1.490175    1.299256   -1.575871
     17          1           0        2.586091    1.587629   -0.209079
     18          1           0        3.081582   -1.136793    0.573687
     19          1           0        1.594742   -1.835000    1.405162
 ---------------------------------------------------------------------

 SCF Done:  E(RB3LYP) =  -423.123782964     A.U. after    1 cycles

 The electronic state is 1-A.
 Alpha  occ. eigenvalues --  -19.15328 -19.14706 -10.24390 -10.23691 -10.23546
 Alpha  occ. eigenvalues --  -10.23052 -10.19514 -10.19027 -10.18910  -1.07431
 Alpha  occ. eigenvalues --   -1.06650  -0.84579  -0.71058  -0.66902  -0.65806
 Alpha  occ. eigenvalues --   -0.63263  -0.60575  -0.54545  -0.51475  -0.48790
 Alpha  occ. eigenvalues --   -0.48627  -0.47092  -0.43658  -0.42488  -0.39773
 Alpha  occ. eigenvalues --   -0.37887  -0.36355  -0.36122  -0.33966  -0.32700
 Alpha  occ. eigenvalues --   -0.29921  -0.29029  -0.26926  -0.25879
 Alpha virt. eigenvalues --    0.06448   0.09012   0.09832   0.10978   0.11498
 Alpha virt. eigenvalues --    0.12321   0.12856   0.13269   0.15080   0.16143
 Alpha virt. eigenvalues --    0.16901   0.17400   0.19086   0.19357   0.20520

 Mulliken charges:
               1
     1  C   -0.184034
     2  O   -0.246799
     3  C    0.122448
     4  C   -0.146413
     5  C   -0.236717
     6  C   -0.318552
     7  C    0.459261
     8  C   -0.263786
     9  O   -0.268398
    10  H    0.110260
    11  H    0.117105
    12  H    0.093926
    13  H    0.078591
    14  H    0.115401
    15  H    0.109953
    16  H    0.118854
    17  H    0.108223
    18  H    0.116218
    19  H    0.114458
 Sum of Mulliken charges =   0.00000

 Dipole moment (field-independent basis, Debye):
    X=              1.5813    Y=              0.0433    Z=              0.9590  Tot=              1.8499
 Quadrupole moment (field-independent basis, Debye-Ang):
   XX=            -55.9743   YY=            -53.2171   ZZ=            -51.7091
   XY=              4.9217   XZ=              3.3089   YZ=             -3.0644

  Exact polarizability:  83.722   3.122  77.445   1.259  -4.356  64.854
 Approx polarizability: 109.471   0.586 111.400   0.588  -3.236 101.541

                      1                      2                      3
                      A                      A                      A
 Frequencies --     55.6928                61.8634               136.4133
 Red. masses --      2.9556                 3.1942                 4.3685
 Frc consts  --      0.0054                 0.0072                 0.0479
 IR Inten    --      0.3921                 4.1447                 3.9803

                      4                      5                      6
                      A                      A                      A
 Frequencies --    224.7952               289.1145               324.4974
 Red. masses --      2.4315                 3.5593                 2.9106
 Frc consts  --      0.0724                 0.1753                 0.1806
 IR Inten    --      0.8921                 1.9278                 2.2037

                      7                      8                      9
                      A                      A                      A
 Frequencies --    369.0648               424.0084               492.7868
 Red. masses --      3.0135                 2.9630                 3.7376
 Frc consts  --      0.2418                 0.3139                 0.5348
 IR Inten    --      1.6352                 4.4178                 4.7678

                     10                     11                     12
                      A                      A                      A
 Frequencies --    593.9562               732.4275               804.9811
 Red. masses --      4.8613                 1.2737                 1.8422
 Frc consts  --      1.0104                 0.4026                 0.7033
 IR Inten    --     11.8788                 0.9689                10.7471

                     13                     14                     15
                      A                      A                      A
 Frequencies --    849.8101               859.9808               885.5070
 Red. masses --      4.8515                 4.1455                 1.6687
 Frc consts  --      2.0643                 1.8063                 0.7709
 IR Inten    --     26.2749                19.1486                 2.7352

                     16                     17                     18
                      A                      A                      A
 Frequencies --    897.2494               916.4918               925.9171
 Red. masses --      2.0120                 2.8775                 3.1467
 Frc consts  --      0.9543                 1.4240                 1.5895
 IR Inten    --     13.8059                 7.5931                14.4510

                     19                     20                     21
                      A                      A                      A
 Frequencies --    965.4095               980.3519              1036.3918
 Red. masses --      3.1169                 1.4598                 2.6121
 Frc consts  --      1.7116                 0.8266                 1.6531
 IR Inten    --     16.3360                 4.6445                 1.6807

                     22                     23                     24
                      A                      A                      A
 Frequencies --   1090.0815              1114.1321              1130.0587
 Red. masses --      1.2690                 1.3740                 1.4106
 Frc consts  --      0.8884                 1.0049                 1.0614
 IR Inten    --      0.6851                 5.7554                 5.7256

                     25                     26                     27
                      A                      A                      A
 Frequencies --   1152.8159              1163.0554              1166.7300
 Red. masses --      1.4132                 1.4909                 1.5411
 Frc consts  --      1.1066                 1.1882                 1.2360
 IR Inten    --      0.6384                 2.5457                 4.6664

                     28                     29                     30
                      A                      A                      A
 Frequencies --   1168.6915              1186.0121              1210.1606
 Red. masses --      1.7547                 1.9058                 1.4953
 Frc consts  --      1.4121                 1.5794                 1.2902
 IR Inten    --      4.8837                 2.1769                 2.7581

                     31                     32                     33
                      A                      A                      A
 Frequencies --   1234.6516              1248.7505              1277.1539
 Red. masses --      1.3592                 1.4148                 1.6255
 Frc consts  --      1.2207                 1.2999                 1.5621
 IR Inten    --      1.7935                 0.5921                 4.0176

                     34                     35                     36
                      A                      A                      A
 Frequencies --   1291.9671              1301.1836              1427.1132
 Red. masses --      1.7355                 1.3638                 2.2543
 Frc consts  --      1.7068                 1.3604                 2.7051
 IR Inten    --      8.6888                 1.7466                17.9342

                     37                     38                     39
                      A                      A                      A
 Frequencies --   1452.3732              1475.0151              1495.7247
 Red. masses --      1.6874                 1.0925                 1.1225
 Frc consts  --      2.0971                 1.4004                 1.4796
 IR Inten    --     15.3866                 1.5490                 2.9040

                     40                     41                     42
                      A                      A                      A
 Frequencies --   1530.7173              1534.0671              3059.9037
 Red. masses --      1.4069                 1.5478                 1.0593
 Frc consts  --      1.9423                 2.1462                 5.8437
 IR Inten    --      6.1390                 7.3644                24.7523

                     43                     44                     45
                      A                      A                      A
 Frequencies --   3065.2996              3077.1825              3079.1481
 Red. masses --      1.0821                 1.0503                 1.0618
 Frc consts  --      5.9904                 5.8598                 5.9312
 IR Inten    --      4.5103                28.2544                27.8040

                     46                     47                     48
                      A                      A                      A
 Frequencies --   3083.0490              3094.2654              3108.9001
 Red. masses --      1.0509                 1.0881                 1.1074
 Frc consts  --      5.8854                 6.1378                 6.3063
 IR Inten    --     27.5907                21.1613                 9.7551

                     49                     50                     51
                      A                      A                      A
 Frequencies --   3133.5841              3164.2909              3169.4855
 Red. masses --      1.1082                 1.1195                 1.1193
 Frc consts  --      6.4114                 6.6043                 6.6250
 IR Inten    --     26.7780                21.9559                27.9114

 - Thermochemistry -
 -------------------
 Temperature   298.150 Kelvin.  Pressure   1.00000 Atm.
 Atom     1 has atomic number  6 and mass  12.00000

 Molecular mass:   126.06808 amu.
 Principal axes and moments of inertia in atomic units:
                           1         2         3
     Eigenvalues --   645.050821401.771231813.15825
           X            0.99922   0.03840   0.00883
           Y           -0.03811   0.99877  -0.03177
           Z           -0.01004   0.03141   0.99946
 This molecule is an asymmetric top.
 Rotational symmetry number  1.
 Warning -- assumption of classical behavior for rotation
           may cause significant error
 Rotational temperatures (Kelvin)      0.13427     0.06179     0.04777
 Rotational constants (GHZ):           2.79783     1.28747     0.99536
 Zero-point vibrational energy     415775.7 (Joules/Mol)
                                   99.37278 (Kcal/Mol)
 Warning -- explicit consideration of  10 degrees of freedom as
           vibrations may cause significant error
 Vibrational temperatures:     80.13    89.01   196.27   323.43   415.97
          (Kelvin)            466.88   531.00   610.05   709.01   854.57
                             1053.80  1158.19  1222.69  1237.32  1274.05
                             1290.94  1318.63  1332.19  1389.01  1410.51
                             1491.13  1568.38  1602.99  1625.90  1658.64
                             1673.38  1678.66  1681.48  1706.40  1741.15
                             1776.39  1796.67  1837.54  1858.85  1872.11
                             2053.29  2089.64  2122.22  2152.01  2202.36
                             2207.18  4402.51  4410.28  4427.37  4430.20
                             4435.81  4451.95  4473.01  4508.52  4552.70
                             4560.18

 Zero-point correction=                           0.158361 (Hartree/Particle)
 Thermal correction to Energy=                    0.166770
 Thermal correction to Enthalpy=                  0.167714
 Thermal correction to Gibbs Free Energy=         0.124352
 Sum of electronic and zero-point Energies=           -422.965422
 Sum of electronic and thermal Energies=              -422.957013
 Sum of electronic and thermal Enthalpies=            -422.956069
 Sum of electronic and thermal Free Energies=         -422.999431

                     E (Thermal)             CV                S
                      KCal/Mol        Cal/Mol-Kelvin    Cal/Mol-Kelvin
 Total                  104.650             31.319             91.262
 Electronic               0.000              0.000              0.000
 Translational            0.889              2.981             40.409
 Rotational               0.889              2.981             28.885
 Vibrational            102.872             25.357             21.969
 Vibration     1          0.596              1.975              4.604
 Vibration     2          0.597              1.973              4.397
 Vibration     3          0.614              1.917              2.854
 Vibration     4          0.649              1.803              1.920
 Vibration     5          0.686              1.694              1.479
 Vibration     6          0.709              1.626              1.287
 Vibration     7          0.741              1.536              1.084
 Vibration     8          0.786              1.418              0.878
 Vibration     9          0.848              1.266              0.676
 Vibration    10          0.952              1.045              0.460

 Optimization completed.
    -- Stationary point found.
 Normal termination of Gaussian 09 at Mon Jan 27 12:49:20 2020.
