 Gaussian 09, Revision D.01,
 Gaussian 09:  ES64L-G09RevD.01 24-Apr-2013

 -----------------------------
 # b3lyp 6-31G(2df,p) opt Freq
 -----------------------------

 -----
 titel
 -----
 Symbolic Z-matrix:
 Charge =  0 Multiplicity = 1

 SCF Done:  E(RB3LYP) =  -423.154384684     A.U. after   13 cycles
 Optimization completed.
    -- Stationary point found.
 Normal termination of Gaussian 09 at Mon Jan 27 18:24:09 2020.

 ----------------------------------------------------------------------
 #N Geom=AllCheck Guess=TCheck SCRF=Check GenChk RB3LYP/6-31G(2df,p) Fr
 eq
 ----------------------------------------------------------------------

 Structure from the checkpoint file:  "/scratch/puck/g09_9a08ae20-2999-4711-be7b-0cf1da1324f5/Gau-4423.chk"
 -----
 titel
 -----
 Charge =  0 Multiplicity = 1

                         Standard orientation:
 ---------------------------------------------------------------------
 Center     Atomic      Atomic             Coordinates (Angstroms)
 Number     Number       Type             X           Y           Z
 ---------------------------------------------------------------------
      1          6           0        2.391400   -0.118597   -0.401136
      2          6           0        0.923585   -0.161888   -0.093669
      3          8           0        0.312608   -1.452552   -0.236484
      4          6           0       -0.714941   -1.006207    0.694195
      5          6           0       -1.833471   -0.429044   -0.162312
      6          8           0       -1.247648    0.437067   -1.135843
      7          6           0       -0.032056    0.989238   -0.667516
      8          6           0       -0.175444    1.532055    0.782421
      9          6           0        0.219926    0.123017    1.256406
     10          1           0        2.938182   -0.840900    0.212337
     11          1           0        2.563862   -0.361600   -1.455442
     12          1           0        2.798532    0.880053   -0.212398
     13          1           0       -1.042306   -1.797683    1.372711
     14          1           0       -2.351759   -1.222361   -0.709628
     15          1           0       -2.571272    0.106553    0.455088
     16          1           0        0.347249    1.643941   -1.453644
     17          1           0        0.604574    2.258702    1.027787
     18          1           0       -1.148085    1.947692    1.057790
     19          1           0        0.667360   -0.061968    2.233685
 ---------------------------------------------------------------------

 SCF Done:  E(RB3LYP) =  -423.154384684     A.U. after    1 cycles

 The electronic state is 1-A.
 Alpha  occ. eigenvalues --  -19.13862 -19.13095 -10.23862 -10.23566 -10.23069
 Alpha  occ. eigenvalues --  -10.22706 -10.19193 -10.18509 -10.18140  -1.06337
 Alpha  occ. eigenvalues --   -1.01218  -0.82758  -0.76218  -0.72250  -0.64380
 Alpha  occ. eigenvalues --   -0.62518  -0.60679  -0.52463  -0.50460  -0.47883
 Alpha  occ. eigenvalues --   -0.46594  -0.44512  -0.43045  -0.41472  -0.40801
 Alpha  occ. eigenvalues --   -0.39693  -0.37881  -0.37123  -0.35404  -0.31990
 Alpha  occ. eigenvalues --   -0.30010  -0.29029  -0.25610  -0.22349
 Alpha virt. eigenvalues --    0.07702   0.09126   0.10484   0.11825   0.12858
 Alpha virt. eigenvalues --    0.13809   0.14605   0.15212   0.15916   0.16704
 Alpha virt. eigenvalues --    0.17864   0.18618   0.19704   0.20364   0.20908

 Mulliken charges:
               1
     1  C   -0.506648
     2  C    0.475405
     3  O   -0.326640
     4  C    0.059922
     5  C   -0.087524
     6  O   -0.258870
     7  C    0.027455
     8  C   -0.272087
     9  C   -0.144648
    10  H    0.127568
    11  H    0.134989
    12  H    0.120982
    13  H    0.081237
    14  H    0.117109
    15  H    0.091356
    16  H    0.078446
    17  H    0.105239
    18  H    0.104795
    19  H    0.071913
 Sum of Mulliken charges =   0.00000

 Dipole moment (field-independent basis, Debye):
    X=              0.4356    Y=              0.9383    Z=              1.8589  Tot=              2.1274
 Quadrupole moment (field-independent basis, Debye-Ang):
   XX=            -50.3401   YY=            -54.3206   ZZ=            -53.9960
   XY=              3.2891   XZ=             -2.6069   YZ=             -1.1118

  Exact polarizability:  81.565   3.410  72.095  -2.702  -0.770  67.565
 Approx polarizability: 110.321   3.596 108.385  -3.292  -0.665 104.489

                      1                      2                      3
                      A                      A                      A
 Frequencies --    198.7228               217.7675               261.5010
 Red. masses --      1.0848                 2.4224                 2.5326
 Frc consts  --      0.0252                 0.0677                 0.1020
 IR Inten    --      0.3437                 0.9224                 0.5689

                      4                      5                      6
                      A                      A                      A
 Frequencies --    286.7549               401.3168               415.7656
 Red. masses --      2.6021                 3.5541                 2.6642
 Frc consts  --      0.1261                 0.3373                 0.2713
 IR Inten    --      4.7631                 0.7145                 0.9085

                      7                      8                      9
                      A                      A                      A
 Frequencies --    471.3057               533.1410               627.8463
 Red. masses --      2.6352                 4.3936                 4.8672
 Frc consts  --      0.3449                 0.7358                 1.1304
 IR Inten    --      2.8098                 0.8048                 9.5131

                     10                     11                     12
                      A                      A                      A
 Frequencies --    697.6133               725.3223               804.7679
 Red. masses --      3.3756                 4.1132                 3.0013
 Frc consts  --      0.9679                 1.2750                 1.1452
 IR Inten    --      9.3850                 2.2045                 2.2897

                     13                     14                     15
                      A                      A                      A
 Frequencies --    837.6767               843.5646               877.3909
 Red. masses --      2.5277                 2.4838                 1.9610
 Frc consts  --      1.0450                 1.0414                 0.8894
 IR Inten    --      5.9210                10.2777                 9.2582

                     16                     17                     18
                      A                      A                      A
 Frequencies --    899.8490               936.9530               952.8486
 Red. masses --      3.1941                 2.2277                 2.2466
 Frc consts  --      1.5238                 1.1522                 1.2018
 IR Inten    --     28.9865                 5.9887                16.6100

                     19                     20                     21
                      A                      A                      A
 Frequencies --    966.8207              1016.9881              1042.9460
 Red. masses --      2.0016                 2.4593                 1.6137
 Frc consts  --      1.1024                 1.4986                 1.0342
 IR Inten    --      6.5599                28.1043                10.0232

                     22                     23                     24
                      A                      A                      A
 Frequencies --   1056.9727              1095.8034              1114.5901
 Red. masses --      1.8258                 2.7251                 2.3166
 Frc consts  --      1.2018                 1.9280                 1.6957
 IR Inten    --     42.5905                 1.6131                16.9669

                     25                     26                     27
                      A                      A                      A
 Frequencies --   1161.3691              1166.6566              1175.3487
 Red. masses --      1.9101                 2.1681                 1.8149
 Frc consts  --      1.5179                 1.7387                 1.4772
 IR Inten    --     11.0053                55.5121                 9.0447

                     28                     29                     30
                      A                      A                      A
 Frequencies --   1185.1083              1214.3418              1250.0498
 Red. masses --      1.9177                 1.3409                 1.5171
 Frc consts  --      1.5869                 1.1650                 1.3967
 IR Inten    --      9.8265                 0.4937                 3.2088

                     31                     32                     33
                      A                      A                      A
 Frequencies --   1278.1555              1304.7980              1330.2169
 Red. masses --      1.6134                 1.5382                 1.4985
 Frc consts  --      1.5529                 1.5430                 1.5622
 IR Inten    --      5.0525                13.0618                 5.1852

                     34                     35                     36
                      A                      A                      A
 Frequencies --   1342.6547              1350.4534              1400.3709
 Red. masses --      1.7304                 1.7734                 1.3560
 Frc consts  --      1.8379                 1.9055                 1.5667
 IR Inten    --      8.1344                 4.4571                 3.8916

                     37                     38                     39
                      A                      A                      A
 Frequencies --   1411.9168              1475.8424              1481.8258
 Red. masses --      1.6100                 1.0532                 1.1133
 Frc consts  --      1.8911                 1.3516                 1.4403
 IR Inten    --     11.4477                 4.5929                 2.8468

                     40                     41                     42
                      A                      A                      A
 Frequencies --   1491.5917              1505.9665              2984.8919
 Red. masses --      1.0530                 1.0905                 1.0694
 Frc consts  --      1.3803                 1.4572                 5.6136
 IR Inten    --      3.4809                 2.0134                59.1172

                     43                     44                     45
                      A                      A                      A
 Frequencies --   3032.8393              3056.2284              3075.7771
 Red. masses --      1.0350                 1.0581                 1.0928
 Frc consts  --      5.6089                 5.8231                 6.0910
 IR Inten    --     17.2829                24.2469                13.7561

                     46                     47                     48
                      A                      A                      A
 Frequencies --   3084.0952              3101.1398              3102.5217
 Red. masses --      1.0901                 1.0909                 1.0998
 Frc consts  --      6.1091                 6.1815                 6.2373
 IR Inten    --     58.1256                60.5456                 9.9179

                     49                     50                     51
                      A                      A                      A
 Frequencies --   3105.1519              3109.1786              3112.1211
 Red. masses --      1.0933                 1.1039                 1.1020
 Frc consts  --      6.2109                 6.2876                 6.2885
 IR Inten    --     18.9862                29.9028                18.9369

 - Thermochemistry -
 -------------------
 Temperature   298.150 Kelvin.  Pressure   1.00000 Atm.
 Atom     1 has atomic number  6 and mass  12.00000

 Molecular mass:   126.06808 amu.
 Principal axes and moments of inertia in atomic units:
                           1         2         3
     Eigenvalues --   660.44685 953.763251076.47496
           X            0.99858   0.03986  -0.03533
           Y           -0.03948   0.99916   0.01143
           Z            0.03576  -0.01002   0.99931
 This molecule is an asymmetric top.
 Rotational symmetry number  1.
 Warning -- assumption of classical behavior for rotation
           may cause significant error
 Rotational temperatures (Kelvin)      0.13114     0.09081     0.08046
 Rotational constants (GHZ):           2.73261     1.89223     1.67653
 Zero-point vibrational energy     422131.3 (Joules/Mol)
                                  100.89180 (Kcal/Mol)
 Warning -- explicit consideration of   8 degrees of freedom as
           vibrations may cause significant error
 Vibrational temperatures:    285.92   313.32   376.24   412.58   577.40
          (Kelvin)            598.19   678.10   767.07   903.33  1003.71
                             1043.58  1157.88  1205.23  1213.70  1262.37
                             1294.68  1348.06  1370.93  1391.04  1463.22
                             1500.56  1520.75  1576.61  1603.64  1670.95
                             1678.56  1691.06  1705.10  1747.16  1798.54
                             1838.98  1877.31  1913.88  1931.78  1943.00
                             2014.82  2031.43  2123.41  2132.01  2146.07
                             2166.75  4294.59  4363.57  4397.23  4425.35
                             4437.32  4461.84  4463.83  4467.62  4473.41
                             4477.64

 Zero-point correction=                           0.160781 (Hartree/Particle)
 Thermal correction to Energy=                    0.167822
 Thermal correction to Enthalpy=                  0.168766
 Thermal correction to Gibbs Free Energy=         0.129865
 Sum of electronic and zero-point Energies=           -422.993603
 Sum of electronic and thermal Energies=              -422.986563
 Sum of electronic and thermal Enthalpies=            -422.985619
 Sum of electronic and thermal Free Energies=         -423.024519

                     E (Thermal)             CV                S
                      KCal/Mol        Cal/Mol-Kelvin    Cal/Mol-Kelvin
 Total                  105.310             29.227             81.873
 Electronic               0.000              0.000              0.000
 Translational            0.889              2.981             40.409
 Rotational               0.889              2.981             28.008
 Vibrational            103.532             23.265             13.457
 Vibration     1          0.637              1.842              2.145
 Vibration     2          0.646              1.814              1.978
 Vibration     3          0.669              1.743              1.652
 Vibration     4          0.684              1.698              1.493
 Vibration     5          0.767              1.467              0.958
 Vibration     6          0.779              1.436              0.906
 Vibration     7          0.828              1.314              0.734
 Vibration     8          0.888              1.177              0.580

 Optimization completed.
    -- Stationary point found.
 Normal termination of Gaussian 09 at Mon Jan 27 19:14:56 2020.
