 Gaussian 09, Revision D.01,
 Gaussian 09:  ES64L-G09RevD.01 24-Apr-2013

 -----------------------------
 # b3lyp 6-31G(2df,p) opt Freq
 -----------------------------

 -----
 titel
 -----
 Symbolic Z-matrix:
 Charge =  0 Multiplicity = 1

 SCF Done:  E(RB3LYP) =  -423.134541579     A.U. after   14 cycles
 Optimization completed.
    -- Stationary point found.
 Normal termination of Gaussian 09 at Tue Jan 28 08:11:59 2020.

 ----------------------------------------------------------------------
 #N Geom=AllCheck Guess=TCheck SCRF=Check GenChk RB3LYP/6-31G(2df,p) Fr
 eq
 ----------------------------------------------------------------------

 Structure from the checkpoint file:  "/scratch/puck/g09_78cf748e-b230-4ec7-80d2-58ac26388e4d/Gau-104651.chk"
 -----
 titel
 -----
 Charge =  0 Multiplicity = 1

                         Standard orientation:
 ---------------------------------------------------------------------
 Center     Atomic      Atomic             Coordinates (Angstroms)
 Number     Number       Type             X           Y           Z
 ---------------------------------------------------------------------
      1          6           0        1.324466    2.060460   -0.463994
      2          6           0        1.964152    0.730778   -0.168723
      3          8           0        1.771397    0.183055    1.137542
      4          6           0        1.205348   -0.530235    0.016326
      5          6           0        1.856268   -1.864827   -0.287430
      6          6           0       -0.238307   -0.520093   -0.057603
      7          6           0       -1.440653   -0.554328   -0.138311
      8          6           0       -2.903511   -0.539060   -0.171500
      9          8           0       -3.459876    0.718975    0.181985
     10          1           0        0.278156    2.070220   -0.152253
     11          1           0        1.856446    2.859942    0.062004
     12          1           0        1.371629    2.273582   -1.537210
     13          1           0        2.984924    0.614897   -0.541059
     14          1           0        1.513296   -2.624528    0.421064
     15          1           0        1.597719   -2.199350   -1.296661
     16          1           0        2.942622   -1.778840   -0.207080
     17          1           0       -3.258347   -0.747741   -1.187008
     18          1           0       -3.291242   -1.345568    0.471227
     19          1           0       -3.093958    0.964977    1.038176
 ---------------------------------------------------------------------

 SCF Done:  E(RB3LYP) =  -423.134541579     A.U. after    1 cycles

 The electronic state is 1-A.
 Alpha  occ. eigenvalues --  -19.15020 -19.14434 -10.26193 -10.25597 -10.24173
 Alpha  occ. eigenvalues --  -10.18767 -10.18526 -10.18278 -10.18158  -1.07163
 Alpha  occ. eigenvalues --   -1.02611  -0.78596  -0.74978  -0.74580  -0.69632
 Alpha  occ. eigenvalues --   -0.62936  -0.60584  -0.53106  -0.49811  -0.48927
 Alpha  occ. eigenvalues --   -0.47252  -0.44824  -0.43081  -0.42207  -0.40106
 Alpha  occ. eigenvalues --   -0.39783  -0.38261  -0.36390  -0.35826  -0.31619
 Alpha  occ. eigenvalues --   -0.29029  -0.27633  -0.26819  -0.24877
 Alpha virt. eigenvalues --    0.01939   0.03418   0.09298   0.10533   0.11624
 Alpha virt. eigenvalues --    0.12707   0.13503   0.13730   0.14360   0.17171
 Alpha virt. eigenvalues --    0.17416   0.17667   0.19195   0.19760   0.21675

 Mulliken charges:
               1
     1  C   -0.431693
     2  C    0.045473
     3  O   -0.286249
     4  C    0.183816
     5  C   -0.472365
     6  C    0.003606
     7  C    0.129073
     8  C   -0.201344
     9  O   -0.399687
    10  H    0.139160
    11  H    0.129119
    12  H    0.123835
    13  H    0.087328
    14  H    0.135879
    15  H    0.130728
    16  H    0.128997
    17  H    0.142485
    18  H    0.121251
    19  H    0.290588
 Sum of Mulliken charges =   0.00000

 Dipole moment (field-independent basis, Debye):
    X=              0.6273    Y=             -0.6845    Z=             -0.8570  Tot=              1.2635
 Quadrupole moment (field-independent basis, Debye-Ang):
   XX=            -54.0544   YY=            -50.5241   ZZ=            -53.5409
   XY=              3.3493   XZ=             -5.8137   YZ=              1.0103

  Exact polarizability: 108.112   4.186  78.632   0.139   0.480  59.239
 Approx polarizability: 155.620   7.518 104.060   5.259   1.714  94.419

                      1                      2                      3
                      A                      A                      A
 Frequencies --      5.4302                60.7823               110.6947
 Red. masses --      2.9140                 4.5026                 2.6987
 Frc consts  --      0.0001                 0.0098                 0.0195
 IR Inten    --      2.4897                 0.0498                 5.2736

                      4                      5                      6
                      A                      A                      A
 Frequencies --    179.8138               184.1377               197.7089
 Red. masses --      1.1159                 1.8505                 1.9392
 Frc consts  --      0.0213                 0.0370                 0.0447
 IR Inten    --      0.4709                 1.2271                 1.8261

                      7                      8                      9
                      A                      A                      A
 Frequencies --    228.0495               247.5823               300.0333
 Red. masses --      2.0842                 2.3126                 1.7590
 Frc consts  --      0.0639                 0.0835                 0.0933
 IR Inten    --      1.0297                 4.6224                57.7376

                     10                     11                     12
                      A                      A                      A
 Frequencies --    355.8192               401.3164               463.6709
 Red. masses --      1.9792                 3.8916                 3.9490
 Frc consts  --      0.1476                 0.3693                 0.5002
 IR Inten    --     79.0403                 1.1088                 8.6379

                     13                     14                     15
                      A                      A                      A
 Frequencies --    472.4635               577.7674               601.8326
 Red. masses --      4.0064                 5.1204                 5.2935
 Frc consts  --      0.5269                 1.0071                 1.1297
 IR Inten    --      2.3989                 4.0950                 5.6590

                     16                     17                     18
                      A                      A                      A
 Frequencies --    637.9595               755.3842               853.3530
 Red. masses --      5.4285                 3.9653                 2.7354
 Frc consts  --      1.3017                 1.3331                 1.1736
 IR Inten    --     15.0826                 8.7538                13.5945

                     19                     20                     21
                      A                      A                      A
 Frequencies --    913.6468               982.8270               997.3426
 Red. masses --      2.3157                 1.6100                 1.3240
 Frc consts  --      1.1389                 0.9163                 0.7759
 IR Inten    --     13.2037                36.9749                 0.6247

                     22                     23                     24
                      A                      A                      A
 Frequencies --   1027.3632              1059.2000              1073.2003
 Red. masses --      3.2402                 2.2312                 3.0789
 Frc consts  --      2.0150                 1.4748                 2.0893
 IR Inten    --     35.2579                15.8866                40.9945

                     25                     26                     27
                      A                      A                      A
 Frequencies --   1104.3659              1138.3323              1163.5871
 Red. masses --      1.8512                 2.3434                 1.7506
 Frc consts  --      1.3302                 1.7891                 1.3965
 IR Inten    --     18.3949                10.6350                11.4597

                     28                     29                     30
                      A                      A                      A
 Frequencies --   1213.4983              1268.4573              1342.0091
 Red. masses --      1.0864                 2.4697                 1.8080
 Frc consts  --      0.9426                 2.3412                 1.9184
 IR Inten    --     13.9962                37.7370                29.4678

                     31                     32                     33
                      A                      A                      A
 Frequencies --   1360.8349              1406.0666              1410.5869
 Red. masses --      1.2287                 1.2907                 1.2556
 Frc consts  --      1.3406                 1.5035                 1.4719
 IR Inten    --      8.7247                 4.1136                 0.3987

                     34                     35                     36
                      A                      A                      A
 Frequencies --   1416.6425              1446.8944              1478.9155
 Red. masses --      1.2348                 1.9157                 1.0492
 Frc consts  --      1.4601                 2.3630                 1.3521
 IR Inten    --     94.4809                13.3881                 4.5084

                     37                     38                     39
                      A                      A                      A
 Frequencies --   1485.9763              1490.2430              1492.4718
 Red. masses --      1.0566                 1.0767                 1.0504
 Frc consts  --      1.3747                 1.4089                 1.3786
 IR Inten    --      6.3047                 0.3887                 1.9145

                     40                     41                     42
                      A                      A                      A
 Frequencies --   1500.0945              2356.0644              2977.3143
 Red. masses --      1.2622                11.9135                 1.0712
 Frc consts  --      1.6735                38.9639                 5.5944
 IR Inten    --      3.7151                 0.2643                50.2074

                     43                     44                     45
                      A                      A                      A
 Frequencies --   3040.0830              3043.7546              3062.1805
 Red. masses --      1.0368                 1.0345                 1.0885
 Frc consts  --      5.6456                 5.6470                 6.0138
 IR Inten    --     19.3877                13.2346                16.4252

                     46                     47                     48
                      A                      A                      A
 Frequencies --   3078.7264              3103.3492              3114.9708
 Red. masses --      1.0860                 1.1007                 1.1015
 Frc consts  --      6.0650                 6.2455                 6.2970
 IR Inten    --     32.4562                15.9407                13.4742

                     49                     50                     51
                      A                      A                      A
 Frequencies --   3128.8198              3137.6707              3815.3320
 Red. masses --      1.1026                 1.1005                 1.0663
 Frc consts  --      6.3596                 6.3837                 9.1453
 IR Inten    --     16.6138                16.9820                22.0353

 - Thermochemistry -
 -------------------
 Temperature   298.150 Kelvin.  Pressure   1.00000 Atm.
 Atom     1 has atomic number  6 and mass  12.00000

 Molecular mass:   126.06808 amu.
 Principal axes and moments of inertia in atomic units:
                           1         2         3
     Eigenvalues --   682.533912095.621082542.70677
           X            0.99991   0.00491  -0.01268
           Y           -0.00497   0.99998  -0.00492
           Z            0.01266   0.00498   0.99991
 This molecule is an asymmetric top.
 Rotational symmetry number  1.
 Warning -- assumption of classical behavior for rotation
           may cause significant error
 Rotational temperatures (Kelvin)      0.12690     0.04133     0.03406
 Rotational constants (GHZ):           2.64418     0.86120     0.70977
 Zero-point vibrational energy     408313.1 (Joules/Mol)
                                   97.58918 (Kcal/Mol)
 Warning -- explicit consideration of  15 degrees of freedom as
           vibrations may cause significant error
 Vibrational temperatures:      7.81    87.45   159.26   258.71   264.93
          (Kelvin)            284.46   328.11   356.22   431.68   511.94
                              577.40   667.12   679.77   831.28   865.90
                              917.88  1086.83  1227.78  1314.53  1414.07
                             1434.95  1478.14  1523.95  1544.09  1588.93
                             1637.80  1674.14  1745.95  1825.02  1930.85
                             1957.94  2023.01  2029.52  2038.23  2081.76
                             2127.83  2137.99  2144.12  2147.33  2158.30
                             3389.85  4283.69  4374.00  4379.28  4405.79
                             4429.60  4465.02  4481.74  4501.67  4514.40
                             5489.40

 Zero-point correction=                           0.155518 (Hartree/Particle)
 Thermal correction to Energy=                    0.166153
 Thermal correction to Enthalpy=                  0.167098
 Thermal correction to Gibbs Free Energy=         0.117156
 Sum of electronic and zero-point Energies=           -422.979023
 Sum of electronic and thermal Energies=              -422.968388
 Sum of electronic and thermal Enthalpies=            -422.967444
 Sum of electronic and thermal Free Energies=         -423.017385

                     E (Thermal)             CV                S
                      KCal/Mol        Cal/Mol-Kelvin    Cal/Mol-Kelvin
 Total                  104.263             37.079            105.110
 Electronic               0.000              0.000              0.000
 Translational            0.889              2.981             40.409
 Rotational               0.889              2.981             29.676
 Vibrational            102.485             31.118             35.025
 Vibration     1          0.593              1.987              9.224
 Vibration     2          0.597              1.973              4.432
 Vibration     3          0.607              1.941              3.257
 Vibration     4          0.629              1.867              2.330
 Vibration     5          0.631              1.861              2.286
 Vibration     6          0.637              1.843              2.154
 Vibration     7          0.651              1.798              1.894
 Vibration     8          0.661              1.767              1.748
 Vibration     9          0.693              1.674              1.417
 Vibration    10          0.731              1.563              1.140
 Vibration    11          0.767              1.467              0.958
 Vibration    12          0.821              1.331              0.755
 Vibration    13          0.829              1.311              0.731
 Vibration    14          0.934              1.079              0.490
 Vibration    15          0.960              1.028              0.447

 Normal termination of Gaussian 09 at Tue Jan 28 08:44:39 2020.
