 Gaussian 09, Revision D.01,
 Gaussian 09:  ES64L-G09RevD.01 24-Apr-2013

 -----------------------------
 # b3lyp 6-31G(2df,p) opt Freq
 -----------------------------

 -----
 titel
 -----
 Symbolic Z-matrix:
 Charge =  0 Multiplicity = 1

 SCF Done:  E(RB3LYP) =  -423.120503353     A.U. after   13 cycles
 Optimization completed.
    -- Stationary point found.
 Normal termination of Gaussian 09 at Tue Jan 28 00:02:11 2020.

 ----------------------------------------------------------------------
 #N Geom=AllCheck Guess=TCheck SCRF=Check GenChk RB3LYP/6-31G(2df,p) Fr
 eq
 ----------------------------------------------------------------------

 Structure from the checkpoint file:  "/scratch/puck/g09_bf275ed0-d085-4c64-a587-99f18e26d5f8/Gau-104167.chk"
 -----
 titel
 -----
 Charge =  0 Multiplicity = 1

                         Standard orientation:
 ---------------------------------------------------------------------
 Center     Atomic      Atomic             Coordinates (Angstroms)
 Number     Number       Type             X           Y           Z
 ---------------------------------------------------------------------
      1          6           0        2.269084   -1.065273   -0.246159
      2          6           0        0.880306   -0.929760    0.361330
      3          6           0        0.468663    0.477463    0.886760
      4          8           0        1.047112    1.586778    0.149994
      5          6           0       -0.193555    1.842141   -0.561431
      6          6           0       -0.761095    0.530156   -0.056552
      7          6           0       -2.102202   -0.113743    0.241542
      8          8           0       -1.555181   -1.423557   -0.065534
      9          6           0       -0.335361   -0.854052   -0.606594
     10          1           0        3.042101   -1.022803    0.528133
     11          1           0        2.370409   -2.020470   -0.771781
     12          1           0        2.466461   -0.255136   -0.953053
     13          1           0        0.699979   -1.702668    1.115661
     14          1           0        0.450455    0.670326    1.964236
     15          1           0       -0.692832    2.742023   -0.175477
     16          1           0       -0.043340    1.948781   -1.642127
     17          1           0       -2.480964   -0.046811    1.268276
     18          1           0       -2.906990    0.155248   -0.457060
     19          1           0       -0.195768   -1.095858   -1.665868
 ---------------------------------------------------------------------

 SCF Done:  E(RB3LYP) =  -423.120503353     A.U. after    1 cycles

 The electronic state is 1-A.
 Alpha  occ. eigenvalues --  -19.14073 -19.13828 -10.23832 -10.23762 -10.23465
 Alpha  occ. eigenvalues --  -10.23344 -10.20039 -10.18838 -10.17421  -1.05203
 Alpha  occ. eigenvalues --   -1.03242  -0.81624  -0.75106  -0.69415  -0.68809
 Alpha  occ. eigenvalues --   -0.61926  -0.59127  -0.52764  -0.51330  -0.49360
 Alpha  occ. eigenvalues --   -0.47564  -0.43862  -0.43528  -0.42500  -0.40811
 Alpha  occ. eigenvalues --   -0.39530  -0.37162  -0.35656  -0.34079  -0.31481
 Alpha  occ. eigenvalues --   -0.29826  -0.28499  -0.25271  -0.24346
 Alpha virt. eigenvalues --    0.05998   0.06556   0.10949   0.11462   0.12313
 Alpha virt. eigenvalues --    0.13080   0.14087   0.14684   0.15788   0.16125
 Alpha virt. eigenvalues --    0.17493   0.17663   0.18127   0.19277   0.20791

 Mulliken charges:
               1
     1  C   -0.410975
     2  C   -0.021843
     3  C    0.058910
     4  O   -0.293880
     5  C   -0.186181
     6  C    0.255657
     7  C   -0.191779
     8  O   -0.297571
     9  C    0.064677
    10  H    0.119602
    11  H    0.115477
    12  H    0.130725
    13  H    0.086820
    14  H    0.072710
    15  H    0.104670
    16  H    0.108840
    17  H    0.108418
    18  H    0.104323
    19  H    0.071399
 Sum of Mulliken charges =   0.00000

 Dipole moment (field-independent basis, Debye):
    X=             -0.6714    Y=              0.7115    Z=             -0.1361  Tot=              0.9877
 Quadrupole moment (field-independent basis, Debye-Ang):
   XX=            -54.5967   YY=            -56.7594   ZZ=            -50.4448
   XY=             -6.7297   XZ=             -0.2398   YZ=             -0.7904

  Exact polarizability:  81.644  -5.558  74.863  -0.435  -0.997  68.324
 Approx polarizability: 109.973  -2.664 108.465   0.206  -1.293 103.938

                      1                      2                      3
                      A                      A                      A
 Frequencies --    103.3100               202.6853               231.1205
 Red. masses --      3.2967                 1.0592                 3.1254
 Frc consts  --      0.0207                 0.0256                 0.0984
 IR Inten    --      4.0914                 0.5381                 3.1625

                      4                      5                      6
                      A                      A                      A
 Frequencies --    236.2212               254.2607               332.2440
 Red. masses --      2.6985                 2.6920                 2.1691
 Frc consts  --      0.0887                 0.1025                 0.1411
 IR Inten    --      1.2311                 2.2325                 0.7913

                      7                      8                      9
                      A                      A                      A
 Frequencies --    366.3841               507.6388               534.5933
 Red. masses --      4.3050                 5.1462                 3.3896
 Frc consts  --      0.3405                 0.7813                 0.5708
 IR Inten    --      4.9768                 0.0993                 2.3615

                     10                     11                     12
                      A                      A                      A
 Frequencies --    676.0278               762.8444               803.2843
 Red. masses --      3.3628                 2.9521                 2.2606
 Frc consts  --      0.9055                 1.0122                 0.8594
 IR Inten    --      0.3326                 7.6374                 3.4101

                     13                     14                     15
                      A                      A                      A
 Frequencies --    863.1123               874.1687               916.8011
 Red. masses --      2.1487                 2.0692                 2.4445
 Frc consts  --      0.9431                 0.9316                 1.2106
 IR Inten    --     13.9944                24.4794                10.2255

                     16                     17                     18
                      A                      A                      A
 Frequencies --    958.5926               965.4808               975.3666
 Red. masses --      2.4944                 1.8728                 5.3053
 Frc consts  --      1.3505                 1.0286                 2.9737
 IR Inten    --      4.9640                25.1018                20.3604

                     19                     20                     21
                      A                      A                      A
 Frequencies --    994.4890              1008.8667              1054.5626
 Red. masses --      3.8059                 6.0793                 1.9095
 Frc consts  --      2.2177                 3.6456                 1.2511
 IR Inten    --     30.7522               107.2914                10.7520

                     22                     23                     24
                      A                      A                      A
 Frequencies --   1096.0639              1119.0183              1128.4430
 Red. masses --      1.8511                 1.9634                 1.6618
 Frc consts  --      1.3102                 1.4486                 1.2468
 IR Inten    --      4.7157                 1.7992                 3.4099

                     25                     26                     27
                      A                      A                      A
 Frequencies --   1137.0824              1168.3079              1175.7204
 Red. masses --      1.6142                 1.7269                 1.5644
 Frc consts  --      1.2297                 1.3887                 1.2741
 IR Inten    --      0.9543                 1.4627                 1.9133

                     28                     29                     30
                      A                      A                      A
 Frequencies --   1194.3461              1244.0117              1263.3736
 Red. masses --      1.5470                 1.6187                 1.6490
 Frc consts  --      1.3002                 1.4759                 1.5507
 IR Inten    --      1.9481                 2.6137                 1.1959

                     31                     32                     33
                      A                      A                      A
 Frequencies --   1268.8889              1287.2408              1314.3166
 Red. masses --      1.7979                 1.4803                 1.3714
 Frc consts  --      1.7055                 1.4451                 1.3958
 IR Inten    --      1.2637                12.9742                 9.8563

                     34                     35                     36
                      A                      A                      A
 Frequencies --   1338.4212              1356.5663              1395.7914
 Red. masses --      1.7007                 1.4426                 2.4686
 Frc consts  --      1.7950                 1.5642                 2.8336
 IR Inten    --      0.8764                 0.3861                 0.0721

                     37                     38                     39
                      A                      A                      A
 Frequencies --   1407.8621              1489.8526              1502.7991
 Red. masses --      1.2983                 1.0451                 1.0488
 Frc consts  --      1.5162                 1.3668                 1.3955
 IR Inten    --      3.0254                 3.4937                 4.7389

                     40                     41                     42
                      A                      A                      A
 Frequencies --   1518.5344              1521.6032              2998.3570
 Red. masses --      1.1102                 1.1004                 1.0596
 Frc consts  --      1.5084                 1.5010                 5.6124
 IR Inten    --      0.1970                 1.0364                35.2833

                     43                     44                     45
                      A                      A                      A
 Frequencies --   3002.1254              3036.3715              3047.9450
 Red. masses --      1.0604                 1.0374                 1.0866
 Frc consts  --      5.6308                 5.6350                 5.9476
 IR Inten    --    131.0148                22.6551                80.6266

                     46                     47                     48
                      A                      A                      A
 Frequencies --   3050.9788              3054.9072              3056.6969
 Red. masses --      1.0885                 1.1028                 1.1041
 Frc consts  --      5.9700                 6.0635                 6.0782
 IR Inten    --      3.6968                22.1899                56.6072

                     49                     50                     51
                      A                      A                      A
 Frequencies --   3063.5936              3100.8238              3120.1883
 Red. masses --      1.0869                 1.1015                 1.1003
 Frc consts  --      6.0107                 6.2398                 6.3113
 IR Inten    --     37.7341                22.3765                19.0899

 - Thermochemistry -
 -------------------
 Temperature   298.150 Kelvin.  Pressure   1.00000 Atm.
 Atom     1 has atomic number  6 and mass  12.00000

 Molecular mass:   126.06808 amu.
 Principal axes and moments of inertia in atomic units:
                           1         2         3
     Eigenvalues --   738.36593 951.365391437.09973
           X            0.98061  -0.19569  -0.01090
           Y            0.19560   0.98065  -0.00843
           Z            0.01234   0.00614   0.99990
 This molecule is an asymmetric top.
 Rotational symmetry number  1.
 Warning -- assumption of classical behavior for rotation
           may cause significant error
 Rotational temperatures (Kelvin)      0.11730     0.09104     0.06027
 Rotational constants (GHZ):           2.44424     1.89700     1.25582
 Zero-point vibrational energy     419185.2 (Joules/Mol)
                                  100.18766 (Kcal/Mol)
 Warning -- explicit consideration of   9 degrees of freedom as
           vibrations may cause significant error
 Vibrational temperatures:    148.64   291.62   332.53   339.87   365.82
          (Kelvin)            478.02   527.14   730.38   769.16   972.65
                             1097.56  1155.75  1241.82  1257.73  1319.07
                             1379.20  1389.11  1403.33  1430.85  1451.53
                             1517.28  1576.99  1610.02  1623.58  1636.01
                             1680.93  1691.60  1718.40  1789.85  1817.71
                             1825.65  1852.05  1891.01  1925.69  1951.79
                             2008.23  2025.60  2143.56  2162.19  2184.83
                             2189.24  4313.96  4319.38  4368.66  4385.31
                             4389.67  4395.32  4397.90  4407.82  4461.39
                             4489.25

 Zero-point correction=                           0.159659 (Hartree/Particle)
 Thermal correction to Energy=                    0.167372
 Thermal correction to Enthalpy=                  0.168316
 Thermal correction to Gibbs Free Energy=         0.127585
 Sum of electronic and zero-point Energies=           -422.960844
 Sum of electronic and thermal Energies=              -422.953131
 Sum of electronic and thermal Enthalpies=            -422.952187
 Sum of electronic and thermal Free Energies=         -422.992918

                     E (Thermal)             CV                S
                      KCal/Mol        Cal/Mol-Kelvin    Cal/Mol-Kelvin
 Total                  105.028             30.028             85.726
 Electronic               0.000              0.000              0.000
 Translational            0.889              2.981             40.409
 Rotational               0.889              2.981             28.403
 Vibrational            103.250             24.067             16.915
 Vibration     1          0.605              1.947              3.391
 Vibration     2          0.639              1.836              2.109
 Vibration     3          0.653              1.793              1.870
 Vibration     4          0.655              1.785              1.831
 Vibration     5          0.665              1.756              1.701
 Vibration     6          0.714              1.611              1.249
 Vibration     7          0.739              1.541              1.095
 Vibration     8          0.863              1.233              0.639
 Vibration     9          0.890              1.174              0.577

 Optimization completed.
    -- Stationary point found.
 Normal termination of Gaussian 09 at Tue Jan 28 00:50:50 2020.
