 Gaussian 09, Revision D.01,
 Gaussian 09:  ES64L-G09RevD.01 24-Apr-2013

 -----------------------------
 # b3lyp 6-31G(2df,p) opt Freq
 -----------------------------

 -----
 titel
 -----
 Symbolic Z-matrix:
 Charge =  0 Multiplicity = 1

 SCF Done:  E(RB3LYP) =  -423.111006266     A.U. after   14 cycles
 Optimization completed.
    -- Stationary point found.
 Normal termination of Gaussian 09 at Tue Jan 28 02:20:11 2020.

 ----------------------------------------------------------------------
 #N Geom=AllCheck Guess=TCheck SCRF=Check GenChk RB3LYP/6-31G(2df,p) Fr
 eq
 ----------------------------------------------------------------------

 Structure from the checkpoint file:  "/scratch/puck/g09_c5936439-80ab-4f6d-b19b-c6874c11abc0/Gau-4991.chk"
 -----
 titel
 -----
 Charge =  0 Multiplicity = 1

                         Standard orientation:
 ---------------------------------------------------------------------
 Center     Atomic      Atomic             Coordinates (Angstroms)
 Number     Number       Type             X           Y           Z
 ---------------------------------------------------------------------
      1          6           0        3.189417    1.450361    0.010253
      2          6           0        2.288462    0.324188    0.442386
      3          8           0        2.566442   -0.973236   -0.107607
      4          6           0        1.344240   -0.328705   -0.471321
      5          6           0        0.090345   -1.005556    0.021260
      6          8           0       -0.981119   -0.096191   -0.129046
      7          6           0       -2.225524   -0.665967    0.228689
      8          6           0       -3.292830    0.307307    0.040925
      9          6           0       -4.192552    1.088962   -0.104250
     10          1           0        3.368888    1.411833   -1.067463
     11          1           0        2.737026    2.416862    0.256308
     12          1           0        4.155986    1.389889    0.521062
     13          1           0        2.043076    0.299718    1.505873
     14          1           0        1.298455    0.022218   -1.503089
     15          1           0       -0.093502   -1.923286   -0.563399
     16          1           0        0.218969   -1.307833    1.073197
     17          1           0       -2.428135   -1.562671   -0.382094
     18          1           0       -2.208795   -0.999841    1.280476
     19          1           0       -4.983894    1.784991   -0.235302
 ---------------------------------------------------------------------

 SCF Done:  E(RB3LYP) =  -423.111006266     A.U. after    1 cycles

 The electronic state is 1-A.
 Alpha  occ. eigenvalues --  -19.15287 -19.14915 -10.26015 -10.23832 -10.23782
 Alpha  occ. eigenvalues --  -10.23613 -10.18717 -10.18362 -10.18082  -1.07068
 Alpha  occ. eigenvalues --   -1.04647  -0.78698  -0.74547  -0.73347  -0.67907
 Alpha  occ. eigenvalues --   -0.61963  -0.59209  -0.53824  -0.51048  -0.49679
 Alpha  occ. eigenvalues --   -0.49495  -0.46501  -0.46243  -0.42138  -0.41142
 Alpha  occ. eigenvalues --   -0.39737  -0.37472  -0.36519  -0.33795  -0.29673
 Alpha  occ. eigenvalues --   -0.28116  -0.27913  -0.26764  -0.26114
 Alpha virt. eigenvalues --    0.02652   0.05197   0.09428   0.10459   0.11138
 Alpha virt. eigenvalues --    0.11919   0.12307   0.12642   0.13728   0.16435
 Alpha virt. eigenvalues --    0.17022   0.17636   0.17926   0.18943   0.21356

 Mulliken charges:
               1
     1  C   -0.416710
     2  C    0.092192
     3  O   -0.263773
     4  C    0.039672
     5  C   -0.077221
     6  O   -0.249812
     7  C   -0.201715
     8  C    0.280003
     9  C   -0.411310
    10  H    0.128525
    11  H    0.127537
    12  H    0.129326
    13  H    0.089144
    14  H    0.097538
    15  H    0.096650
    16  H    0.097132
    17  H    0.120858
    18  H    0.120260
    19  H    0.201704
 Sum of Mulliken charges =   0.00000

 Dipole moment (field-independent basis, Debye):
    X=             -0.7966    Y=              0.3777    Z=              0.5190  Tot=              1.0230
 Quadrupole moment (field-independent basis, Debye-Ang):
   XX=            -52.2494   YY=            -51.7565   ZZ=            -52.0427
   XY=              4.1019   XZ=              0.7381   YZ=             -0.3617

  Exact polarizability: 102.185  -6.480  74.566   4.063  -0.412  61.562
 Approx polarizability: 126.833 -20.573 114.106   7.739  -1.013  92.657

                      1                      2                      3
                      A                      A                      A
 Frequencies --     39.2265                71.2473                81.7065
 Red. masses --      3.8846                 3.0394                 3.6065
 Frc consts  --      0.0035                 0.0091                 0.0142
 IR Inten    --      1.3444                 0.7472                 1.3684

                      4                      5                      6
                      A                      A                      A
 Frequencies --    119.0036               176.5841               204.3517
 Red. masses --      3.3506                 3.5971                 1.1069
 Frc consts  --      0.0280                 0.0661                 0.0272
 IR Inten    --      6.1215                 3.9126                 0.5237

                      7                      8                      9
                      A                      A                      A
 Frequencies --    277.9878               291.5242               333.6850
 Red. masses --      2.1855                 4.2644                 3.4734
 Frc consts  --      0.0995                 0.2135                 0.2279
 IR Inten    --      0.1633                 1.7190                 2.0119

                     10                     11                     12
                      A                      A                      A
 Frequencies --    348.6530               456.0434               497.7772
 Red. masses --      4.4618                 4.5489                 2.8802
 Frc consts  --      0.3196                 0.5574                 0.4205
 IR Inten    --      1.4240                 6.1006                 0.1238

                     13                     14                     15
                      A                      A                      A
 Frequencies --    576.3864               609.6934               678.6361
 Red. masses --      7.0036                 1.1928                 1.2421
 Frc consts  --      1.3709                 0.2612                 0.3370
 IR Inten    --      4.6246                44.2019                34.9866

                     16                     17                     18
                      A                      A                      A
 Frequencies --    801.0663               830.0223               957.6391
 Red. masses --      4.0347                 2.4247                 2.6057
 Frc consts  --      1.5255                 0.9842                 1.4079
 IR Inten    --      7.4946                15.6995                19.2113

                     19                     20                     21
                      A                      A                      A
 Frequencies --    973.5811               989.2266              1030.4869
 Red. masses --      1.5765                 2.4887                 1.5950
 Frc consts  --      0.8804                 1.4349                 0.9979
 IR Inten    --      3.6790                10.3635                 5.4813

                     22                     23                     24
                      A                      A                      A
 Frequencies --   1033.2242              1042.9107              1117.8920
 Red. masses --      5.8688                 1.4260                 2.6260
 Frc consts  --      3.6914                 0.9138                 1.9335
 IR Inten    --     39.5827                 4.5022                10.0242

                     25                     26                     27
                      A                      A                      A
 Frequencies --   1139.1555              1149.1341              1169.1917
 Red. masses --      2.7710                 3.8630                 1.4869
 Frc consts  --      2.1186                 3.0055                 1.1976
 IR Inten    --    124.0109               134.4353                 2.3286

                     28                     29                     30
                      A                      A                      A
 Frequencies --   1184.0316              1238.9470              1256.0056
 Red. masses --      1.8650                 1.1145                 1.0980
 Frc consts  --      1.5405                 1.0079                 1.0205
 IR Inten    --     13.9400                 3.9843                 7.5769

                     31                     32                     33
                      A                      A                      A
 Frequencies --   1280.7319              1354.5938              1380.1918
 Red. masses --      1.3551                 1.1980                 1.2559
 Frc consts  --      1.3096                 1.2952                 1.4095
 IR Inten    --      2.3411                51.6454                49.5826

                     34                     35                     36
                      A                      A                      A
 Frequencies --   1412.0219              1438.8806              1478.0412
 Red. masses --      1.2681                 1.5099                 1.1574
 Frc consts  --      1.4896                 1.8418                 1.4897
 IR Inten    --      6.2353                 9.0448                 4.0568

                     37                     38                     39
                      A                      A                      A
 Frequencies --   1491.5826              1497.4292              1514.6985
 Red. masses --      1.0969                 1.0833                 1.6124
 Frc consts  --      1.4379                 1.4311                 2.1796
 IR Inten    --      6.9259                 3.8862                 3.4684

                     40                     41                     42
                      A                      A                      A
 Frequencies --   1524.2148              2248.8965              2950.1059
 Red. masses --      1.3343                 5.8917                 1.0548
 Frc consts  --      1.8264                17.5563                 5.4086
 IR Inten    --      9.8901                 2.5362                12.2657

                     43                     44                     45
                      A                      A                      A
 Frequencies --   2960.5858              2970.8826              2994.2233
 Red. masses --      1.0575                 1.1024                 1.1022
 Frc consts  --      5.4609                 5.7327                 5.8220
 IR Inten    --     73.5614                40.0740                35.7045

                     46                     47                     48
                      A                      A                      A
 Frequencies --   3037.9012              3089.8623              3103.7154
 Red. masses --      1.0355                 1.0880                 1.1009
 Frc consts  --      5.6303                 6.1199                 6.2481
 IR Inten    --     18.2800                12.1359                16.5253

                     49                     50                     51
                      A                      A                      A
 Frequencies --   3108.3991              3124.9580              3505.7266
 Red. masses --      1.0880                 1.1006                 1.1641
 Frc consts  --      6.1935                 6.3326                 8.4291
 IR Inten    --     23.7569                33.0127                61.2707

 - Thermochemistry -
 -------------------
 Temperature   298.150 Kelvin.  Pressure   1.00000 Atm.
 Atom     1 has atomic number  6 and mass  12.00000

 Molecular mass:   126.06808 amu.
 Principal axes and moments of inertia in atomic units:
                           1         2         3
     Eigenvalues --   404.567002935.278333228.32105
           X            0.99978   0.02076  -0.00028
           Y           -0.02076   0.99969  -0.01399
           Z           -0.00001   0.01400   0.99990
 This molecule is an asymmetric top.
 Rotational symmetry number  1.
 Rotational temperatures (Kelvin)      0.21409     0.02951     0.02683
 Rotational constants (GHZ):           4.46092     0.61485     0.55903
 Zero-point vibrational energy     407583.6 (Joules/Mol)
                                   97.41483 (Kcal/Mol)
 Warning -- explicit consideration of  14 degrees of freedom as
           vibrations may cause significant error
 Vibrational temperatures:     56.44   102.51   117.56   171.22   254.06
          (Kelvin)            294.02   399.96   419.44   480.10   501.63
                              656.14   716.19   829.29   877.21   976.40
                             1152.55  1194.22  1377.83  1400.76  1423.27
                             1482.64  1486.58  1500.51  1608.40  1638.99
                             1653.35  1682.20  1703.56  1782.57  1807.11
                             1842.69  1948.96  1985.79  2031.58  2070.23
                             2126.57  2146.05  2154.46  2179.31  2193.00
                             3235.66  4244.54  4259.62  4274.43  4308.01
                             4370.86  4445.62  4465.55  4472.29  4496.11
                             5043.95

 Zero-point correction=                           0.155240 (Hartree/Particle)
 Thermal correction to Energy=                    0.165463
 Thermal correction to Enthalpy=                  0.166407
 Thermal correction to Gibbs Free Energy=         0.118641
 Sum of electronic and zero-point Energies=           -422.955766
 Sum of electronic and thermal Energies=              -422.945543
 Sum of electronic and thermal Enthalpies=            -422.944599
 Sum of electronic and thermal Free Energies=         -422.992365

                     E (Thermal)             CV                S
                      KCal/Mol        Cal/Mol-Kelvin    Cal/Mol-Kelvin
 Total                  103.830             35.676            100.532
 Electronic               0.000              0.000              0.000
 Translational            0.889              2.981             40.409
 Rotational               0.889              2.981             29.729
 Vibrational            102.052             29.715             30.395
 Vibration     1          0.594              1.981              5.298
 Vibration     2          0.598              1.968              4.119
 Vibration     3          0.600              1.962              3.849
 Vibration     4          0.609              1.933              3.116
 Vibration     5          0.628              1.871              2.364
 Vibration     6          0.640              1.834              2.094
 Vibration     7          0.679              1.714              1.546
 Vibration     8          0.687              1.690              1.465
 Vibration     9          0.715              1.608              1.242
 Vibration    10          0.726              1.578              1.172
 Vibration    11          0.814              1.348              0.778
 Vibration    12          0.853              1.255              0.664
 Vibration    13          0.933              1.082              0.492
 Vibration    14          0.969              1.011              0.433

 Normal termination of Gaussian 09 at Tue Jan 28 02:51:30 2020.
