 Gaussian 09, Revision D.01,
 Gaussian 09:  ES64L-G09RevD.01 24-Apr-2013

 -----------------------------
 # b3lyp 6-31G(2df,p) opt Freq
 -----------------------------

 -----
 titel
 -----
 Symbolic Z-matrix:
 Charge =  0 Multiplicity = 1

 SCF Done:  E(RB3LYP) =  -423.223349942     A.U. after   14 cycles
 Optimization completed.
    -- Stationary point found.
 Normal termination of Gaussian 09 at Mon Jan 27 13:06:08 2020.

 ----------------------------------------------------------------------
 #N Geom=AllCheck Guess=TCheck SCRF=Check GenChk RB3LYP/6-31G(2df,p) Fr
 eq
 ----------------------------------------------------------------------

 Structure from the checkpoint file:  "/scratch/puck/g09_58178aa0-f3c9-4946-8e58-d50dc84934be/Gau-157907.chk"
 -----
 titel
 -----
 Charge =  0 Multiplicity = 1

                         Standard orientation:
 ---------------------------------------------------------------------
 Center     Atomic      Atomic             Coordinates (Angstroms)
 Number     Number       Type             X           Y           Z
 ---------------------------------------------------------------------
      1          8           0       -2.200596   -1.535950    0.078174
      2          6           0       -1.383710   -0.662316   -0.024389
      3          6           0       -1.748276    0.816629    0.002986
      4          6           0       -0.595635    1.773749    0.318974
      5          6           0        0.632150    1.354133   -0.492057
      6          6           0        0.983268   -0.070231   -0.144762
      7          6           0        2.307775   -0.672684   -0.481435
      8          6           0        1.950926   -0.384579    0.966265
      9          8           0       -0.089529   -1.002038   -0.265540
     10          1           0       -2.144789    1.033532   -0.998136
     11          1           0       -2.588123    0.922950    0.692862
     12          1           0       -0.888817    2.803616    0.094037
     13          1           0       -0.354737    1.734697    1.387863
     14          1           0        0.419568    1.434884   -1.566512
     15          1           0        1.491525    1.997735   -0.282597
     16          1           0        2.303261   -1.709867   -0.795388
     17          1           0        3.044364   -0.046779   -0.973402
     18          1           0        1.716649   -1.235004    1.595489
     19          1           0        2.443113    0.439941    1.471222
 ---------------------------------------------------------------------

 SCF Done:  E(RB3LYP) =  -423.223349942     A.U. after    1 cycles

 The electronic state is 1-A.
 Alpha  occ. eigenvalues --  -19.17710 -19.11259 -10.30166 -10.25704 -10.20127
 Alpha  occ. eigenvalues --  -10.20125 -10.19974 -10.19451 -10.19422  -1.09268
 Alpha  occ. eigenvalues --   -1.01222  -0.86763  -0.81402  -0.72578  -0.63776
 Alpha  occ. eigenvalues --   -0.63404  -0.61477  -0.53212  -0.50818  -0.48703
 Alpha  occ. eigenvalues --   -0.48007  -0.45463  -0.43190  -0.42910  -0.41817
 Alpha  occ. eigenvalues --   -0.40325  -0.37734  -0.36315  -0.35067  -0.34299
 Alpha  occ. eigenvalues --   -0.32744  -0.30319  -0.26597  -0.25417
 Alpha virt. eigenvalues --    0.01425   0.07238   0.10039   0.10184   0.11052
 Alpha virt. eigenvalues --    0.13866   0.14492   0.15056   0.15748   0.17030
 Alpha virt. eigenvalues --    0.17787   0.18316   0.19260   0.20674   0.22066

 Mulliken charges:
               1
     1  O   -0.321283
     2  C    0.386728
     3  C   -0.321793
     4  C   -0.224834
     5  C   -0.277758
     6  C    0.466848
     7  C   -0.330392
     8  C   -0.317607
     9  O   -0.269988
    10  H    0.139455
    11  H    0.137005
    12  H    0.104194
    13  H    0.112697
    14  H    0.108015
    15  H    0.106916
    16  H    0.135138
    17  H    0.117977
    18  H    0.132608
    19  H    0.116071
 Sum of Mulliken charges =   0.00000

 Dipole moment (field-independent basis, Debye):
    X=              2.3068    Y=              3.5779    Z=             -0.0103  Tot=              4.2571
 Quadrupole moment (field-independent basis, Debye-Ang):
   XX=            -55.9509   YY=            -56.0087   ZZ=            -51.5519
   XY=             -5.9640   XZ=              0.2646   YZ=             -0.3842

  Exact polarizability:  89.574   0.426  74.978  -0.971  -0.526  63.693
 Approx polarizability: 121.612   7.002 107.548  -1.857  -0.825  98.649

                      1                      2                      3
                      A                      A                      A
 Frequencies --     84.8317                89.7964               223.5993
 Red. masses --      4.2351                 3.3208                 2.1018
 Frc consts  --      0.0180                 0.0158                 0.0619
 IR Inten    --      0.7415                 2.2755                 0.4828

                      4                      5                      6
                      A                      A                      A
 Frequencies --    268.9137               355.7568               392.1974
 Red. masses --      2.5845                 2.0240                 4.0459
 Frc consts  --      0.1101                 0.1509                 0.3667
 IR Inten    --      1.0804                 1.1476                 1.4926

                      7                      8                      9
                      A                      A                      A
 Frequencies --    432.9506               469.2311               523.6440
 Red. masses --      3.1565                 3.4722                 3.4889
 Frc consts  --      0.3486                 0.4504                 0.5637
 IR Inten    --      0.6467                 2.7553                 9.1147

                     10                     11                     12
                      A                      A                      A
 Frequencies --    542.7701               618.3338               718.1067
 Red. masses --      2.7585                 4.6048                 2.4668
 Frc consts  --      0.4788                 1.0373                 0.7495
 IR Inten    --      3.1325                 4.0983                 2.1695

                     13                     14                     15
                      A                      A                      A
 Frequencies --    771.2314               807.7237               855.6791
 Red. masses --      1.0634                 2.7962                 1.6499
 Frc consts  --      0.3727                 1.0748                 0.7118
 IR Inten    --      1.1962                 5.8652                 7.3631

                     16                     17                     18
                      A                      A                      A
 Frequencies --    900.5710               910.1367               948.8458
 Red. masses --      2.4375                 1.4092                 2.1646
 Frc consts  --      1.1648                 0.6878                 1.1482
 IR Inten    --      2.3479                 1.1506                14.1078

                     19                     20                     21
                      A                      A                      A
 Frequencies --    956.8813               986.8578              1015.5262
 Red. masses --      2.2455                 3.1123                 2.1768
 Frc consts  --      1.2114                 1.7858                 1.3226
 IR Inten    --     14.2083                10.5283                10.9435

                     22                     23                     24
                      A                      A                      A
 Frequencies --   1054.9468              1061.1749              1081.2545
 Red. masses --      1.4202                 1.8996                 1.4809
 Frc consts  --      0.9313                 1.2603                 1.0201
 IR Inten    --      1.2247                28.9281                 0.0467

                     25                     26                     27
                      A                      A                      A
 Frequencies --   1096.9676              1154.7112              1186.9488
 Red. masses --      2.0621                 1.7499                 1.3168
 Frc consts  --      1.4620                 1.3747                 1.0930
 IR Inten    --      4.5064               102.8329                19.8019

                     28                     29                     30
                      A                      A                      A
 Frequencies --   1199.0472              1236.0097              1265.8819
 Red. masses --      1.5838                 2.3200                 1.6327
 Frc consts  --      1.3416                 2.0882                 1.5415
 IR Inten    --     60.9990               149.2776                36.1245

                     31                     32                     33
                      A                      A                      A
 Frequencies --   1309.3853              1335.4655              1355.1612
 Red. masses --      1.9010                 1.6219                 1.4301
 Frc consts  --      1.9202                 1.7043                 1.5474
 IR Inten    --     20.2538                50.7805                28.5441

                     34                     35                     36
                      A                      A                      A
 Frequencies --   1376.1694              1399.5360              1453.2858
 Red. masses --      1.4710                 2.0021                 1.0914
 Frc consts  --      1.6413                 2.3104                 1.3581
 IR Inten    --     13.6223                 3.2504                 2.7847

                     37                     38                     39
                      A                      A                      A
 Frequencies --   1459.6969              1484.4673              1497.4868
 Red. masses --      1.0840                 1.1052                 1.2325
 Frc consts  --      1.3609                 1.4350                 1.6284
 IR Inten    --      3.3577                 4.0949                 6.4744

                     40                     41                     42
                      A                      A                      A
 Frequencies --   1503.1076              1843.6080              3021.8596
 Red. masses --      1.3408                12.6198                 1.0673
 Frc consts  --      1.7849                25.2720                 5.7424
 IR Inten    --     15.0764               344.7944                18.6856

                     43                     44                     45
                      A                      A                      A
 Frequencies --   3030.5855              3039.7949              3084.4950
 Red. masses --      1.0706                 1.0603                 1.0985
 Frc consts  --      5.7932                 5.7728                 6.1575
 IR Inten    --      3.5230                30.1077                27.6712

                     46                     47                     48
                      A                      A                      A
 Frequencies --   3088.9700              3112.2382              3135.4991
 Red. masses --      1.0988                 1.0930                 1.0522
 Frc consts  --      6.1773                 6.2376                 6.0948
 IR Inten    --     27.5838                10.1465                10.5606

                     49                     50                     51
                      A                      A                      A
 Frequencies --   3139.3701              3223.1349              3236.2667
 Red. masses --      1.0577                 1.1182                 1.1156
 Frc consts  --      6.1421                 6.8440                 6.8843
 IR Inten    --      6.4635                 0.3113                 7.0759

 - Thermochemistry -
 -------------------
 Temperature   298.150 Kelvin.  Pressure   1.00000 Atm.
 Atom     1 has atomic number  8 and mass  15.99491

 Molecular mass:   126.06808 amu.
 Principal axes and moments of inertia in atomic units:
                           1         2         3
     Eigenvalues --   673.949111207.370001653.32463
           X            0.99824  -0.05938   0.00104
           Y            0.05938   0.99823  -0.00335
           Z           -0.00084   0.00340   0.99999
 This molecule is an asymmetric top.
 Rotational symmetry number  1.
 Warning -- assumption of classical behavior for rotation
           may cause significant error
 Rotational temperatures (Kelvin)      0.12852     0.07174     0.05239
 Rotational constants (GHZ):           2.67786     1.49477     1.09158
 Zero-point vibrational energy     420727.3 (Joules/Mol)
                                  100.55624 (Kcal/Mol)
 Warning -- explicit consideration of  11 degrees of freedom as
           vibrations may cause significant error
 Vibrational temperatures:    122.05   129.20   321.71   386.91   511.85
          (Kelvin)            564.28   622.92   675.12   753.41   780.92
                              889.64  1033.19  1109.63  1162.13  1231.13
                             1295.72  1309.48  1365.18  1376.74  1419.87
                             1461.11  1517.83  1526.79  1555.68  1578.29
                             1661.37  1707.75  1725.16  1778.34  1821.32
                             1883.91  1921.43  1949.77  1980.00  2013.62
                             2090.95  2100.18  2135.81  2154.55  2162.63
                             2652.54  4347.78  4360.33  4373.58  4437.89
                             4444.33  4477.81  4511.28  4516.85  4637.37
                             4656.26

 Zero-point correction=                           0.160247 (Hartree/Particle)
 Thermal correction to Energy=                    0.168199
 Thermal correction to Enthalpy=                  0.169143
 Thermal correction to Gibbs Free Energy=         0.127522
 Sum of electronic and zero-point Energies=           -423.063103
 Sum of electronic and thermal Energies=              -423.055151
 Sum of electronic and thermal Enthalpies=            -423.054207
 Sum of electronic and thermal Free Energies=         -423.095828

                     E (Thermal)             CV                S
                      KCal/Mol        Cal/Mol-Kelvin    Cal/Mol-Kelvin
 Total                  105.547             31.087             87.599
 Electronic               0.000              0.000              0.000
 Translational            0.889              2.981             40.409
 Rotational               0.889              2.981             28.688
 Vibrational            103.769             25.125             18.503
 Vibration     1          0.601              1.960              3.776
 Vibration     2          0.602              1.956              3.665
 Vibration     3          0.649              1.805              1.930
 Vibration     4          0.673              1.730              1.603
 Vibration     5          0.731              1.563              1.141
 Vibration     6          0.760              1.487              0.992
 Vibration     7          0.794              1.398              0.849
 Vibration     8          0.826              1.318              0.740
 Vibration     9          0.879              1.198              0.602
 Vibration    10          0.898              1.156              0.559
 Vibration    11          0.978              0.993              0.419

 Normal termination of Gaussian 09 at Mon Jan 27 13:52:51 2020.
