 Gaussian 09, Revision D.01,
 Gaussian 09:  ES64L-G09RevD.01 24-Apr-2013

 -----------------------------
 # b3lyp 6-31G(2df,p) opt Freq
 -----------------------------

 -----
 titel
 -----
 Symbolic Z-matrix:
 Charge =  0 Multiplicity = 1

 SCF Done:  E(RB3LYP) =  -423.167776250     A.U. after   14 cycles
 Optimization completed.
    -- Stationary point found.
 Normal termination of Gaussian 09 at Tue Jan 28 09:16:43 2020.

 ----------------------------------------------------------------------
 #N Geom=AllCheck Guess=TCheck SCRF=Check GenChk RB3LYP/6-31G(2df,p) Fr
 eq
 ----------------------------------------------------------------------

 Structure from the checkpoint file:  "/scratch/puck/g09_a806a7b8-757d-4a4b-91ac-0da4ee0561d0/Gau-17486.chk"
 -----
 titel
 -----
 Charge =  0 Multiplicity = 1

                         Standard orientation:
 ---------------------------------------------------------------------
 Center     Atomic      Atomic             Coordinates (Angstroms)
 Number     Number       Type             X           Y           Z
 ---------------------------------------------------------------------
      1          6           0        2.911321   -0.230707   -0.156441
      2          8           0        1.673373    0.250826   -0.660246
      3          6           0        0.587793   -0.137189    0.083478
      4          6           0        0.181924    0.532980    1.350559
      5          6           0       -0.760769    0.622619    0.136198
      6          6           0       -1.207384    1.933337   -0.443348
      7          6           0       -1.449740   -0.702688   -0.014829
      8          8           0       -2.586654   -1.015433   -0.232520
      9          6           0       -0.115627   -1.501038   -0.036311
     10          1           0        2.950325   -1.328577   -0.165304
     11          1           0        3.692015    0.158857   -0.812635
     12          1           0        3.088795    0.120259    0.869162
     13          1           0       -0.092497   -0.031390    2.237868
     14          1           0        0.677118    1.478758    1.550566
     15          1           0       -1.606281    1.798063   -1.453123
     16          1           0       -1.992995    2.388789    0.168298
     17          1           0       -0.370023    2.635504   -0.498746
     18          1           0        0.056673   -2.242991    0.748917
     19          1           0        0.018007   -1.964302   -1.018709
 ---------------------------------------------------------------------

 SCF Done:  E(RB3LYP) =  -423.167776250     A.U. after    1 cycles

 The electronic state is 1-A.
 Alpha  occ. eigenvalues --  -19.16241 -19.12776 -10.26631 -10.25690 -10.23681
 Alpha  occ. eigenvalues --  -10.20778 -10.20383 -10.19291 -10.18619  -1.05905
 Alpha  occ. eigenvalues --   -1.03782  -0.90293  -0.74627  -0.71792  -0.70589
 Alpha  occ. eigenvalues --   -0.62299  -0.57425  -0.50962  -0.50261  -0.48200
 Alpha  occ. eigenvalues --   -0.46966  -0.44700  -0.44506  -0.42324  -0.41344
 Alpha  occ. eigenvalues --   -0.40121  -0.39614  -0.38660  -0.36502  -0.35235
 Alpha  occ. eigenvalues --   -0.31852  -0.26580  -0.26467  -0.23826
 Alpha virt. eigenvalues --   -0.00719   0.08388   0.09942   0.10464   0.11452
 Alpha virt. eigenvalues --    0.12488   0.13655   0.15039   0.15491   0.15950
 Alpha virt. eigenvalues --    0.16633   0.17466   0.18037   0.19864   0.20760

 Mulliken charges:
               1
     1  C   -0.259278
     2  O   -0.283439
     3  C    0.412898
     4  C   -0.386678
     5  C    0.117599
     6  C   -0.497242
     7  C    0.386975
     8  O   -0.316196
     9  C   -0.435758
    10  H    0.118551
    11  H    0.134075
    12  H    0.115817
    13  H    0.118345
    14  H    0.126386
    15  H    0.134800
    16  H    0.134403
    17  H    0.129168
    18  H    0.114631
    19  H    0.134941
 Sum of Mulliken charges =   0.00000

 Dipole moment (field-independent basis, Debye):
    X=              3.2828    Y=              0.6753    Z=              1.1683  Tot=              3.5493
 Quadrupole moment (field-independent basis, Debye-Ang):
   XX=            -58.3720   YY=            -51.8908   ZZ=            -52.3353
   XY=             -4.9649   XZ=              0.1863   YZ=              0.1737

  Exact polarizability:  90.708  -1.097  77.546   2.840   1.517  64.794
 Approx polarizability: 130.512   2.847 108.669   5.313   2.798 100.059

                      1                      2                      3
                      A                      A                      A
 Frequencies --     75.9926               101.1461               141.6359
 Red. masses --      3.0823                 3.6701                 2.2792
 Frc consts  --      0.0105                 0.0221                 0.0269
 IR Inten    --      0.6728                 5.1227                 2.1062

                      4                      5                      6
                      A                      A                      A
 Frequencies --    154.6986               188.0128               235.4598
 Red. masses --      1.1240                 1.1763                 2.8714
 Frc consts  --      0.0158                 0.0245                 0.0938
 IR Inten    --      0.0038                 0.5101                 3.2883

                      7                      8                      9
                      A                      A                      A
 Frequencies --    279.9729               353.2023               423.8514
 Red. masses --      2.9915                 2.7405                 2.9056
 Frc consts  --      0.1382                 0.2014                 0.3075
 IR Inten    --      1.4298                 4.0342                 5.0110

                     10                     11                     12
                      A                      A                      A
 Frequencies --    447.8315               515.4934               566.9715
 Red. masses --      3.3689                 3.9907                 3.2123
 Frc consts  --      0.3981                 0.6248                 0.6084
 IR Inten    --      0.3369                 1.9118                 0.4919

                     13                     14                     15
                      A                      A                      A
 Frequencies --    629.9463               664.4513               747.0899
 Red. masses --      2.7323                 3.1533                 4.2024
 Frc consts  --      0.6388                 0.8202                 1.3820
 IR Inten    --      5.1111                 1.5145                 9.8607

                     16                     17                     18
                      A                      A                      A
 Frequencies --    790.2068               853.2507               957.6298
 Red. masses --      2.6147                 3.9626                 1.5212
 Frc consts  --      0.9620                 1.6997                 0.8219
 IR Inten    --     23.0616                 8.0779                13.9264

                     19                     20                     21
                      A                      A                      A
 Frequencies --    971.2034               987.7308              1020.1225
 Red. masses --      1.3524                 2.2547                 2.7369
 Frc consts  --      0.7516                 1.2960                 1.6781
 IR Inten    --      4.3991                12.5030                24.7835

                     22                     23                     24
                      A                      A                      A
 Frequencies --   1051.0198              1070.6502              1102.3892
 Red. masses --      2.4341                 1.4596                 1.6790
 Frc consts  --      1.5842                 0.9858                 1.2022
 IR Inten    --     21.4245                11.6011                 2.8327

                     25                     26                     27
                      A                      A                      A
 Frequencies --   1118.0825              1173.4169              1180.2326
 Red. masses --      1.7979                 2.4867                 1.3276
 Frc consts  --      1.3242                 2.0173                 1.0896
 IR Inten    --     66.9608                16.4144                 6.3184

                     28                     29                     30
                      A                      A                      A
 Frequencies --   1190.5514              1220.6047              1241.0729
 Red. masses --      1.4967                 1.5927                 3.8461
 Frc consts  --      1.2499                 1.3981                 3.4904
 IR Inten    --      3.9135                 5.0451                26.4240

                     31                     32                     33
                      A                      A                      A
 Frequencies --   1347.4301              1383.1899              1415.3940
 Red. masses --      3.7508                 2.2370                 1.4132
 Frc consts  --      4.0122                 2.5216                 1.6681
 IR Inten    --    129.8150                62.6901                 1.9127

                     34                     35                     36
                      A                      A                      A
 Frequencies --   1454.2097              1478.2158              1482.4281
 Red. masses --      1.1121                 1.1474                 1.0486
 Frc consts  --      1.3857                 1.4772                 1.3577
 IR Inten    --      2.9510                 2.6143                 2.9283

                     37                     38                     39
                      A                      A                      A
 Frequencies --   1488.2620              1497.3268              1504.0490
 Red. masses --      1.0563                 1.0521                 1.1474
 Frc consts  --      1.3785                 1.3898                 1.5292
 IR Inten    --      3.6379                 6.0807                33.5226

                     40                     41                     42
                      A                      A                      A
 Frequencies --   1508.5882              1877.0301              2997.9841
 Red. masses --      1.3531                12.6569                 1.0344
 Frc consts  --      1.8144                26.2736                 5.4779
 IR Inten    --     10.2086               323.0222                50.7620

                     43                     44                     45
                      A                      A                      A
 Frequencies --   3037.2162              3051.1274              3055.0010
 Red. masses --      1.0349                 1.0620                 1.0997
 Frc consts  --      5.6246                 5.8248                 6.0471
 IR Inten    --     26.5371                 7.8758                47.6781

                     46                     47                     48
                      A                      A                      A
 Frequencies --   3102.7923              3109.4581              3109.6679
 Red. masses --      1.1010                 1.1056                 1.0601
 Frc consts  --      6.2453                 6.2985                 6.0397
 IR Inten    --     14.7252                 7.9214                 8.4185

                     49                     50                     51
                      A                      A                      A
 Frequencies --   3112.5392              3129.3184              3200.6505
 Red. masses --      1.0969                 1.0989                 1.1156
 Frc consts  --      6.2613                 6.3405                 6.7335
 IR Inten    --     19.4145                24.5969                 6.8244

 - Thermochemistry -
 -------------------
 Temperature   298.150 Kelvin.  Pressure   1.00000 Atm.
 Atom     1 has atomic number  6 and mass  12.00000

 Molecular mass:   126.06808 amu.
 Principal axes and moments of inertia in atomic units:
                           1         2         3
     Eigenvalues --   636.563211403.536121714.41972
           X            0.99878  -0.04882   0.00799
           Y            0.04889   0.99876  -0.00943
           Z           -0.00752   0.00981   0.99992
 This molecule is an asymmetric top.
 Rotational symmetry number  1.
 Warning -- assumption of classical behavior for rotation
           may cause significant error
 Rotational temperatures (Kelvin)      0.13606     0.06171     0.05052
 Rotational constants (GHZ):           2.83513     1.28585     1.05268
 Zero-point vibrational energy     411490.3 (Joules/Mol)
                                   98.34853 (Kcal/Mol)
 Warning -- explicit consideration of  12 degrees of freedom as
           vibrations may cause significant error
 Vibrational temperatures:    109.34   145.53   203.78   222.58   270.51
          (Kelvin)            338.77   402.82   508.18   609.83   644.33
                              741.68   815.74   906.35   956.00  1074.89
                             1136.93  1227.64  1377.81  1397.34  1421.12
                             1467.73  1512.18  1540.42  1586.09  1608.67
                             1688.28  1698.09  1712.94  1756.18  1785.62
                             1938.65  1990.10  2036.43  2092.28  2126.82
                             2132.88  2141.27  2154.32  2163.99  2170.52
                             2700.62  4313.43  4369.87  4389.89  4395.46
                             4464.22  4473.81  4474.11  4478.24  4502.39
                             4605.02

 Zero-point correction=                           0.156728 (Hartree/Particle)
 Thermal correction to Energy=                    0.166125
 Thermal correction to Enthalpy=                  0.167069
 Thermal correction to Gibbs Free Energy=         0.122388
 Sum of electronic and zero-point Energies=           -423.011048
 Sum of electronic and thermal Energies=              -423.001652
 Sum of electronic and thermal Enthalpies=            -423.000707
 Sum of electronic and thermal Free Energies=         -423.045388

                     E (Thermal)             CV                S
                      KCal/Mol        Cal/Mol-Kelvin    Cal/Mol-Kelvin
 Total                  104.245             34.239             94.039
 Electronic               0.000              0.000              0.000
 Translational            0.889              2.981             40.409
 Rotational               0.889              2.981             28.817
 Vibrational            102.467             28.278             24.813
 Vibration     1          0.599              1.965              3.992
 Vibration     2          0.604              1.948              3.432
 Vibration     3          0.615              1.912              2.782
 Vibration     4          0.620              1.897              2.614
 Vibration     5          0.633              1.856              2.247
 Vibration     6          0.655              1.787              1.837
 Vibration     7          0.680              1.711              1.534
 Vibration     8          0.729              1.569              1.152
 Vibration     9          0.786              1.418              0.879
 Vibration    10          0.807              1.366              0.802
 Vibration    11          0.871              1.216              0.621
 Vibration    12          0.923              1.103              0.510

 Optimization completed.
    -- Stationary point found.
 Normal termination of Gaussian 09 at Tue Jan 28 10:01:24 2020.
