 Gaussian 09, Revision D.01,
 Gaussian 09:  ES64L-G09RevD.01 24-Apr-2013

 -----------------------------
 # b3lyp 6-31G(2df,p) opt Freq
 -----------------------------

 -----
 titel
 -----
 Symbolic Z-matrix:
 Charge =  0 Multiplicity = 1

 SCF Done:  E(RB3LYP) =  -423.213643673     A.U. after   14 cycles
 Optimization completed.
    -- Stationary point found.
 Normal termination of Gaussian 09 at Tue Jan 28 04:00:35 2020.

 ----------------------------------------------------------------------
 #N Geom=AllCheck Guess=TCheck SCRF=Check GenChk RB3LYP/6-31G(2df,p) Fr
 eq
 ----------------------------------------------------------------------

 Structure from the checkpoint file:  "/scratch/puck/g09_134c1f09-2807-47c5-b38a-c9d9a97b765d/Gau-92502.chk"
 -----
 titel
 -----
 Charge =  0 Multiplicity = 1

                         Standard orientation:
 ---------------------------------------------------------------------
 Center     Atomic      Atomic             Coordinates (Angstroms)
 Number     Number       Type             X           Y           Z
 ---------------------------------------------------------------------
      1          6           0        1.386572    1.910992    0.059512
      2          6           0        1.394865    0.444640    0.459290
      3          6           0        2.187200   -0.587372   -0.398095
      4          6           0        1.011754   -1.589024   -0.220038
      5          6           0        0.125728   -0.410552    0.220088
      6          6           0       -1.100018   -0.482865    1.138258
      7          6           0       -1.851463    0.052503   -0.078720
      8          8           0       -2.962409    0.354158   -0.374133
      9          8           0       -0.732398    0.100368   -0.870471
     10          1           0        1.056359    2.030703   -0.975800
     11          1           0        0.714028    2.497834    0.694829
     12          1           0        2.389605    2.339957    0.153437
     13          1           0        1.678150    0.338147    1.513684
     14          1           0        2.284320   -0.256012   -1.435431
     15          1           0        3.168922   -0.893384   -0.031714
     16          1           0        0.666691   -2.138668   -1.097844
     17          1           0        1.179674   -2.291824    0.601092
     18          1           0       -1.408583   -1.481791    1.453369
     19          1           0       -1.098536    0.188890    1.999437
 ---------------------------------------------------------------------

 SCF Done:  E(RB3LYP) =  -423.213643672     A.U. after    1 cycles

 The electronic state is 1-A.
 Alpha  occ. eigenvalues --  -19.17614 -19.13043 -10.30602 -10.25686 -10.20686
 Alpha  occ. eigenvalues --  -10.20111 -10.19529 -10.19206 -10.18121  -1.10142
 Alpha  occ. eigenvalues --   -1.02874  -0.85693  -0.76316  -0.73676  -0.65008
 Alpha  occ. eigenvalues --   -0.63322  -0.57076  -0.53464  -0.49480  -0.49201
 Alpha  occ. eigenvalues --   -0.48490  -0.45127  -0.43453  -0.42414  -0.41730
 Alpha  occ. eigenvalues --   -0.39215  -0.37364  -0.36726  -0.35927  -0.33433
 Alpha  occ. eigenvalues --   -0.32378  -0.31238  -0.28555  -0.27098
 Alpha virt. eigenvalues --    0.01381   0.06285   0.09163   0.09860   0.11098
 Alpha virt. eigenvalues --    0.12938   0.13079   0.14210   0.15687   0.16955
 Alpha virt. eigenvalues --    0.17645   0.18163   0.18806   0.19020   0.21129

 Mulliken charges:
               1
     1  C   -0.416199
     2  C   -0.020521
     3  C   -0.237794
     4  C   -0.284990
     5  C    0.433891
     6  C   -0.514437
     7  C    0.442148
     8  O   -0.319331
     9  O   -0.271290
    10  H    0.137439
    11  H    0.118152
    12  H    0.118275
    13  H    0.081007
    14  H    0.116716
    15  H    0.102480
    16  H    0.120369
    17  H    0.110498
    18  H    0.142145
    19  H    0.141440
 Sum of Mulliken charges =   0.00000

 Dipole moment (field-independent basis, Debye):
    X=              3.3534    Y=             -1.1795    Z=              2.1838  Tot=              4.1720
 Quadrupole moment (field-independent basis, Debye-Ang):
   XX=            -62.5168   YY=            -51.2259   ZZ=            -52.4810
   XY=              2.3104   XZ=             -3.0873   YZ=              0.3592

  Exact polarizability:  89.201  -1.933  71.966  -0.724  -0.662  65.880
 Approx polarizability: 124.218  -5.261  99.048   1.507  -2.390 103.175

                      1                      2                      3
                      A                      A                      A
 Frequencies --     84.7981                86.4894               195.5860
 Red. masses --      3.1137                 3.3232                 1.3811
 Frc consts  --      0.0132                 0.0146                 0.0311
 IR Inten    --      2.2623                 0.6687                 1.3865

                      4                      5                      6
                      A                      A                      A
 Frequencies --    215.3806               233.2425               318.5856
 Red. masses --      3.0048                 1.6710                 2.8015
 Frc consts  --      0.0821                 0.0536                 0.1675
 IR Inten    --      0.7405                 0.4522                 0.4988

                      7                      8                      9
                      A                      A                      A
 Frequencies --    395.4205               455.5486               502.8295
 Red. masses --      2.3828                 5.0302                 3.5088
 Frc consts  --      0.2195                 0.6150                 0.5227
 IR Inten    --      0.1052                 2.3991                 0.3300

                     10                     11                     12
                      A                      A                      A
 Frequencies --    520.6721               555.2474               668.3628
 Red. masses --      2.2686                 3.1708                 2.2682
 Frc consts  --      0.3624                 0.5760                 0.5970
 IR Inten    --      3.6813                 1.4110                 0.8955

                     13                     14                     15
                      A                      A                      A
 Frequencies --    749.6792               796.6594               849.7338
 Red. masses --      1.6419                 3.0807                 4.3813
 Frc consts  --      0.5437                 1.1520                 1.8639
 IR Inten    --      0.3036                 1.7716                87.5475

                     16                     17                     18
                      A                      A                      A
 Frequencies --    867.2085               888.5784               931.5910
 Red. masses --      2.0052                 2.1093                 1.5028
 Frc consts  --      0.8885                 0.9812                 0.7684
 IR Inten    --      0.1082                 0.3103                 5.1034

                     19                     20                     21
                      A                      A                      A
 Frequencies --    948.4069               967.7421              1039.1537
 Red. masses --      1.9585                 4.3334                 1.2785
 Frc consts  --      1.0379                 2.3911                 0.8134
 IR Inten    --      8.3415                15.5549                 2.9505

                     22                     23                     24
                      A                      A                      A
 Frequencies --   1056.7845              1084.0586              1127.0178
 Red. masses --      2.3825                 2.2487                 2.3885
 Frc consts  --      1.5677                 1.5570                 1.7874
 IR Inten    --     21.7047                59.5749                31.1267

                     25                     26                     27
                      A                      A                      A
 Frequencies --   1157.8620              1172.5797              1187.2063
 Red. masses --      1.9586                 1.8260                 1.6919
 Frc consts  --      1.5471                 1.4792                 1.4050
 IR Inten    --      5.4005                17.2975                 3.5212

                     28                     29                     30
                      A                      A                      A
 Frequencies --   1208.0731              1234.1002              1255.8557
 Red. masses --      2.0196                 1.8232                 1.3877
 Frc consts  --      1.7366                 1.6360                 1.2895
 IR Inten    --     36.4016                22.9742                 9.3437

                     31                     32                     33
                      A                      A                      A
 Frequencies --   1265.9938              1280.3709              1321.8726
 Red. masses --      1.6007                 1.6602                 2.1636
 Frc consts  --      1.5115                 1.6035                 2.2275
 IR Inten    --      9.6735                11.9318                26.8623

                     34                     35                     36
                      A                      A                      A
 Frequencies --   1367.4922              1410.5184              1448.0384
 Red. masses --      1.6928                 1.2564                 1.1244
 Frc consts  --      1.8651                 1.4728                 1.3891
 IR Inten    --      5.4692                 2.1332                10.9133

                     37                     38                     39
                      A                      A                      A
 Frequencies --   1464.8683              1491.5732              1493.6841
 Red. masses --      1.1015                 1.0603                 1.1088
 Frc consts  --      1.3926                 1.3898                 1.4576
 IR Inten    --      3.0277                 3.5050                 6.8932

                     40                     41                     42
                      A                      A                      A
 Frequencies --   1498.4293              1938.4596              3030.9711
 Red. masses --      1.0548                12.8969                 1.0719
 Frc consts  --      1.3954                28.5528                 5.8020
 IR Inten    --      4.8042               496.0241                15.9487

                     43                     44                     45
                      A                      A                      A
 Frequencies --   3035.5623              3062.4441              3067.0033
 Red. masses --      1.0471                 1.0597                 1.0597
 Frc consts  --      5.6850                 5.8555                 5.8731
 IR Inten    --     21.2854                21.9094                28.6497

                     46                     47                     48
                      A                      A                      A
 Frequencies --   3079.6617              3096.7837              3115.8196
 Red. masses --      1.0595                 1.1006                 1.1063
 Frc consts  --      5.9206                 6.2190                 6.3282
 IR Inten    --      4.5782                24.8501                 8.8814

                     49                     50                     51
                      A                      A                      A
 Frequencies --   3119.8663              3130.0085              3135.5768
 Red. masses --      1.1013                 1.1072                 1.1067
 Frc consts  --      6.3160                 6.3908                 6.4107
 IR Inten    --     10.9231                35.0399                 2.8377

 - Thermochemistry -
 -------------------
 Temperature   298.150 Kelvin.  Pressure   1.00000 Atm.
 Atom     1 has atomic number  6 and mass  12.00000

 Molecular mass:   126.06808 amu.
 Principal axes and moments of inertia in atomic units:
                           1         2         3
     Eigenvalues --   591.858241428.180571669.61207
           X            0.99969   0.01888  -0.01650
           Y           -0.01885   0.99982   0.00217
           Z            0.01653  -0.00186   0.99986
 This molecule is an asymmetric top.
 Rotational symmetry number  1.
 Warning -- assumption of classical behavior for rotation
           may cause significant error
 Rotational temperatures (Kelvin)      0.14634     0.06065     0.05188
 Rotational constants (GHZ):           3.04928     1.26366     1.08093
 Zero-point vibrational energy     416357.0 (Joules/Mol)
                                   99.51171 (Kcal/Mol)
 Warning -- explicit consideration of  11 degrees of freedom as
           vibrations may cause significant error
 Vibrational temperatures:    122.01   124.44   281.40   309.88   335.58
          (Kelvin)            458.37   568.92   655.43   723.46   749.13
                              798.88   961.62  1078.62  1146.21  1222.58
                             1247.72  1278.46  1340.35  1364.54  1392.36
                             1495.11  1520.48  1559.72  1621.53  1665.90
                             1687.08  1708.12  1738.15  1775.59  1806.89
                             1821.48  1842.17  1901.88  1967.51  2029.42
                             2083.40  2107.62  2146.04  2149.08  2155.90
                             2789.01  4360.89  4367.49  4406.17  4412.73
                             4430.94  4455.58  4482.96  4488.79  4503.38
                             4511.39

 Zero-point correction=                           0.158582 (Hartree/Particle)
 Thermal correction to Energy=                    0.167049
 Thermal correction to Enthalpy=                  0.167993
 Thermal correction to Gibbs Free Energy=         0.125280
 Sum of electronic and zero-point Energies=           -423.055062
 Sum of electronic and thermal Energies=              -423.046595
 Sum of electronic and thermal Enthalpies=            -423.045651
 Sum of electronic and thermal Free Energies=         -423.088364

                     E (Thermal)             CV                S
                      KCal/Mol        Cal/Mol-Kelvin    Cal/Mol-Kelvin
 Total                  104.825             32.138             89.897
 Electronic               0.000              0.000              0.000
 Translational            0.889              2.981             40.409
 Rotational               0.889              2.981             28.736
 Vibrational            103.047             26.177             20.752
 Vibration     1          0.601              1.960              3.777
 Vibration     2          0.601              1.959              3.738
 Vibration     3          0.636              1.846              2.174
 Vibration     4          0.645              1.818              1.998
 Vibration     5          0.654              1.790              1.854
 Vibration     6          0.705              1.638              1.317
 Vibration     7          0.762              1.480              0.980
 Vibration     8          0.814              1.349              0.779
 Vibration     9          0.858              1.244              0.651
 Vibration    10          0.876              1.204              0.608
 Vibration    11          0.911              1.128              0.533

 Optimization completed.
    -- Stationary point found.
 Normal termination of Gaussian 09 at Tue Jan 28 04:50:05 2020.
