 Gaussian 09, Revision D.01,
 Gaussian 09:  ES64L-G09RevD.01 24-Apr-2013

 -----------------------------
 # b3lyp 6-31G(2df,p) opt Freq
 -----------------------------

 -----
 titel
 -----
 Symbolic Z-matrix:
 Charge =  0 Multiplicity = 1

 SCF Done:  E(RB3LYP) =  -423.112377202     A.U. after   14 cycles
 Optimization completed.
    -- Stationary point found.
 Normal termination of Gaussian 09 at Mon Jan 27 22:02:49 2020.

 ----------------------------------------------------------------------
 #N Geom=AllCheck Guess=TCheck SCRF=Check GenChk RB3LYP/6-31G(2df,p) Fr
 eq
 ----------------------------------------------------------------------

 Structure from the checkpoint file:  "/scratch/puck/g09_dcd2c91d-7fba-4d03-8e5b-93b5d7ee14f0/Gau-98614.chk"
 -----
 titel
 -----
 Charge =  0 Multiplicity = 1

                         Standard orientation:
 ---------------------------------------------------------------------
 Center     Atomic      Atomic             Coordinates (Angstroms)
 Number     Number       Type             X           Y           Z
 ---------------------------------------------------------------------
      1          6           0        2.597003   -0.459371    0.512782
      2          6           0        1.192559   -0.153197    0.117103
      3          8           0        0.973564    0.715973   -1.027375
      4          6           0        0.338854   -0.585339   -0.984424
      5          6           0       -0.937329   -0.545488   -0.091829
      6          6           0       -1.937340   -1.664918   -0.120074
      7          6           0       -1.157890    0.805637    0.537205
      8          8           0       -1.083526    2.058949   -0.049350
      9          6           0       -0.027459   -0.043266    1.075700
     10          1           0        3.214693   -0.626881   -0.373276
     11          1           0        3.027912    0.369788    1.085367
     12          1           0        2.631339   -1.354772    1.141852
     13          1           0        0.517081   -1.245591   -1.826254
     14          1           0       -1.452677   -2.647019   -0.056530
     15          1           0       -2.636242   -1.586209    0.718555
     16          1           0       -2.526006   -1.645157   -1.045709
     17          1           0       -2.012215    0.781666    1.212893
     18          1           0       -0.304144    2.029116   -0.621385
     19          1           0        0.009570   -0.398672    2.099517
 ---------------------------------------------------------------------

 SCF Done:  E(RB3LYP) =  -423.112377202     A.U. after    1 cycles

 The electronic state is 1-A.
 Alpha  occ. eigenvalues --  -19.16164 -19.12017 -10.25183 -10.24195 -10.23859
 Alpha  occ. eigenvalues --  -10.20242 -10.19369 -10.19097 -10.18702  -1.08279
 Alpha  occ. eigenvalues --   -1.00905  -0.86568  -0.75703  -0.72224  -0.68231
 Alpha  occ. eigenvalues --   -0.62147  -0.58013  -0.54489  -0.49506  -0.48607
 Alpha  occ. eigenvalues --   -0.46220  -0.43833  -0.42760  -0.41764  -0.40684
 Alpha  occ. eigenvalues --   -0.39247  -0.38361  -0.37822  -0.35551  -0.33901
 Alpha  occ. eigenvalues --   -0.33374  -0.26636  -0.23680  -0.22713
 Alpha virt. eigenvalues --    0.05678   0.09274   0.09534   0.10903   0.12006
 Alpha virt. eigenvalues --    0.12988   0.13932   0.14296   0.15444   0.15704
 Alpha virt. eigenvalues --    0.16301   0.18555   0.19826   0.20755   0.22479

 Mulliken charges:
               1
     1  C   -0.500980
     2  C    0.432185
     3  O   -0.318320
     4  C   -0.108057
     5  C    0.219848
     6  C   -0.493003
     7  C    0.105888
     8  O   -0.430762
     9  C   -0.272030
    10  H    0.136816
    11  H    0.136473
    12  H    0.130755
    13  H    0.107154
    14  H    0.116616
    15  H    0.124745
    16  H    0.126820
    17  H    0.104137
    18  H    0.293516
    19  H    0.088200
 Sum of Mulliken charges =   0.00000

 Dipole moment (field-independent basis, Debye):
    X=              0.9882    Y=             -3.0072    Z=              0.6051  Tot=              3.2227
 Quadrupole moment (field-independent basis, Debye-Ang):
   XX=            -51.4187   YY=            -57.0215   ZZ=            -51.5547
   XY=              2.1489   XZ=              0.4244   YZ=              0.7215

  Exact polarizability:  84.475   1.537  72.080   1.500   2.242  69.613
 Approx polarizability: 112.142   2.268 109.930   3.661   1.314 111.405

                      1                      2                      3
                      A                      A                      A
 Frequencies --    142.9073               194.2060               199.5419
 Red. masses --      3.0108                 1.0974                 1.0547
 Frc consts  --      0.0362                 0.0244                 0.0247
 IR Inten    --      0.2874                 0.0575                 0.0267

                      4                      5                      6
                      A                      A                      A
 Frequencies --    212.1863               265.6537               280.2856
 Red. masses --      2.8420                 3.2722                 3.1309
 Frc consts  --      0.0754                 0.1361                 0.1449
 IR Inten    --      0.3536                 1.7288                 0.9149

                      7                      8                      9
                      A                      A                      A
 Frequencies --    319.8294               365.1830               466.3325
 Red. masses --      3.3688                 2.9755                 6.9622
 Frc consts  --      0.2030                 0.2338                 0.8920
 IR Inten    --      3.9530                 2.2199                10.0917

                     10                     11                     12
                      A                      A                      A
 Frequencies --    529.4933               564.7809               590.7758
 Red. masses --      2.9589                 1.5654                 2.6618
 Frc consts  --      0.4888                 0.2942                 0.5474
 IR Inten    --      4.9822                14.2429                21.5047

                     13                     14                     15
                      A                      A                      A
 Frequencies --    647.3028               667.3156               731.8059
 Red. masses --      2.4291                 4.6943                 4.8114
 Frc consts  --      0.5997                 1.2316                 1.5181
 IR Inten    --     43.7981                 3.4816                 7.0182

                     16                     17                     18
                      A                      A                      A
 Frequencies --    802.9823               857.0633               874.8902
 Red. masses --      3.5938                 2.5301                 3.1068
 Frc consts  --      1.3653                 1.0950                 1.4011
 IR Inten    --     11.6250                40.7738                 2.8066

                     19                     20                     21
                      A                      A                      A
 Frequencies --    905.5086               917.8983               963.4826
 Red. masses --      1.7651                 1.9409                 1.8649
 Frc consts  --      0.8527                 0.9635                 1.0200
 IR Inten    --     14.7483                 8.3421                 5.4523

                     22                     23                     24
                      A                      A                      A
 Frequencies --    980.9240              1011.6059              1076.2190
 Red. masses --      1.6342                 1.6752                 1.7691
 Frc consts  --      0.9264                 1.0100                 1.2072
 IR Inten    --     13.2176                 1.2860                27.1475

                     25                     26                     27
                      A                      A                      A
 Frequencies --   1101.7037              1106.3169              1156.4532
 Red. masses --      1.4624                 1.9866                 2.8384
 Frc consts  --      1.0458                 1.4326                 2.2366
 IR Inten    --      3.5048                 4.7025               144.5128

                     28                     29                     30
                      A                      A                      A
 Frequencies --   1171.0434              1190.2015              1250.7674
 Red. masses --      1.7699                 1.6163                 1.8009
 Frc consts  --      1.4300                 1.3490                 1.6599
 IR Inten    --      9.2407                 1.2880                30.2451

                     31                     32                     33
                      A                      A                      A
 Frequencies --   1271.3063              1314.6519              1384.1370
 Red. masses --      2.2894                 1.7685                 1.9578
 Frc consts  --      2.1801                 1.8008                 2.2100
 IR Inten    --      6.9599                29.5124                 7.3861

                     34                     35                     36
                      A                      A                      A
 Frequencies --   1408.8822              1416.7983              1469.0963
 Red. masses --      1.3062                 1.3862                 1.4891
 Frc consts  --      1.5276                 1.6394                 1.8936
 IR Inten    --      5.2964                 1.0002                12.2704

                     37                     38                     39
                      A                      A                      A
 Frequencies --   1482.4934              1483.6566              1488.2345
 Red. masses --      1.1139                 1.1751                 1.2215
 Frc consts  --      1.4424                 1.5241                 1.5940
 IR Inten    --     13.9430                 3.3672                85.2382

                     40                     41                     42
                      A                      A                      A
 Frequencies --   1496.7905              1504.3380              3015.4156
 Red. masses --      1.0781                 1.9833                 1.0365
 Frc consts  --      1.4231                 2.6444                 5.5526
 IR Inten    --      3.6227                39.1611                41.2979

                     43                     44                     45
                      A                      A                      A
 Frequencies --   3034.4432              3070.2502              3097.4736
 Red. masses --      1.0362                 1.1007                 1.0998
 Frc consts  --      5.6215                 6.1133                 6.2169
 IR Inten    --     19.5553                24.5275                12.7387

                     46                     47                     48
                      A                      A                      A
 Frequencies --   3097.7522              3120.6548              3124.2525
 Red. masses --      1.0990                 1.0868                 1.1011
 Frc consts  --      6.2138                 6.2359                 6.3324
 IR Inten    --     14.9102                23.0236                12.1564

                     49                     50                     51
                      A                      A                      A
 Frequencies --   3173.3326              3177.4623              3733.9283
 Red. masses --      1.0918                 1.0945                 1.0639
 Frc consts  --      6.4777                 6.5107                 8.7397
 IR Inten    --     12.9669                14.5475               109.0681

 - Thermochemistry -
 -------------------
 Temperature   298.150 Kelvin.  Pressure   1.00000 Atm.
 Atom     1 has atomic number  6 and mass  12.00000

 Molecular mass:   126.06808 amu.
 Principal axes and moments of inertia in atomic units:
                           1         2         3
     Eigenvalues --   755.619071125.744131428.94388
           X            0.99882   0.04623   0.01475
           Y           -0.04639   0.99887   0.01043
           Z           -0.01425  -0.01110   0.99984
 This molecule is an asymmetric top.
 Rotational symmetry number  1.
 Warning -- assumption of classical behavior for rotation
           may cause significant error
 Rotational temperatures (Kelvin)      0.11463     0.07694     0.06061
 Rotational constants (GHZ):           2.38843     1.60315     1.26299
 Zero-point vibrational energy     412173.4 (Joules/Mol)
                                   98.51181 (Kcal/Mol)
 Warning -- explicit consideration of  12 degrees of freedom as
           vibrations may cause significant error
 Vibrational temperatures:    205.61   279.42   287.10   305.29   382.22
          (Kelvin)            403.27   460.16   525.42   670.95   761.82
                              812.59   849.99   931.32   960.12  1052.90
                             1155.31  1233.12  1258.77  1302.82  1320.65
                             1386.23  1411.33  1455.47  1548.44  1585.10
                             1591.74  1663.88  1684.87  1712.43  1799.57
                             1829.12  1891.49  1991.46  2027.06  2038.45
                             2113.70  2132.97  2134.65  2141.23  2153.55
                             2164.40  4338.51  4365.88  4417.40  4456.57
                             4456.97  4489.92  4495.10  4565.71  4571.65
                             5372.28

 Zero-point correction=                           0.156989 (Hartree/Particle)
 Thermal correction to Energy=                    0.165606
 Thermal correction to Enthalpy=                  0.166551
 Thermal correction to Gibbs Free Energy=         0.124442
 Sum of electronic and zero-point Energies=           -422.955389
 Sum of electronic and thermal Energies=              -422.946771
 Sum of electronic and thermal Enthalpies=            -422.945827
 Sum of electronic and thermal Free Energies=         -422.987935

                     E (Thermal)             CV                S
                      KCal/Mol        Cal/Mol-Kelvin    Cal/Mol-Kelvin
 Total                  103.920             33.954             88.625
 Electronic               0.000              0.000              0.000
 Translational            0.889              2.981             40.409
 Rotational               0.889              2.981             28.588
 Vibrational            102.142             27.993             19.629
 Vibration     1          0.616              1.910              2.765
 Vibration     2          0.635              1.848              2.187
 Vibration     3          0.638              1.841              2.137
 Vibration     4          0.643              1.822              2.025
 Vibration     5          0.671              1.736              1.624
 Vibration     6          0.680              1.710              1.532
 Vibration     7          0.706              1.636              1.311
 Vibration     8          0.738              1.544              1.100
 Vibration     9          0.824              1.325              0.748
 Vibration    10          0.884              1.185              0.588
 Vibration    11          0.921              1.107              0.514
 Vibration    12          0.948              1.051              0.466

 Optimization completed.
    -- Stationary point found.
 Normal termination of Gaussian 09 at Mon Jan 27 22:53:00 2020.
