 Gaussian 09, Revision D.01,
 Gaussian 09:  ES64L-G09RevD.01 24-Apr-2013

 -----------------------------
 # b3lyp 6-31G(2df,p) opt Freq
 -----------------------------

 -----
 titel
 -----
 Symbolic Z-matrix:
 Charge =  0 Multiplicity = 1

 SCF Done:  E(RB3LYP) =  -423.177777187     A.U. after   15 cycles
 Optimization completed.
    -- Stationary point found.
 Normal termination of Gaussian 09 at Tue Jan 28 08:13:56 2020.

 ----------------------------------------------------------------------
 #N Geom=AllCheck Guess=TCheck SCRF=Check GenChk RB3LYP/6-31G(2df,p) Fr
 eq
 ----------------------------------------------------------------------

 Structure from the checkpoint file:  "/scratch/puck/g09_a376d537-13e1-4eb8-9256-15a90ec23383/Gau-186187.chk"
 -----
 titel
 -----
 Charge =  0 Multiplicity = 1

                         Standard orientation:
 ---------------------------------------------------------------------
 Center     Atomic      Atomic             Coordinates (Angstroms)
 Number     Number       Type             X           Y           Z
 ---------------------------------------------------------------------
      1          6           0       -0.458040    2.260046    0.003096
      2          6           0       -0.182747    1.065342    0.917405
      3          6           0       -0.321366   -0.314735    0.234887
      4          6           0        0.024714   -1.463774    1.195887
      5          8           0        0.522993   -0.391266   -0.971976
      6          6           0        1.853319   -0.286764   -0.886567
      7          8           0        2.522946   -0.120933    0.097447
      8          6           0       -1.681359   -0.499743   -0.280687
      9          6           0       -2.812191   -0.659835   -0.652053
     10          1           0        0.254306    2.304633   -0.825684
     11          1           0       -1.464834    2.211666   -0.421422
     12          1           0       -0.370535    3.193016    0.567066
     13          1           0        0.822490    1.127885    1.339124
     14          1           0       -0.889373    1.066901    1.754962
     15          1           0       -0.034730   -2.420827    0.672088
     16          1           0        1.027844   -1.331429    1.600528
     17          1           0       -0.698719   -1.476336    2.015007
     18          1           0        2.261180   -0.380059   -1.906490
     19          1           0       -3.809121   -0.801080   -0.990755
 ---------------------------------------------------------------------

 SCF Done:  E(RB3LYP) =  -423.177777187     A.U. after    1 cycles

 The electronic state is 1-A.
 Alpha  occ. eigenvalues --  -19.19073 -19.13655 -10.31246 -10.28080 -10.19106
 Alpha  occ. eigenvalues --  -10.18989 -10.18586 -10.18580 -10.17619  -1.10449
 Alpha  occ. eigenvalues --   -1.02532  -0.83162  -0.75241  -0.73368  -0.67814
 Alpha  occ. eigenvalues --   -0.63214  -0.59397  -0.52656  -0.50631  -0.49007
 Alpha  occ. eigenvalues --   -0.47731  -0.45395  -0.44179  -0.42262  -0.40615
 Alpha  occ. eigenvalues --   -0.39466  -0.37436  -0.35573  -0.35077  -0.33957
 Alpha  occ. eigenvalues --   -0.31075  -0.28817  -0.27612  -0.27504
 Alpha virt. eigenvalues --    0.00366   0.02744   0.04877   0.09597   0.11711
 Alpha virt. eigenvalues --    0.12500   0.13198   0.13506   0.15463   0.16280
 Alpha virt. eigenvalues --    0.17857   0.18352   0.19710   0.21058   0.21915

 Mulliken charges:
               1
     1  C   -0.396535
     2  C   -0.209305
     3  C    0.168804
     4  C   -0.432502
     5  O   -0.253832
     6  C    0.194237
     7  O   -0.309699
     8  C    0.353151
     9  C   -0.464528
    10  H    0.123244
    11  H    0.130622
    12  H    0.116859
    13  H    0.136060
    14  H    0.109765
    15  H    0.131289
    16  H    0.154453
    17  H    0.130719
    18  H    0.114516
    19  H    0.202683
 Sum of Mulliken charges =   0.00000

 Dipole moment (field-independent basis, Debye):
    X=             -1.6531    Y=             -0.1009    Z=             -0.1688  Tot=              1.6647
 Quadrupole moment (field-independent basis, Debye-Ang):
   XX=            -53.9777   YY=            -52.2567   ZZ=            -51.6267
   XY=              0.2682   XZ=             -2.4312   YZ=              0.2549

  Exact polarizability:  96.448   3.389  68.243   4.405   0.617  68.699
 Approx polarizability: 146.830   7.576  89.775  16.225   3.921 105.801

                      1                      2                      3
                      A                      A                      A
 Frequencies --     73.5843               119.5027               139.6318
 Red. masses --      4.1615                 3.2336                 4.0376
 Frc consts  --      0.0133                 0.0272                 0.0464
 IR Inten    --      1.0496                 0.8341                 0.2524

                      4                      5                      6
                      A                      A                      A
 Frequencies --    179.4736               203.6735               233.4770
 Red. masses --      2.1934                 1.6310                 2.3645
 Frc consts  --      0.0416                 0.0399                 0.0759
 IR Inten    --      1.7633                 2.0746                 5.0310

                      7                      8                      9
                      A                      A                      A
 Frequencies --    251.5206               261.6842               272.9253
 Red. masses --      1.6912                 1.4526                 2.5218
 Frc consts  --      0.0630                 0.0586                 0.1107
 IR Inten    --      3.6561                 0.2985                 7.9981

                     10                     11                     12
                      A                      A                      A
 Frequencies --    372.7452               392.2335               444.8599
 Red. masses --      3.2749                 2.9688                 3.8113
 Frc consts  --      0.2681                 0.2691                 0.4444
 IR Inten    --      5.5655                 3.6037                 1.9894

                     13                     14                     15
                      A                      A                      A
 Frequencies --    531.8467               599.1783               629.1705
 Red. masses --      5.4056                 4.3150                 1.2172
 Frc consts  --      0.9009                 0.9127                 0.2839
 IR Inten    --      2.0298                 5.2420                45.3803

                     16                     17                     18
                      A                      A                      A
 Frequencies --    655.0086               675.8349               774.4597
 Red. masses --      4.4995                 1.2671                 1.4479
 Frc consts  --      1.1374                 0.3410                 0.5117
 IR Inten    --      1.3144                34.2613                 0.4576

                     19                     20                     21
                      A                      A                      A
 Frequencies --    808.5905               856.3593               925.2326
 Red. masses --      6.4371                 2.0214                 1.9692
 Frc consts  --      2.4797                 0.8734                 0.9932
 IR Inten    --      9.3570                40.0943                 7.2777

                     22                     23                     24
                      A                      A                      A
 Frequencies --   1006.0802              1038.5825              1043.6353
 Red. masses --      1.4199                 2.9160                 1.6623
 Frc consts  --      0.8468                 1.8532                 1.0667
 IR Inten    --      8.7196                12.9744                 0.7663

                     25                     26                     27
                      A                      A                      A
 Frequencies --   1071.0248              1142.0250              1174.6592
 Red. masses --      1.4808                 2.7450                 2.5226
 Frc consts  --      1.0008                 2.1093                 2.0508
 IR Inten    --      5.6113                27.2727               103.4188

                     28                     29                     30
                      A                      A                      A
 Frequencies --   1210.6080              1244.6275              1325.7900
 Red. masses --      7.4421                 2.3746                 1.3438
 Frc consts  --      6.4262                 2.1673                 1.3916
 IR Inten    --    309.6234                12.1954                22.3838

                     31                     32                     33
                      A                      A                      A
 Frequencies --   1368.5179              1400.9481              1413.4095
 Red. masses --      1.4369                 1.2075                 1.1880
 Frc consts  --      1.5855                 1.3963                 1.3983
 IR Inten    --      5.2141                 9.2891                 1.3246

                     34                     35                     36
                      A                      A                      A
 Frequencies --   1416.3166              1478.3265              1487.5974
 Red. masses --      1.1810                 1.0713                 1.0619
 Frc consts  --      1.3958                 1.3794                 1.3846
 IR Inten    --      5.6992                 1.6141                 7.5385

                     37                     38                     39
                      A                      A                      A
 Frequencies --   1497.5386              1503.0319              1506.0527
 Red. masses --      1.0392                 1.0488                 1.0542
 Frc consts  --      1.3732                 1.3960                 1.4088
 IR Inten    --      2.0172                 6.9048                 3.4195

                     40                     41                     42
                      A                      A                      A
 Frequencies --   1808.3512              2241.4540              3014.6748
 Red. masses --      9.5955                 5.8882                 1.0891
 Frc consts  --     18.4878                17.4299                 5.8316
 IR Inten    --    275.0948                 2.6306                67.1088

                     43                     44                     45
                      A                      A                      A
 Frequencies --   3046.1734              3049.6153              3059.7072
 Red. masses --      1.0359                 1.0637                 1.0370
 Frc consts  --      5.6635                 5.8284                 5.7201
 IR Inten    --     18.0437                12.0558                14.2822

                     46                     47                     48
                      A                      A                      A
 Frequencies --   3108.3654              3115.5676              3128.0466
 Red. masses --      1.0971                 1.1013                 1.1004
 Frc consts  --      6.2454                 6.2983                 6.3438
 IR Inten    --      1.8366                23.4173                20.0199

                     49                     50                     51
                      A                      A                      A
 Frequencies --   3131.2584              3163.5392              3500.4208
 Red. masses --      1.1022                 1.1019                 1.1635
 Frc consts  --      6.3672                 6.4972                 8.3998
 IR Inten    --     18.1568                 5.7611                64.8956

 - Thermochemistry -
 -------------------
 Temperature   298.150 Kelvin.  Pressure   1.00000 Atm.
 Atom     1 has atomic number  6 and mass  12.00000

 Molecular mass:   126.06808 amu.
 Principal axes and moments of inertia in atomic units:
                           1         2         3
     Eigenvalues --   798.800411363.662081617.30672
           X            0.99992  -0.01270  -0.00258
           Y            0.01260   0.99918  -0.03835
           Z            0.00306   0.03832   0.99926
 This molecule is an asymmetric top.
 Rotational symmetry number  1.
 Warning -- assumption of classical behavior for rotation
           may cause significant error
 Rotational temperatures (Kelvin)      0.10843     0.06352     0.05355
 Rotational constants (GHZ):           2.25931     1.32345     1.11589
 Zero-point vibrational energy     407310.1 (Joules/Mol)
                                   97.34946 (Kcal/Mol)
 Warning -- explicit consideration of  14 degrees of freedom as
           vibrations may cause significant error
 Vibrational temperatures:    105.87   171.94   200.90   258.22   293.04
          (Kelvin)            335.92   361.88   376.50   392.68   536.30
                              564.34   640.05   765.21   862.08   905.23
                              942.41   972.37  1114.27  1163.38  1232.11
                             1331.20  1447.52  1494.29  1501.56  1540.96
                             1643.12  1690.07  1741.79  1790.74  1907.51
                             1968.99  2015.65  2033.58  2037.76  2126.98
                             2140.32  2154.62  2162.52  2166.87  2601.81
                             3224.95  4337.44  4382.76  4387.71  4402.23
                             4472.24  4482.60  4500.56  4505.18  4551.62
                             5036.32

 Zero-point correction=                           0.155136 (Hartree/Particle)
 Thermal correction to Energy=                    0.165405
 Thermal correction to Enthalpy=                  0.166349
 Thermal correction to Gibbs Free Energy=         0.120283
 Sum of electronic and zero-point Energies=           -423.022641
 Sum of electronic and thermal Energies=              -423.012373
 Sum of electronic and thermal Enthalpies=            -423.011428
 Sum of electronic and thermal Free Energies=         -423.057494

                     E (Thermal)             CV                S
                      KCal/Mol        Cal/Mol-Kelvin    Cal/Mol-Kelvin
 Total                  103.793             37.378             96.954
 Electronic               0.000              0.000              0.000
 Translational            0.889              2.981             40.409
 Rotational               0.889              2.981             28.956
 Vibrational            102.016             31.417             27.589
 Vibration     1          0.599              1.966              4.055
 Vibration     2          0.609              1.933              3.108
 Vibration     3          0.615              1.914              2.809
 Vibration     4          0.629              1.868              2.334
 Vibration     5          0.639              1.835              2.100
 Vibration     6          0.654              1.790              1.852
 Vibration     7          0.663              1.760              1.720
 Vibration     8          0.669              1.743              1.651
 Vibration     9          0.676              1.723              1.578
 Vibration    10          0.744              1.528              1.068
 Vibration    11          0.760              1.487              0.992
 Vibration    12          0.804              1.372              0.811
 Vibration    13          0.887              1.180              0.583
 Vibration    14          0.957              1.034              0.451

 Optimization completed.
    -- Stationary point found.
 Normal termination of Gaussian 09 at Tue Jan 28 08:48:05 2020.
