 Gaussian 09, Revision D.01,
 Gaussian 09:  ES64L-G09RevD.01 24-Apr-2013

 -----------------------------
 # b3lyp 6-31G(2df,p) opt Freq
 -----------------------------

 -----
 titel
 -----
 Symbolic Z-matrix:
 Charge =  0 Multiplicity = 1

 SCF Done:  E(RB3LYP) =  -423.164911673     A.U. after   14 cycles
 Optimization completed.
    -- Stationary point found.
 Normal termination of Gaussian 09 at Tue Jan 28 04:07:28 2020.

 ----------------------------------------------------------------------
 #N Geom=AllCheck Guess=TCheck SCRF=Check GenChk RB3LYP/6-31G(2df,p) Fr
 eq
 ----------------------------------------------------------------------

 Structure from the checkpoint file:  "/scratch/puck/g09_37287118-939b-408a-a20a-fa325d3a101d/Gau-68463.chk"
 -----
 titel
 -----
 Charge =  0 Multiplicity = 1

                         Standard orientation:
 ---------------------------------------------------------------------
 Center     Atomic      Atomic             Coordinates (Angstroms)
 Number     Number       Type             X           Y           Z
 ---------------------------------------------------------------------
      1          6           0       -1.151420    1.831643    0.554497
      2          6           0       -0.905546    0.673070   -0.387583
      3          8           0       -2.109262   -0.102019   -0.661483
      4          6           0       -1.494144   -1.334928   -0.244525
      5          6           0       -0.228919   -0.589274    0.157322
      6          6           0        0.613607   -0.754554    1.357412
      7          6           0        1.214397   -1.041356   -0.021661
      8          6           0        2.183727   -0.064342   -0.565334
      9          8           0        2.155515    1.123697   -0.331310
     10          1           0       -1.861167    2.533522    0.105906
     11          1           0       -1.563812    1.483879    1.506321
     12          1           0       -0.211014    2.358747    0.739610
     13          1           0       -0.464425    1.033214   -1.325417
     14          1           0       -2.046556   -1.821307    0.570125
     15          1           0       -1.381396   -2.045202   -1.075066
     16          1           0        0.982827    0.141407    1.845582
     17          1           0        0.444332   -1.609049    2.004298
     18          1           0        1.376864   -2.078602   -0.297682
     19          1           0        2.964109   -0.491586   -1.232096
 ---------------------------------------------------------------------

 SCF Done:  E(RB3LYP) =  -423.164911673     A.U. after    1 cycles

 The electronic state is 1-A.
 Alpha  occ. eigenvalues --  -19.13994 -19.13206 -10.27492 -10.23624 -10.23598
 Alpha  occ. eigenvalues --  -10.21726 -10.21055 -10.20772 -10.17166  -1.04693
 Alpha  occ. eigenvalues --   -1.03777  -0.87750  -0.75012  -0.70215  -0.67076
 Alpha  occ. eigenvalues --   -0.63870  -0.57053  -0.53115  -0.52204  -0.49650
 Alpha  occ. eigenvalues --   -0.47241  -0.45400  -0.43384  -0.41731  -0.40810
 Alpha  occ. eigenvalues --   -0.39081  -0.38306  -0.37334  -0.35454  -0.32179
 Alpha  occ. eigenvalues --   -0.31466  -0.28520  -0.26027  -0.24538
 Alpha virt. eigenvalues --   -0.03126   0.07302   0.09084   0.10260   0.11469
 Alpha virt. eigenvalues --    0.12362   0.13655   0.14823   0.15211   0.16710
 Alpha virt. eigenvalues --    0.17947   0.18770   0.19390   0.19733   0.22716

 Mulliken charges:
               1
     1  C   -0.411143
     2  C    0.105106
     3  O   -0.299288
     4  C   -0.141076
     5  C    0.283024
     6  C   -0.340772
     7  C   -0.188544
     8  C    0.143143
     9  O   -0.274731
    10  H    0.125718
    11  H    0.114665
    12  H    0.141529
    13  H    0.085816
    14  H    0.105945
    15  H    0.101414
    16  H    0.144013
    17  H    0.123808
    18  H    0.097110
    19  H    0.084262
 Sum of Mulliken charges =   0.00000

 Dipole moment (field-independent basis, Debye):
    X=              0.7472    Y=             -2.5197    Z=              0.7505  Tot=              2.7332
 Quadrupole moment (field-independent basis, Debye-Ang):
   XX=            -59.4049   YY=            -51.3523   ZZ=            -51.8256
   XY=             -4.0939   XZ=             -2.4225   YZ=              0.4093

  Exact polarizability:  82.083   0.965  80.919  -5.162   0.527  67.388
 Approx polarizability: 113.555   4.376 121.392  -5.939   0.275 101.838

                      1                      2                      3
                      A                      A                      A
 Frequencies --     81.2083               109.8213               133.5731
 Red. masses --      3.7417                 5.0096                 3.6770
 Frc consts  --      0.0145                 0.0356                 0.0387
 IR Inten    --      4.8314                 8.6550                 1.1551

                      4                      5                      6
                      A                      A                      A
 Frequencies --    196.0640               224.0433               240.9998
 Red. masses --      2.2604                 2.4724                 1.1180
 Frc consts  --      0.0512                 0.0731                 0.0383
 IR Inten    --      3.7274                 1.2595                 0.5468

                      7                      8                      9
                      A                      A                      A
 Frequencies --    291.4512               372.1289               395.7971
 Red. masses --      3.4396                 2.8212                 2.3343
 Frc consts  --      0.1721                 0.2302                 0.2154
 IR Inten    --      6.3060                 2.6104                 1.6087

                     10                     11                     12
                      A                      A                      A
 Frequencies --    499.9191               546.4594               710.0383
 Red. masses --      2.8733                 4.3406                 3.3982
 Frc consts  --      0.4231                 0.7637                 1.0094
 IR Inten    --      1.7227                 3.2831                 7.8080

                     13                     14                     15
                      A                      A                      A
 Frequencies --    783.5457               807.8234               863.9837
 Red. masses --      2.2074                 2.4555                 2.6561
 Frc consts  --      0.7985                 0.9441                 1.1682
 IR Inten    --      0.1382                 2.2444                15.0064

                     16                     17                     18
                      A                      A                      A
 Frequencies --    878.4514               901.6641               922.3351
 Red. masses --      3.0267                 1.8548                 1.5961
 Frc consts  --      1.3761                 0.8885                 0.8000
 IR Inten    --     34.0165                10.6650                 0.8777

                     19                     20                     21
                      A                      A                      A
 Frequencies --   1016.4554              1032.2729              1049.7154
 Red. masses --      4.2430                 2.3145                 1.5237
 Frc consts  --      2.5829                 1.4531                 0.9892
 IR Inten    --     49.5499                81.5384                 7.7649

                     22                     23                     24
                      A                      A                      A
 Frequencies --   1056.3783              1070.1341              1085.6259
 Red. masses --      1.7136                 1.6832                 1.9707
 Frc consts  --      1.1267                 1.1357                 1.3684
 IR Inten    --      6.7475                 5.8176                31.7189

                     25                     26                     27
                      A                      A                      A
 Frequencies --   1105.1702              1109.5197              1143.8920
 Red. masses --      1.8210                 1.3139                 2.0808
 Frc consts  --      1.3105                 0.9530                 1.6042
 IR Inten    --     24.0702                15.0298                 4.4165

                     28                     29                     30
                      A                      A                      A
 Frequencies --   1155.4949              1223.5301              1279.3973
 Red. masses --      1.2148                 2.2821                 1.3801
 Frc consts  --      0.9556                 2.0128                 1.3310
 IR Inten    --      4.4124                 7.7079                 3.7008

                     31                     32                     33
                      A                      A                      A
 Frequencies --   1312.1811              1356.2021              1380.1981
 Red. masses --      1.5646                 1.4283                 1.3623
 Frc consts  --      1.5873                 1.5478                 1.5290
 IR Inten    --      5.2589                24.3723                 6.3115

                     34                     35                     36
                      A                      A                      A
 Frequencies --   1399.3938              1425.9114              1430.5858
 Red. masses --      1.3720                 1.2779                 1.5638
 Frc consts  --      1.5830                 1.5309                 1.8857
 IR Inten    --     22.0397                 3.8297                21.7681

                     37                     38                     39
                      A                      A                      A
 Frequencies --   1482.8357              1491.3755              1493.0007
 Red. masses --      1.5967                 1.2257                 1.0804
 Frc consts  --      2.0685                 1.6062                 1.4189
 IR Inten    --      7.1057                11.4581                 1.3642

                     40                     41                     42
                      A                      A                      A
 Frequencies --   1522.9679              1793.9132              2893.0963
 Red. masses --      1.1055                 9.3109                 1.0835
 Frc consts  --      1.5107                17.6540                 5.3432
 IR Inten    --      1.2075               124.1339               147.7495

                     43                     44                     45
                      A                      A                      A
 Frequencies --   2998.1400              3025.0792              3039.3680
 Red. masses --      1.0554                 1.0845                 1.1032
 Frc consts  --      5.5896                 5.8473                 6.0043
 IR Inten    --     81.3475                27.0834                29.4696

                     46                     47                     48
                      A                      A                      A
 Frequencies --   3040.5937              3114.7399              3125.2621
 Red. masses --      1.0400                 1.1021                 1.1016
 Frc consts  --      5.6653                 6.2997                 6.3395
 IR Inten    --     21.9379                21.2927                12.4257

                     49                     50                     51
                      A                      A                      A
 Frequencies --   3129.5392              3161.9204              3223.8327
 Red. masses --      1.0532                 1.0896                 1.1173
 Frc consts  --      6.0774                 6.4180                 6.8419
 IR Inten    --      8.3020                11.5709                 2.4394

 - Thermochemistry -
 -------------------
 Temperature   298.150 Kelvin.  Pressure   1.00000 Atm.
 Atom     1 has atomic number  6 and mass  12.00000

 Molecular mass:   126.06808 amu.
 Principal axes and moments of inertia in atomic units:
                           1         2         3
     Eigenvalues --   706.141771281.661861586.00075
           X            0.99917  -0.03848  -0.01347
           Y            0.03884   0.99887   0.02755
           Z            0.01240  -0.02805   0.99953
 This molecule is an asymmetric top.
 Rotational symmetry number  1.
 Warning -- assumption of classical behavior for rotation
           may cause significant error
 Rotational temperatures (Kelvin)      0.12266     0.06758     0.05461
 Rotational constants (GHZ):           2.55578     1.40813     1.13792
 Zero-point vibrational energy     413471.5 (Joules/Mol)
                                   98.82205 (Kcal/Mol)
 Warning -- explicit consideration of  11 degrees of freedom as
           vibrations may cause significant error
 Vibrational temperatures:    116.84   158.01   192.18   282.09   322.35
          (Kelvin)            346.74   419.33   535.41   569.46   719.27
                              786.23  1021.59  1127.35  1162.28  1243.08
                             1263.89  1297.29  1327.03  1462.45  1485.21
                             1510.30  1519.89  1539.68  1561.97  1590.09
                             1596.35  1645.80  1662.50  1760.38  1840.76
                             1887.93  1951.27  1985.79  2013.41  2051.57
                             2058.29  2133.47  2145.75  2148.09  2191.21
                             2581.04  4162.52  4313.65  4352.41  4372.97
                             4374.73  4481.41  4496.55  4502.70  4549.29
                             4638.37

 Zero-point correction=                           0.157483 (Hartree/Particle)
 Thermal correction to Energy=                    0.166423
 Thermal correction to Enthalpy=                  0.167367
 Thermal correction to Gibbs Free Energy=         0.123647
 Sum of electronic and zero-point Energies=           -423.007429
 Sum of electronic and thermal Energies=              -422.998489
 Sum of electronic and thermal Enthalpies=            -422.997544
 Sum of electronic and thermal Free Energies=         -423.041264

                     E (Thermal)             CV                S
                      KCal/Mol        Cal/Mol-Kelvin    Cal/Mol-Kelvin
 Total                  104.432             32.813             92.016
 Electronic               0.000              0.000              0.000
 Translational            0.889              2.981             40.409
 Rotational               0.889              2.981             28.753
 Vibrational            102.655             26.852             22.855
 Vibration     1          0.600              1.962              3.861
 Vibration     2          0.606              1.941              3.272
 Vibration     3          0.613              1.920              2.894
 Vibration     4          0.636              1.845              2.170
 Vibration     5          0.649              1.804              1.926
 Vibration     6          0.658              1.778              1.795
 Vibration     7          0.687              1.690              1.466
 Vibration     8          0.744              1.529              1.071
 Vibration     9          0.763              1.479              0.978
 Vibration    10          0.855              1.250              0.658
 Vibration    11          0.902              1.147              0.552

 Normal termination of Gaussian 09 at Tue Jan 28 04:58:18 2020.
