 Gaussian 09, Revision D.01,
 Gaussian 09:  ES64L-G09RevD.01 24-Apr-2013

 -----------------------------
 # b3lyp 6-31G(2df,p) opt Freq
 -----------------------------

 -----
 titel
 -----
 Symbolic Z-matrix:
 Charge =  0 Multiplicity = 1

 SCF Done:  E(RB3LYP) =  -423.201825204     A.U. after   14 cycles
 Optimization completed.
    -- Stationary point found.
 Normal termination of Gaussian 09 at Tue Jan 28 11:59:12 2020.

 ----------------------------------------------------------------------
 #N Geom=AllCheck Guess=TCheck SCRF=Check GenChk RB3LYP/6-31G(2df,p) Fr
 eq
 ----------------------------------------------------------------------

 Structure from the checkpoint file:  "/scratch/puck/g09_4c745c29-047e-4db5-9edd-5c841e81fcfb/Gau-26580.chk"
 -----
 titel
 -----
 Charge =  0 Multiplicity = 1

                         Standard orientation:
 ---------------------------------------------------------------------
 Center     Atomic      Atomic             Coordinates (Angstroms)
 Number     Number       Type             X           Y           Z
 ---------------------------------------------------------------------
      1          6           0        1.826714   -1.736228   -0.294721
      2          8           0        0.450304   -1.459857   -0.483219
      3          6           0       -0.125389   -0.597614    0.489613
      4          6           0       -1.629935   -0.931227    0.626863
      5          6           0       -2.378736    0.093686   -0.259280
      6          6           0       -1.373545    1.197692   -0.421969
      7          6           0       -0.150912    0.850701    0.008907
      8          6           0        0.998743    1.755737   -0.020178
      9          8           0        2.122535    1.472311    0.337603
     10          1           0        2.002525   -2.242926    0.667139
     11          1           0        2.125254   -2.408161   -1.103522
     12          1           0        2.440202   -0.829217   -0.322644
     13          1           0        0.413006   -0.708871    1.439703
     14          1           0       -1.811274   -1.968932    0.342794
     15          1           0       -1.936538   -0.806170    1.669395
     16          1           0       -2.650496   -0.317315   -1.241076
     17          1           0       -3.312884    0.446390    0.191824
     18          1           0       -1.617876    2.161420   -0.859779
     19          1           0        0.763726    2.777667   -0.394311
 ---------------------------------------------------------------------

 SCF Done:  E(RB3LYP) =  -423.201825204     A.U. after    1 cycles

 The electronic state is 1-A.
 Alpha  occ. eigenvalues --  -19.13433 -19.13362 -10.26745 -10.23697 -10.21350
 Alpha  occ. eigenvalues --  -10.21140 -10.19965 -10.19361 -10.18753  -1.03953
 Alpha  occ. eigenvalues --   -1.02382  -0.85557  -0.74463  -0.72380  -0.65930
 Alpha  occ. eigenvalues --   -0.62000  -0.58265  -0.54051  -0.50476  -0.49172
 Alpha  occ. eigenvalues --   -0.45118  -0.44743  -0.43426  -0.42937  -0.39938
 Alpha  occ. eigenvalues --   -0.39140  -0.37745  -0.36407  -0.35953  -0.35004
 Alpha  occ. eigenvalues --   -0.31103  -0.27167  -0.25249  -0.24534
 Alpha virt. eigenvalues --   -0.05774   0.05057   0.09197   0.11511   0.11887
 Alpha virt. eigenvalues --    0.12890   0.15031   0.15178   0.15966   0.16405
 Alpha virt. eigenvalues --    0.17696   0.18416   0.19457   0.20810   0.21357

 Mulliken charges:
               1
     1  C   -0.251225
     2  O   -0.258845
     3  C    0.013089
     4  C   -0.239572
     5  C   -0.260823
     6  C   -0.139897
     7  C    0.245062
     8  C    0.068349
     9  O   -0.275848
    10  H    0.100522
    11  H    0.118751
    12  H    0.142667
    13  H    0.078724
    14  H    0.117908
    15  H    0.108855
    16  H    0.132024
    17  H    0.116084
    18  H    0.111319
    19  H    0.072854
 Sum of Mulliken charges =   0.00000

 Dipole moment (field-independent basis, Debye):
    X=             -2.8124    Y=              0.2643    Z=              0.0339  Tot=              2.8250
 Quadrupole moment (field-independent basis, Debye-Ang):
   XX=            -54.5260   YY=            -52.0048   ZZ=            -52.8279
   XY=             -5.3127   XZ=             -1.0560   YZ=             -2.5814

  Exact polarizability: 104.031  -2.086  80.547   5.319  -4.139  58.874
 Approx polarizability: 166.092  -5.030 108.315  17.616  -4.068  93.101

                      1                      2                      3
                      A                      A                      A
 Frequencies --     52.0256               100.7859               127.4402
 Red. masses --      2.6653                 2.0057                 3.6483
 Frc consts  --      0.0043                 0.0120                 0.0349
 IR Inten    --      3.5736                 1.7639                 2.6447

                      4                      5                      6
                      A                      A                      A
 Frequencies --    167.6995               176.8504               262.5998
 Red. masses --      2.6534                 1.9163                 2.6102
 Frc consts  --      0.0440                 0.0353                 0.1061
 IR Inten    --      1.2963                 4.1358                14.1286

                      7                      8                      9
                      A                      A                      A
 Frequencies --    293.8196               310.5580               393.5438
 Red. masses --      2.1392                 2.8155                 3.1067
 Frc consts  --      0.1088                 0.1600                 0.2835
 IR Inten    --      1.4338                 5.7690                 4.1839

                     10                     11                     12
                      A                      A                      A
 Frequencies --    505.4330               576.3396               688.3605
 Red. masses --      5.3199                 3.7542                 2.3460
 Frc consts  --      0.8007                 0.7347                 0.6550
 IR Inten    --      0.9452                 8.4670                 2.1024

                     13                     14                     15
                      A                      A                      A
 Frequencies --    728.2806               795.2817               849.7587
 Red. masses --      3.6824                 2.5419                 1.3973
 Frc consts  --      1.1507                 0.9472                 0.5945
 IR Inten    --     15.3659                 2.2104                14.9698

                     16                     17                     18
                      A                      A                      A
 Frequencies --    891.4970               934.6637               937.0750
 Red. masses --      3.2767                 2.1371                 2.4087
 Frc consts  --      1.5343                 1.1000                 1.2462
 IR Inten    --      4.5953                 4.0425                 7.7693

                     19                     20                     21
                      A                      A                      A
 Frequencies --    978.5679              1037.7498              1045.9014
 Red. masses --      2.1070                 1.8072                 2.0873
 Frc consts  --      1.1888                 1.1467                 1.3453
 IR Inten    --     19.8071                 0.2538                 3.5299

                     22                     23                     24
                      A                      A                      A
 Frequencies --   1064.6823              1131.0766              1169.9774
 Red. masses --      2.1769                 5.8473                 1.3078
 Frc consts  --      1.4539                 4.4075                 1.0547
 IR Inten    --      7.5197               158.3726                 4.0495

                     25                     26                     27
                      A                      A                      A
 Frequencies --   1177.5394              1187.6719              1222.2636
 Red. masses --      1.6752                 1.2737                 1.4364
 Frc consts  --      1.3686                 1.0586                 1.2644
 IR Inten    --     20.4495                 1.6860                 8.5498

                     28                     29                     30
                      A                      A                      A
 Frequencies --   1251.3224              1271.7444              1314.6161
 Red. masses --      1.4634                 1.3818                 1.5860
 Frc consts  --      1.3500                 1.3167                 1.6149
 IR Inten    --     25.7985                 6.0865                13.7822

                     31                     32                     33
                      A                      A                      A
 Frequencies --   1321.7016              1360.9123              1388.0406
 Red. masses --      1.7450                 2.1462                 1.2783
 Frc consts  --      1.7960                 2.3420                 1.4511
 IR Inten    --      5.7006                19.8019                26.4474

                     34                     35                     36
                      A                      A                      A
 Frequencies --   1425.3551              1464.9194              1480.2568
 Red. masses --      1.2251                 1.0796                 1.1154
 Frc consts  --      1.4665                 1.3651                 1.4400
 IR Inten    --      0.4847                 4.0880                 3.7324

                     37                     38                     39
                      A                      A                      A
 Frequencies --   1483.9389              1486.7436              1519.4037
 Red. masses --      1.0820                 1.0869                 1.0613
 Frc consts  --      1.4039                 1.4156                 1.4436
 IR Inten    --      1.1928                 8.5224                 7.4302

                     40                     41                     42
                      A                      A                      A
 Frequencies --   1674.8752              1778.9475              2875.7629
 Red. masses --      6.8492                10.2138                 1.0822
 Frc consts  --     11.3202                19.0443                 5.2732
 IR Inten    --     41.8028               245.4017               123.6050

                     43                     44                     45
                      A                      A                      A
 Frequencies --   2983.9130              3020.7145              3023.1632
 Red. masses --      1.0470                 1.0833                 1.0664
 Frc consts  --      5.4925                 5.8240                 5.7424
 IR Inten    --     64.7656                33.4929                11.2527

                     46                     47                     48
                      A                      A                      A
 Frequencies --   3058.0717              3070.1585              3072.2932
 Red. masses --      1.0860                 1.0848                 1.0738
 Frc consts  --      5.9838                 6.0247                 5.9716
 IR Inten    --     10.2768                42.9123                24.4176

                     49                     50                     51
                      A                      A                      A
 Frequencies --   3118.9606              3127.6712              3178.4898
 Red. masses --      1.1039                 1.1014                 1.0929
 Frc consts  --      6.3269                 6.3482                 6.5054
 IR Inten    --     20.8287                14.1777                11.3692

 - Thermochemistry -
 -------------------
 Temperature   298.150 Kelvin.  Pressure   1.00000 Atm.
 Atom     1 has atomic number  6 and mass  12.00000

 Molecular mass:   126.06808 amu.
 Principal axes and moments of inertia in atomic units:
                           1         2         3
     Eigenvalues --   848.049921144.766271804.72974
           X            0.99450  -0.10465  -0.00421
           Y            0.10454   0.99428  -0.02167
           Z            0.00645   0.02112   0.99976
 This molecule is an asymmetric top.
 Rotational symmetry number  1.
 Warning -- assumption of classical behavior for rotation
           may cause significant error
 Rotational temperatures (Kelvin)      0.10213     0.07566     0.04799
 Rotational constants (GHZ):           2.12811     1.57652     1.00001
 Zero-point vibrational energy     416057.7 (Joules/Mol)
                                   99.44018 (Kcal/Mol)
 Warning -- explicit consideration of  11 degrees of freedom as
           vibrations may cause significant error
 Vibrational temperatures:     74.85   145.01   183.36   241.28   254.45
          (Kelvin)            377.82   422.74   446.82   566.22   727.20
                              829.22   990.40  1047.83  1144.23  1222.61
                             1282.66  1344.77  1348.24  1407.94  1493.09
                             1504.82  1531.84  1627.36  1683.33  1694.21
                             1708.79  1758.56  1800.37  1829.75  1891.44
                             1901.63  1958.05  1997.08  2050.77  2107.69
                             2129.76  2135.05  2139.09  2186.08  2409.77
                             2559.51  4137.58  4293.18  4346.13  4349.65
                             4399.88  4417.27  4420.34  4487.48  4500.02
                             4573.13

 Zero-point correction=                           0.158468 (Hartree/Particle)
 Thermal correction to Energy=                    0.167610
 Thermal correction to Enthalpy=                  0.168554
 Thermal correction to Gibbs Free Energy=         0.123850
 Sum of electronic and zero-point Energies=           -423.043357
 Sum of electronic and thermal Energies=              -423.034215
 Sum of electronic and thermal Enthalpies=            -423.033271
 Sum of electronic and thermal Free Energies=         -423.077976

                     E (Thermal)             CV                S
                      KCal/Mol        Cal/Mol-Kelvin    Cal/Mol-Kelvin
 Total                  105.177             32.615             94.089
 Electronic               0.000              0.000              0.000
 Translational            0.889              2.981             40.409
 Rotational               0.889              2.981             28.951
 Vibrational            103.399             26.653             24.729
 Vibration     1          0.596              1.977              4.739
 Vibration     2          0.604              1.948              3.439
 Vibration     3          0.611              1.926              2.984
 Vibration     4          0.624              1.882              2.461
 Vibration     5          0.628              1.871              2.361
 Vibration     6          0.670              1.741              1.644
 Vibration     7          0.689              1.685              1.452
 Vibration     8          0.699              1.654              1.359
 Vibration     9          0.761              1.484              0.987
 Vibration    10          0.861              1.238              0.645
 Vibration    11          0.933              1.082              0.492

 Normal termination of Gaussian 09 at Tue Jan 28 12:38:40 2020.
