 Gaussian 09, Revision D.01,
 Gaussian 09:  ES64L-G09RevD.01 24-Apr-2013

 -----------------------------
 # b3lyp 6-31G(2df,p) opt Freq
 -----------------------------

 -----
 titel
 -----
 Symbolic Z-matrix:
 Charge =  0 Multiplicity = 1

 SCF Done:  E(RB3LYP) =  -423.182453856     A.U. after   14 cycles
 Optimization completed.
    -- Stationary point found.
 Normal termination of Gaussian 09 at Mon Jan 27 22:01:09 2020.

 ----------------------------------------------------------------------
 #N Geom=AllCheck Guess=TCheck SCRF=Check GenChk RB3LYP/6-31G(2df,p) Fr
 eq
 ----------------------------------------------------------------------

 Structure from the checkpoint file:  "/scratch/puck/g09_29c4a2eb-7d2c-4571-aa86-447142b59414/Gau-98598.chk"
 -----
 titel
 -----
 Charge =  0 Multiplicity = 1

                         Standard orientation:
 ---------------------------------------------------------------------
 Center     Atomic      Atomic             Coordinates (Angstroms)
 Number     Number       Type             X           Y           Z
 ---------------------------------------------------------------------
      1          6           0       -2.272616   -0.835396   -0.576789
      2          6           0       -0.913357   -0.227474   -0.869592
      3          6           0       -0.368734    0.869709   -0.000979
      4          6           0       -1.126613    1.633580    1.042831
      5          6           0        0.952789    1.347418   -0.621192
      6          6           0        1.518529   -0.056135   -0.290189
      7          8           0        2.628949   -0.439097   -0.012291
      8          6           0        0.206753   -0.637512    0.058315
      9          8           0        0.035319   -1.678570    0.929314
     10          1           0       -2.442635   -0.968852    0.493032
     11          1           0       -3.069868   -0.203763   -0.981003
     12          1           0       -2.352294   -1.821452   -1.043556
     13          1           0       -0.692822   -0.170274   -1.936667
     14          1           0       -0.449609    2.029981    1.807350
     15          1           0       -1.654344    2.486774    0.598343
     16          1           0       -1.870445    1.009039    1.543846
     17          1           0        0.914809    1.637187   -1.676109
     18          1           0        1.477706    2.117677   -0.049373
     19          1           0        0.844855   -1.740125    1.453528
 ---------------------------------------------------------------------

 SCF Done:  E(RB3LYP) =  -423.182453856     A.U. after    1 cycles

 The electronic state is 1-A.
 Alpha  occ. eigenvalues --  -19.16612 -19.12349 -10.26306 -10.24930 -10.21735
 Alpha  occ. eigenvalues --  -10.21044 -10.19418 -10.19373 -10.18684  -1.05907
 Alpha  occ. eigenvalues --   -1.02859  -0.90246  -0.76176  -0.73596  -0.68446
 Alpha  occ. eigenvalues --   -0.62069  -0.57545  -0.55130  -0.48857  -0.46622
 Alpha  occ. eigenvalues --   -0.45860  -0.44893  -0.42834  -0.41376  -0.40272
 Alpha  occ. eigenvalues --   -0.39574  -0.38959  -0.38598  -0.36884  -0.35237
 Alpha  occ. eigenvalues --   -0.34439  -0.29937  -0.24171  -0.23141
 Alpha virt. eigenvalues --   -0.00368   0.06643   0.10108   0.10445   0.11258
 Alpha virt. eigenvalues --    0.12387   0.13546   0.14731   0.15461   0.16384
 Alpha virt. eigenvalues --    0.17804   0.18336   0.20313   0.20821   0.21695

 Mulliken charges:
               1
     1  C   -0.424170
     2  C   -0.115783
     3  C    0.229552
     4  C   -0.493240
     5  C   -0.408621
     6  C    0.329117
     7  O   -0.349704
     8  C    0.277857
     9  O   -0.453270
    10  H    0.136992
    11  H    0.120785
    12  H    0.132648
    13  H    0.086492
    14  H    0.126706
    15  H    0.129787
    16  H    0.133004
    17  H    0.113306
    18  H    0.125065
    19  H    0.303474
 Sum of Mulliken charges =   0.00000

 Dipole moment (field-independent basis, Debye):
    X=             -2.5098    Y=              1.4664    Z=              0.1383  Tot=              2.9101
 Quadrupole moment (field-independent basis, Debye-Ang):
   XX=            -60.8502   YY=            -52.9730   ZZ=            -49.8395
   XY=              0.6844   XZ=              1.7207   YZ=             -0.2743

  Exact polarizability:  90.344  -0.961  78.061   1.561  -1.120  66.096
 Approx polarizability: 135.001  -8.518 117.993   3.558  -4.782 100.170

                      1                      2                      3
                      A                      A                      A
 Frequencies --     81.3696               140.5626               167.7881
 Red. masses --      5.3511                 2.7706                 1.2095
 Frc consts  --      0.0209                 0.0323                 0.0201
 IR Inten    --      6.0458                 0.2614                 0.0545

                      4                      5                      6
                      A                      A                      A
 Frequencies --    178.4234               229.1168               236.7809
 Red. masses --      1.1184                 2.6347                 2.5307
 Frc consts  --      0.0210                 0.0815                 0.0836
 IR Inten    --      0.3199                17.8132                 7.8003

                      7                      8                      9
                      A                      A                      A
 Frequencies --    254.0727               347.2569               382.7375
 Red. masses --      2.4168                 2.0476                 1.4252
 Frc consts  --      0.0919                 0.1455                 0.1230
 IR Inten    --      0.1219                 2.6475                68.0226

                     10                     11                     12
                      A                      A                      A
 Frequencies --    445.4152               488.8302               519.2565
 Red. masses --      3.4077                 3.8094                 3.0526
 Frc consts  --      0.3983                 0.5363                 0.4849
 IR Inten    --      2.5337                 0.0680                 6.5169

                     13                     14                     15
                      A                      A                      A
 Frequencies --    578.5705               640.4978               668.0235
 Red. masses --      3.6666                 3.9041                 4.6435
 Frc consts  --      0.7231                 0.9437                 1.2209
 IR Inten    --      5.1975                 4.6120                 9.1787

                     16                     17                     18
                      A                      A                      A
 Frequencies --    701.7887               758.5235               903.6233
 Red. masses --      3.8809                 3.9158                 2.5141
 Frc consts  --      1.1262                 1.3274                 1.2095
 IR Inten    --      0.0619                18.6013                13.9297

                     19                     20                     21
                      A                      A                      A
 Frequencies --    946.3891               989.4402              1009.1385
 Red. masses --      1.8862                 2.4862                 1.7530
 Frc consts  --      0.9954                 1.4340                 1.0518
 IR Inten    --     18.5671                 5.7966                30.9356

                     22                     23                     24
                      A                      A                      A
 Frequencies --   1032.4535              1060.2830              1081.3775
 Red. masses --      1.3334                 1.4700                 1.7986
 Frc consts  --      0.8375                 0.9737                 1.2392
 IR Inten    --      3.3538                 4.4818                 6.8333

                     25                     26                     27
                      A                      A                      A
 Frequencies --   1116.9137              1154.8207              1161.2951
 Red. masses --      1.7931                 2.3589                 1.5332
 Frc consts  --      1.3180                 1.8535                 1.2183
 IR Inten    --     28.9009                68.2205                 3.1251

                     28                     29                     30
                      A                      A                      A
 Frequencies --   1205.5467              1235.4219              1338.7812
 Red. masses --      1.4327                 2.3167                 1.9131
 Frc consts  --      1.2268                 2.0833                 2.0202
 IR Inten    --      9.8418                 7.3500                50.2184

                     31                     32                     33
                      A                      A                      A
 Frequencies --   1358.3980              1377.5063              1413.4120
 Red. masses --      1.5436                 3.2069                 1.3527
 Frc consts  --      1.6782                 3.5852                 1.5922
 IR Inten    --     31.2429                49.3098                 1.9555

                     34                     35                     36
                      A                      A                      A
 Frequencies --   1423.0496              1445.9994              1475.0702
 Red. masses --      1.4174                 1.9750                 1.2162
 Frc consts  --      1.6911                 2.4330                 1.5591
 IR Inten    --      1.6044                 2.5403                 5.4586

                     37                     38                     39
                      A                      A                      A
 Frequencies --   1481.8105              1489.2634              1497.3711
 Red. masses --      1.0511                 1.0463                 1.0695
 Frc consts  --      1.3598                 1.3672                 1.4128
 IR Inten    --      4.7690                 1.6262                 4.0314

                     40                     41                     42
                      A                      A                      A
 Frequencies --   1510.5212              1831.2747              3023.5940
 Red. masses --      1.1483                12.5011                 1.0397
 Frc consts  --      1.5437                24.7005                 5.6000
 IR Inten    --     13.4052               421.0567                32.5122

                     43                     44                     45
                      A                      A                      A
 Frequencies --   3046.0991              3047.0068              3078.1272
 Red. masses --      1.0474                 1.0492                 1.0881
 Frc consts  --      5.7260                 5.7394                 6.0740
 IR Inten    --     38.0603                13.4053                28.1017

                     46                     47                     48
                      A                      A                      A
 Frequencies --   3079.9325              3107.1423              3109.0834
 Red. masses --      1.0974                 1.1049                 1.1014
 Frc consts  --      6.1331                 6.2848                 6.2728
 IR Inten    --      9.1503                11.2810                16.9633

                     49                     50                     51
                      A                      A                      A
 Frequencies --   3116.5564              3137.3241              3768.7337
 Red. masses --      1.0986                 1.0991                 1.0655
 Frc consts  --      6.2872                 6.3739                 8.9167
 IR Inten    --     16.5160                18.7226                44.5810

 - Thermochemistry -
 -------------------
 Temperature   298.150 Kelvin.  Pressure   1.00000 Atm.
 Atom     1 has atomic number  6 and mass  12.00000

 Molecular mass:   126.06808 amu.
 Principal axes and moments of inertia in atomic units:
                           1         2         3
     Eigenvalues --   762.339571186.804301502.03305
           X            0.99962   0.02748   0.00308
           Y           -0.02758   0.99893   0.03707
           Z           -0.00206  -0.03714   0.99931
 This molecule is an asymmetric top.
 Rotational symmetry number  1.
 Warning -- assumption of classical behavior for rotation
           may cause significant error
 Rotational temperatures (Kelvin)      0.11362     0.07298     0.05766
 Rotational constants (GHZ):           2.36737     1.52067     1.20153
 Zero-point vibrational energy     411944.7 (Joules/Mol)
                                   98.45714 (Kcal/Mol)
 Warning -- explicit consideration of  13 degrees of freedom as
           vibrations may cause significant error
 Vibrational temperatures:    117.07   202.24   241.41   256.71   329.65
          (Kelvin)            340.67   365.55   499.62   550.67   640.85
                              703.32   747.09   832.43   921.53   961.14
                             1009.72  1091.34  1300.11  1361.64  1423.58
                             1451.92  1485.47  1525.51  1555.86  1606.99
                             1661.53  1670.84  1734.51  1777.49  1926.21
                             1954.43  1981.92  2033.58  2047.45  2080.47
                             2122.29  2131.99  2142.72  2154.38  2173.30
                             2634.79  4350.27  4382.65  4383.96  4428.73
                             4431.33  4470.48  4473.27  4484.02  4513.90
                             5422.36

 Zero-point correction=                           0.156901 (Hartree/Particle)
 Thermal correction to Energy=                    0.166346
 Thermal correction to Enthalpy=                  0.167290
 Thermal correction to Gibbs Free Energy=         0.123038
 Sum of electronic and zero-point Energies=           -423.025552
 Sum of electronic and thermal Energies=              -423.016108
 Sum of electronic and thermal Enthalpies=            -423.015164
 Sum of electronic and thermal Free Energies=         -423.059416

                     E (Thermal)             CV                S
                      KCal/Mol        Cal/Mol-Kelvin    Cal/Mol-Kelvin
 Total                  104.383             35.159             93.136
 Electronic               0.000              0.000              0.000
 Translational            0.889              2.981             40.409
 Rotational               0.889              2.981             28.698
 Vibrational            102.606             29.198             24.029
 Vibration     1          0.600              1.962              3.858
 Vibration     2          0.615              1.913              2.796
 Vibration     3          0.625              1.882              2.460
 Vibration     4          0.629              1.869              2.345
 Vibration     5          0.652              1.797              1.886
 Vibration     6          0.656              1.784              1.827
 Vibration     7          0.665              1.756              1.702
 Vibration     8          0.725              1.581              1.179
 Vibration     9          0.752              1.507              1.028
 Vibration    10          0.805              1.371              0.810
 Vibration    11          0.845              1.275              0.687
 Vibration    12          0.874              1.207              0.612
 Vibration    13          0.935              1.078              0.488

 Normal termination of Gaussian 09 at Mon Jan 27 22:47:25 2020.
