 Gaussian 09, Revision D.01,
 Gaussian 09:  ES64L-G09RevD.01 24-Apr-2013

 -----------------------------
 # b3lyp 6-31G(2df,p) opt Freq
 -----------------------------

 -----
 titel
 -----
 Symbolic Z-matrix:
 Charge =  0 Multiplicity = 1

 SCF Done:  E(RB3LYP) =  -423.196750111     A.U. after   13 cycles
 Optimization completed.
    -- Stationary point found.
 Normal termination of Gaussian 09 at Tue Jan 28 03:13:39 2020.

 ----------------------------------------------------------------------
 #N Geom=AllCheck Guess=TCheck SCRF=Check GenChk RB3LYP/6-31G(2df,p) Fr
 eq
 ----------------------------------------------------------------------

 Structure from the checkpoint file:  "/scratch/puck/g09_64f014a3-8c28-43d8-b242-491783a1235d/Gau-45097.chk"
 -----
 titel
 -----
 Charge =  0 Multiplicity = 1

                         Standard orientation:
 ---------------------------------------------------------------------
 Center     Atomic      Atomic             Coordinates (Angstroms)
 Number     Number       Type             X           Y           Z
 ---------------------------------------------------------------------
      1          6           0       -2.696274   -0.061747    0.175399
      2          6           0       -1.194572    0.000111    0.404445
      3          6           0       -0.561186    1.313572   -0.121638
      4          6           0        0.953384    1.109792   -0.328995
      5          8           0        1.061712    0.018558   -1.254136
      6          6           0        0.764265   -1.095109   -0.438679
      7          8           0       -0.634622   -1.170479   -0.219990
      8          6           0        1.515061   -0.778804    0.853914
      9          6           0        1.605627    0.545385    0.928094
     10          1           0       -2.924666   -0.012393   -0.893379
     11          1           0       -3.102968   -0.996724    0.570544
     12          1           0       -3.193603    0.773920    0.678630
     13          1           0       -0.995157   -0.058996    1.483608
     14          1           0       -0.995582    1.582656   -1.090176
     15          1           0       -0.777828    2.123616    0.584328
     16          1           0        1.445333    1.986944   -0.755662
     17          1           0        1.038817   -2.012851   -0.960343
     18          1           0        1.791059   -1.517035    1.594324
     19          1           0        1.980045    1.147030    1.745903
 ---------------------------------------------------------------------

 SCF Done:  E(RB3LYP) =  -423.196750111     A.U. after    1 cycles

 The electronic state is 1-A.
 Alpha  occ. eigenvalues --  -19.13667 -19.13593 -10.27403 -10.23855 -10.23216
 Alpha  occ. eigenvalues --  -10.19100 -10.18600 -10.18522 -10.17296  -1.07293
 Alpha  occ. eigenvalues --   -0.99731  -0.80274  -0.78639  -0.71884  -0.67097
 Alpha  occ. eigenvalues --   -0.62076  -0.56597  -0.54990  -0.52355  -0.49160
 Alpha  occ. eigenvalues --   -0.45867  -0.45376  -0.41799  -0.41479  -0.40772
 Alpha  occ. eigenvalues --   -0.38792  -0.37937  -0.35849  -0.34340  -0.33822
 Alpha  occ. eigenvalues --   -0.30870  -0.26819  -0.25783  -0.25087
 Alpha virt. eigenvalues --    0.00078   0.09976   0.11003   0.12974   0.13368
 Alpha virt. eigenvalues --    0.14658   0.15373   0.15752   0.16304   0.17197
 Alpha virt. eigenvalues --    0.17549   0.18116   0.19261   0.20982   0.22092

 Mulliken charges:
               1
     1  C   -0.399639
     2  C    0.150750
     3  C   -0.224126
     4  C    0.016706
     5  O   -0.237909
     6  C    0.139301
     7  O   -0.282139
     8  C   -0.100686
     9  C   -0.095598
    10  H    0.125460
    11  H    0.123637
    12  H    0.110811
    13  H    0.074405
    14  H    0.110779
    15  H    0.096406
    16  H    0.083012
    17  H    0.089784
    18  H    0.110598
    19  H    0.108446
 Sum of Mulliken charges =   0.00000

 Dipole moment (field-independent basis, Debye):
    X=              0.0754    Y=              1.2053    Z=              1.8070  Tot=              2.1734
 Quadrupole moment (field-independent basis, Debye-Ang):
   XX=            -53.0472   YY=            -50.2604   ZZ=            -54.0805
   XY=             -1.5478   XZ=              1.8780   YZ=             -0.0589

  Exact polarizability:  77.961  -1.117  79.727   3.018   0.280  65.413
 Approx polarizability: 101.097   0.672 130.260   2.817   2.916 101.648

                      1                      2                      3
                      A                      A                      A
 Frequencies --    142.9564               229.6048               264.0299
 Red. masses --      3.1529                 1.1143                 2.4957
 Frc consts  --      0.0380                 0.0346                 0.1025
 IR Inten    --      0.8786                 0.3045                 2.4404

                      4                      5                      6
                      A                      A                      A
 Frequencies --    311.4343               356.9949               427.4208
 Red. masses --      2.5057                 2.9303                 3.8547
 Frc consts  --      0.1432                 0.2200                 0.4149
 IR Inten    --      0.8396                 0.3975                 3.1888

                      7                      8                      9
                      A                      A                      A
 Frequencies --    455.8778               500.6684               633.4395
 Red. masses --      3.0372                 3.2600                 4.1089
 Frc consts  --      0.3719                 0.4815                 0.9714
 IR Inten    --      5.4263                 4.8921                 2.6631

                     10                     11                     12
                      A                      A                      A
 Frequencies --    658.0324               734.1957               784.5172
 Red. masses --      3.6712                 2.0540                 2.5019
 Frc consts  --      0.9366                 0.6523                 0.9073
 IR Inten    --      3.7983                19.0322                 7.7241

                     13                     14                     15
                      A                      A                      A
 Frequencies --    836.2334               840.2523               851.8957
 Red. masses --      4.4794                 4.0049                 2.4671
 Frc consts  --      1.8456                 1.6660                 1.0549
 IR Inten    --      6.4590                 2.6749                 4.8166

                     16                     17                     18
                      A                      A                      A
 Frequencies --    895.4872               924.0515               947.7216
 Red. masses --      2.4950                 1.7313                 1.5968
 Frc consts  --      1.1788                 0.8710                 0.8450
 IR Inten    --     13.3198                11.1744                 7.6843

                     19                     20                     21
                      A                      A                      A
 Frequencies --    957.1055               976.4276               993.5175
 Red. masses --      1.6341                 2.0462                 3.3629
 Frc consts  --      0.8819                 1.1494                 1.9557
 IR Inten    --     10.0515                44.6802               100.2306

                     22                     23                     24
                      A                      A                      A
 Frequencies --   1007.1977              1061.1992              1103.9726
 Red. masses --      2.6850                 2.4939                 2.0673
 Frc consts  --      1.6048                 1.6547                 1.4844
 IR Inten    --     31.4830                24.3783                43.5970

                     25                     26                     27
                      A                      A                      A
 Frequencies --   1118.8436              1141.5879              1169.6649
 Red. masses --      2.0280                 2.2025                 2.1417
 Frc consts  --      1.4957                 1.6911                 1.7264
 IR Inten    --     31.5322                39.5325                23.5168

                     28                     29                     30
                      A                      A                      A
 Frequencies --   1226.4132              1271.8943              1284.6670
 Red. masses --      1.3035                 1.5884                 1.2362
 Frc consts  --      1.1551                 1.5139                 1.2021
 IR Inten    --      6.5371                18.4108                 1.0175

                     31                     32                     33
                      A                      A                      A
 Frequencies --   1325.4510              1344.7654              1355.0644
 Red. masses --      1.4083                 1.5786                 1.4631
 Frc consts  --      1.4577                 1.6820                 1.5829
 IR Inten    --      7.1139                 5.2046                17.3322

                     34                     35                     36
                      A                      A                      A
 Frequencies --   1372.7502              1383.1503              1396.2100
 Red. masses --      1.2497                 1.2925                 1.3363
 Frc consts  --      1.3875                 1.4568                 1.5348
 IR Inten    --      4.4045                 3.2489                18.0171

                     37                     38                     39
                      A                      A                      A
 Frequencies --   1409.1666              1470.9415              1482.5501
 Red. masses --      1.3339                 1.0929                 1.0490
 Frc consts  --      1.5606                 1.3933                 1.3585
 IR Inten    --      9.5086                 0.7728                 3.6038

                     40                     41                     42
                      A                      A                      A
 Frequencies --   1501.0201              1661.2466              2999.5470
 Red. masses --      1.0523                 6.3654                 1.0826
 Frc consts  --      1.3968                10.3501                 5.7390
 IR Inten    --      2.1306                 1.0189                29.0412

                     43                     44                     45
                      A                      A                      A
 Frequencies --   3035.8449              3040.7172              3085.7356
 Red. masses --      1.0522                 1.0414                 1.0961
 Frc consts  --      5.7136                 5.6732                 6.1490
 IR Inten    --     10.2244                32.0090                30.8780

                     46                     47                     48
                      A                      A                      A
 Frequencies --   3087.8967              3112.8495              3114.1387
 Red. masses --      1.0960                 1.1009                 1.0906
 Frc consts  --      6.1573                 6.2854                 6.2315
 IR Inten    --     32.5102                29.7991                32.3231

                     49                     50                     51
                      A                      A                      A
 Frequencies --   3120.2557              3213.1809              3240.0937
 Red. masses --      1.1023                 1.0863                 1.1078
 Frc consts  --      6.3233                 6.6082                 6.8523
 IR Inten    --     23.7221                 3.4669                 6.6230

 - Thermochemistry -
 -------------------
 Temperature   298.150 Kelvin.  Pressure   1.00000 Atm.
 Atom     1 has atomic number  6 and mass  12.00000

 Molecular mass:   126.06808 amu.
 Principal axes and moments of inertia in atomic units:
                           1         2         3
     Eigenvalues --   594.626421121.078181261.91582
           X            0.99983  -0.01536   0.01033
           Y            0.01550   0.99979  -0.01361
           Z           -0.01012   0.01377   0.99985
 This molecule is an asymmetric top.
 Rotational symmetry number  1.
 Warning -- assumption of classical behavior for rotation
           may cause significant error
 Rotational temperatures (Kelvin)      0.14566     0.07726     0.06864
 Rotational constants (GHZ):           3.03508     1.60983     1.43016
 Zero-point vibrational energy     423836.2 (Joules/Mol)
                                  101.29929 (Kcal/Mol)
 Warning -- explicit consideration of   8 degrees of freedom as
           vibrations may cause significant error
 Vibrational temperatures:    205.68   330.35   379.88   448.08   513.64
          (Kelvin)            614.96   655.91   720.35   911.38   946.76
                             1056.34  1128.74  1203.15  1208.93  1225.69
                             1288.40  1329.50  1363.56  1377.06  1404.86
                             1429.45  1449.13  1526.83  1588.37  1609.76
                             1642.49  1682.88  1764.53  1829.97  1848.35
                             1907.03  1934.82  1949.63  1975.08  1990.04
                             2008.83  2027.47  2116.35  2133.06  2159.63
                             2390.16  4315.67  4367.90  4374.91  4439.68
                             4442.79  4478.69  4480.55  4489.35  4623.04
                             4661.77

 Zero-point correction=                           0.161431 (Hartree/Particle)
 Thermal correction to Energy=                    0.168625
 Thermal correction to Enthalpy=                  0.169569
 Thermal correction to Gibbs Free Energy=         0.130212
 Sum of electronic and zero-point Energies=           -423.035319
 Sum of electronic and thermal Energies=              -423.028125
 Sum of electronic and thermal Enthalpies=            -423.027181
 Sum of electronic and thermal Free Energies=         -423.066538

                     E (Thermal)             CV                S
                      KCal/Mol        Cal/Mol-Kelvin    Cal/Mol-Kelvin
 Total                  105.814             29.626             82.834
 Electronic               0.000              0.000              0.000
 Translational            0.889              2.981             40.409
 Rotational               0.889              2.981             28.222
 Vibrational            104.036             23.664             14.203
 Vibration     1          0.616              1.910              2.764
 Vibration     2          0.652              1.796              1.882
 Vibration     3          0.671              1.739              1.635
 Vibration     4          0.700              1.652              1.355
 Vibration     5          0.732              1.561              1.135
 Vibration     6          0.789              1.411              0.867
 Vibration     7          0.814              1.348              0.778
 Vibration     8          0.856              1.249              0.656

 Normal termination of Gaussian 09 at Tue Jan 28 05:16:30 2020.
