 Gaussian 09, Revision D.01,
 Gaussian 09:  ES64L-G09RevD.01 24-Apr-2013

 -----------------------------
 # b3lyp 6-31G(2df,p) opt Freq
 -----------------------------

 -----
 titel
 -----
 Symbolic Z-matrix:
 Charge =  0 Multiplicity = 1

 SCF Done:  E(RB3LYP) =  -423.188546921     A.U. after   15 cycles
 Optimization completed.
    -- Stationary point found.
 Normal termination of Gaussian 09 at Tue Jan 28 12:08:58 2020.

 ----------------------------------------------------------------------
 #N Geom=AllCheck Guess=TCheck SCRF=Check GenChk RB3LYP/6-31G(2df,p) Fr
 eq
 ----------------------------------------------------------------------

 Structure from the checkpoint file:  "/scratch/puck/g09_c11e1de9-3f91-4805-bc47-97c670b6f4e8/Gau-1489.chk"
 -----
 titel
 -----
 Charge =  0 Multiplicity = 1

                         Standard orientation:
 ---------------------------------------------------------------------
 Center     Atomic      Atomic             Coordinates (Angstroms)
 Number     Number       Type             X           Y           Z
 ---------------------------------------------------------------------
      1          6           0       -3.012713    0.098051   -0.601649
      2          6           0       -2.012085   -0.962984   -0.170284
      3          8           0       -0.651535   -0.515728   -0.362210
      4          6           0       -0.110836    0.208938    0.630159
      5          8           0       -0.680449    0.518924    1.645194
      6          6           0        1.325157    0.627800    0.289194
      7          6           0        1.324948    1.618511   -0.898545
      8          6           0        2.176648   -0.528790    0.027267
      9          6           0        2.894339   -1.467454   -0.190154
     10          1           0       -2.843003    0.394374   -1.640823
     11          1           0       -4.029754   -0.298335   -0.519279
     12          1           0       -2.936148    0.980823    0.037346
     13          1           0       -2.147868   -1.228465    0.880515
     14          1           0       -2.091301   -1.862014   -0.785568
     15          1           0        1.685341    1.143793    1.184770
     16          1           0        2.343279    1.959823   -1.097572
     17          1           0        0.935977    1.134306   -1.796159
     18          1           0        0.703363    2.488018   -0.665722
     19          1           0        3.523242   -2.302318   -0.377316
 ---------------------------------------------------------------------

 SCF Done:  E(RB3LYP) =  -423.188546921     A.U. after    1 cycles

 The electronic state is 1-A.
 Alpha  occ. eigenvalues --  -19.18398 -19.12849 -10.30917 -10.24218 -10.22582
 Alpha  occ. eigenvalues --  -10.19193 -10.18503 -10.18431 -10.17503  -1.10329
 Alpha  occ. eigenvalues --   -1.01678  -0.82254  -0.76779  -0.72933  -0.67379
 Alpha  occ. eigenvalues --   -0.64417  -0.56143  -0.54106  -0.50553  -0.49064
 Alpha  occ. eigenvalues --   -0.46752  -0.45707  -0.44358  -0.41579  -0.40519
 Alpha  occ. eigenvalues --   -0.39378  -0.38035  -0.37441  -0.36400  -0.34139
 Alpha  occ. eigenvalues --   -0.30126  -0.29005  -0.26815  -0.25697
 Alpha virt. eigenvalues --    0.00630   0.05085   0.06274   0.09695   0.11222
 Alpha virt. eigenvalues --    0.12679   0.13113   0.14176   0.15025   0.15406
 Alpha virt. eigenvalues --    0.16580   0.16817   0.18603   0.19188   0.19919

 Mulliken charges:
               1
     1  C   -0.387381
     2  C   -0.053843
     3  O   -0.235128
     4  C    0.445227
     5  O   -0.368884
     6  C   -0.240728
     7  C   -0.398321
     8  C    0.333629
     9  C   -0.477503
    10  H    0.126322
    11  H    0.122935
    12  H    0.144548
    13  H    0.134246
    14  H    0.117223
    15  H    0.132823
    16  H    0.133508
    17  H    0.143904
    18  H    0.127678
    19  H    0.199746
 Sum of Mulliken charges =   0.00000

 Dipole moment (field-independent basis, Debye):
    X=             -0.3840    Y=             -0.2772    Z=             -1.6990  Tot=              1.7638
 Quadrupole moment (field-independent basis, Debye-Ang):
   XX=            -47.6619   YY=            -49.1452   ZZ=            -57.6458
   XY=              1.1827   XZ=              1.7842   YZ=             -1.0389

  Exact polarizability:  91.248  -8.092  78.349  -1.794   3.347  64.757
 Approx polarizability: 115.562 -18.692 118.950  -8.145  13.124 103.311

                      1                      2                      3
                      A                      A                      A
 Frequencies --     24.0382                69.0220                83.8481
 Red. masses --      3.5933                 3.4303                 4.1361
 Frc consts  --      0.0012                 0.0096                 0.0171
 IR Inten    --      0.3685                 1.7096                 0.3620

                      4                      5                      6
                      A                      A                      A
 Frequencies --    134.0465               180.5663               215.4442
 Red. masses --      3.6402                 2.4406                 1.5271
 Frc consts  --      0.0385                 0.0469                 0.0418
 IR Inten    --      0.3162                 1.8582                 0.6894

                      7                      8                      9
                      A                      A                      A
 Frequencies --    233.2800               244.7492               321.7179
 Red. masses --      1.0949                 2.1886                 3.0178
 Frc consts  --      0.0351                 0.0772                 0.1840
 IR Inten    --      0.2280                 1.0687                 1.6421

                     10                     11                     12
                      A                      A                      A
 Frequencies --    348.3367               443.8861               473.3061
 Red. masses --      3.7686                 4.1877                 6.0397
 Frc consts  --      0.2694                 0.4861                 0.7972
 IR Inten    --     11.5567                 5.5463                 3.3185

                     13                     14                     15
                      A                      A                      A
 Frequencies --    540.2211               627.2294               639.3837
 Red. masses --      4.5497                 1.2705                 1.2848
 Frc consts  --      0.7823                 0.2945                 0.3095
 IR Inten    --      7.1177                36.6311                37.7151

                     16                     17                     18
                      A                      A                      A
 Frequencies --    676.3308               772.9046               780.5066
 Red. masses --      2.5359                 4.2591                 1.7006
 Frc consts  --      0.6834                 1.4991                 0.6104
 IR Inten    --     12.1200                 7.5498                 6.6904

                     19                     20                     21
                      A                      A                      A
 Frequencies --    845.5772               877.2438               921.7475
 Red. masses --      2.3207                 2.3597                 2.3022
 Frc consts  --      0.9776                 1.0699                 1.1524
 IR Inten    --      5.8928                 4.5264                 2.7534

                     22                     23                     24
                      A                      A                      A
 Frequencies --   1004.2758              1055.9917              1086.5689
 Red. masses --      1.9180                 4.4927                 2.5020
 Frc consts  --      1.1397                 2.9518                 1.7404
 IR Inten    --      6.9757                41.5698                46.6686

                     25                     26                     27
                      A                      A                      A
 Frequencies --   1112.5735              1117.2767              1196.8071
 Red. masses --      1.6865                 2.0527                 1.7532
 Frc consts  --      1.2300                 1.5097                 1.4795
 IR Inten    --     35.9019                60.4157                 3.7893

                     28                     29                     30
                      A                      A                      A
 Frequencies --   1262.4849              1300.8266              1329.1915
 Red. masses --      4.3980                 1.3111                 1.2265
 Frc consts  --      4.1301                 1.3071                 1.2767
 IR Inten    --    272.2791                28.2676                13.3892

                     31                     32                     33
                      A                      A                      A
 Frequencies --   1334.1292              1397.1169              1403.4220
 Red. masses --      1.2897                 1.2340                 1.2199
 Frc consts  --      1.3525                 1.4192                 1.4157
 IR Inten    --     19.0768                 3.2846                 8.1019

                     34                     35                     36
                      A                      A                      A
 Frequencies --   1420.6532              1484.2992              1487.9170
 Red. masses --      1.3523                 1.0473                 1.0780
 Frc consts  --      1.6080                 1.3594                 1.4061
 IR Inten    --      6.7781                 7.3769                 3.7152

                     37                     38                     39
                      A                      A                      A
 Frequencies --   1492.7548              1499.3551              1507.0822
 Red. masses --      1.0420                 1.0564                 1.0612
 Frc consts  --      1.3680                 1.3992                 1.4201
 IR Inten    --      6.6604                 7.9625                 5.9464

                     40                     41                     42
                      A                      A                      A
 Frequencies --   1818.4151              2239.7155              3045.8015
 Red. masses --     11.1990                 5.9261                 1.0353
 Frc consts  --     21.8180                17.5147                 5.6586
 IR Inten    --    227.3437                 1.3089                13.1397

                     43                     44                     45
                      A                      A                      A
 Frequencies --   3050.9392              3065.1644              3072.5934
 Red. masses --      1.0344                 1.0830                 1.0580
 Frc consts  --      5.6728                 5.9951                 5.8848
 IR Inten    --     19.1116                 3.8443                23.4401

                     46                     47                     48
                      A                      A                      A
 Frequencies --   3113.3135              3121.7631              3126.5545
 Red. masses --      1.1025                 1.1023                 1.1021
 Frc consts  --      6.2963                 6.3295                 6.3477
 IR Inten    --     13.7223                13.3701                16.1200

                     49                     50                     51
                      A                      A                      A
 Frequencies --   3141.7258              3144.8567              3504.7062
 Red. masses --      1.1064                 1.1028                 1.1624
 Frc consts  --      6.4343                 6.4262                 8.4124
 IR Inten    --     21.9522                13.2803                67.4454

 - Thermochemistry -
 -------------------
 Temperature   298.150 Kelvin.  Pressure   1.00000 Atm.
 Atom     1 has atomic number  6 and mass  12.00000

 Molecular mass:   126.06808 amu.
 Principal axes and moments of inertia in atomic units:
                           1         2         3
     Eigenvalues --   666.069271828.558421950.13099
           X            0.99986   0.01557   0.00545
           Y           -0.01488   0.99384  -0.10984
           Z           -0.00713   0.10974   0.99393
 This molecule is an asymmetric top.
 Rotational symmetry number  1.
 Warning -- assumption of classical behavior for rotation
           may cause significant error
 Rotational temperatures (Kelvin)      0.13004     0.04737     0.04441
 Rotational constants (GHZ):           2.70954     0.98697     0.92545
 Zero-point vibrational energy     409073.0 (Joules/Mol)
                                   97.77079 (Kcal/Mol)
 Warning -- explicit consideration of  13 degrees of freedom as
           vibrations may cause significant error
 Vibrational temperatures:     34.59    99.31   120.64   192.86   259.79
          (Kelvin)            309.98   335.64   352.14   462.88   501.18
                              638.65   680.98   777.26   902.44   919.93
                              973.09  1112.04  1122.97  1216.60  1262.16
                             1326.19  1444.93  1519.33  1563.33  1600.74
                             1607.51  1721.94  1816.43  1871.60  1912.41
                             1919.51  2010.14  2019.21  2044.00  2135.57
                             2140.78  2147.74  2157.23  2168.35  2616.29
                             3222.45  4382.22  4389.62  4410.08  4420.77
                             4479.36  4491.52  4498.41  4520.24  4524.74
                             5042.48

 Zero-point correction=                           0.155808 (Hartree/Particle)
 Thermal correction to Energy=                    0.166365
 Thermal correction to Enthalpy=                  0.167309
 Thermal correction to Gibbs Free Energy=         0.118859
 Sum of electronic and zero-point Energies=           -423.032739
 Sum of electronic and thermal Energies=              -423.022182
 Sum of electronic and thermal Enthalpies=            -423.021238
 Sum of electronic and thermal Free Energies=         -423.069688

                     E (Thermal)             CV                S
                      KCal/Mol        Cal/Mol-Kelvin    Cal/Mol-Kelvin
 Total                  104.396             36.886            101.972
 Electronic               0.000              0.000              0.000
 Translational            0.889              2.981             40.409
 Rotational               0.889              2.981             29.253
 Vibrational            102.618             30.924             32.310
 Vibration     1          0.593              1.985              6.269
 Vibration     2          0.598              1.969              4.181
 Vibration     3          0.601              1.960              3.799
 Vibration     4          0.613              1.919              2.887
 Vibration     5          0.630              1.866              2.323
 Vibration     6          0.645              1.817              1.997
 Vibration     7          0.654              1.790              1.854
 Vibration     8          0.660              1.771              1.768
 Vibration     9          0.707              1.632              1.301
 Vibration    10          0.726              1.579              1.174
 Vibration    11          0.803              1.374              0.814
 Vibration    12          0.830              1.309              0.728
 Vibration    13          0.895              1.161              0.565

 Optimization completed.
    -- Stationary point found.
 Normal termination of Gaussian 09 at Tue Jan 28 12:50:05 2020.
