 Gaussian 09, Revision D.01,
 Gaussian 09:  ES64L-G09RevD.01 24-Apr-2013

 -----------------------------
 # b3lyp 6-31G(2df,p) opt Freq
 -----------------------------

 -----
 titel
 -----
 Symbolic Z-matrix:
 Charge =  0 Multiplicity = 1

 SCF Done:  E(RB3LYP) =  -423.208968192     A.U. after   14 cycles
 Optimization completed.
    -- Stationary point found.
 Normal termination of Gaussian 09 at Tue Jan 28 09:49:51 2020.

 ----------------------------------------------------------------------
 #N Geom=AllCheck Guess=TCheck SCRF=Check GenChk RB3LYP/6-31G(2df,p) Fr
 eq
 ----------------------------------------------------------------------

 Structure from the checkpoint file:  "/scratch/puck/g09_b5b29c99-44d2-424d-9bfe-471d05ef75cf/Gau-96485.chk"
 -----
 titel
 -----
 Charge =  0 Multiplicity = 1

                         Standard orientation:
 ---------------------------------------------------------------------
 Center     Atomic      Atomic             Coordinates (Angstroms)
 Number     Number       Type             X           Y           Z
 ---------------------------------------------------------------------
      1          6           0        2.534733   -0.018292    0.851410
      2          6           0        1.800184   -0.465163   -0.419837
      3          6           0        0.308168   -0.320646   -0.314326
      4          8           0       -0.522348   -1.163737   -1.154593
      5          6           0       -0.645473   -1.291779    0.260636
      6          6           0       -1.881299   -0.593466    0.804590
      7          6           0       -1.820352    0.822193    0.187255
      8          6           0       -0.350492    1.039108   -0.194670
      9          8           0        0.207971    2.098214   -0.333235
     10          1           0        2.337745    1.035621    1.063652
     11          1           0        2.222041   -0.607896    1.719868
     12          1           0        3.614815   -0.142662    0.733579
     13          1           0        2.143245    0.134218   -1.271076
     14          1           0        2.024957   -1.511253   -0.652110
     15          1           0       -0.305871   -2.237519    0.676906
     16          1           0       -2.795733   -1.134690    0.545169
     17          1           0       -1.822808   -0.549370    1.897711
     18          1           0       -2.424805    0.891662   -0.722542
     19          1           0       -2.151391    1.614337    0.861130
 ---------------------------------------------------------------------

 SCF Done:  E(RB3LYP) =  -423.208968192     A.U. after    1 cycles

 The electronic state is 1-A.
 Alpha  occ. eigenvalues --  -19.16366 -19.13708 -10.27141 -10.24872 -10.24444
 Alpha  occ. eigenvalues --  -10.20195 -10.19615 -10.19194 -10.17960  -1.08569
 Alpha  occ. eigenvalues --   -1.04428  -0.81068  -0.78459  -0.69926  -0.68084
 Alpha  occ. eigenvalues --   -0.62921  -0.59195  -0.52516  -0.50059  -0.48086
 Alpha  occ. eigenvalues --   -0.45915  -0.44394  -0.44154  -0.41689  -0.39762
 Alpha  occ. eigenvalues --   -0.39013  -0.38346  -0.37258  -0.35968  -0.35302
 Alpha  occ. eigenvalues --   -0.34675  -0.30101  -0.29084  -0.23867
 Alpha virt. eigenvalues --   -0.02710   0.09046   0.09583   0.10138   0.12266
 Alpha virt. eigenvalues --    0.13193   0.14965   0.15309   0.15654   0.16215
 Alpha virt. eigenvalues --    0.17421   0.18394   0.19134   0.19749   0.21270

 Mulliken charges:
               1
     1  C   -0.392489
     2  C   -0.293771
     3  C    0.304205
     4  O   -0.300055
     5  C   -0.015585
     6  C   -0.250955
     7  C   -0.332350
     8  C    0.381628
     9  O   -0.322107
    10  H    0.144375
    11  H    0.111604
    12  H    0.119522
    13  H    0.122228
    14  H    0.110754
    15  H    0.101605
    16  H    0.119226
    17  H    0.114659
    18  H    0.146374
    19  H    0.131133
 Sum of Mulliken charges =   0.00000

 Dipole moment (field-independent basis, Debye):
    X=             -0.6902    Y=             -1.8104    Z=              1.9111  Tot=              2.7214
 Quadrupole moment (field-independent basis, Debye-Ang):
   XX=            -48.8007   YY=            -58.3865   ZZ=            -53.9864
   XY=             -2.1731   XZ=             -1.4806   YZ=             -1.4803

  Exact polarizability:  84.955   3.061  76.324  -3.500  -1.899  62.931
 Approx polarizability: 110.832  12.251 120.771  -3.891  -1.655 100.027

                      1                      2                      3
                      A                      A                      A
 Frequencies --     72.8734               105.1434               157.4295
 Red. masses --      2.4768                 2.9349                 2.9174
 Frc consts  --      0.0077                 0.0191                 0.0426
 IR Inten    --      1.2108                 4.0006                 0.3694

                      4                      5                      6
                      A                      A                      A
 Frequencies --    189.0283               233.2461               290.1114
 Red. masses --      1.6509                 1.7697                 2.0211
 Frc consts  --      0.0348                 0.0567                 0.1002
 IR Inten    --      3.2544                 2.2168                 0.6556

                      7                      8                      9
                      A                      A                      A
 Frequencies --    367.7656               461.4071               469.6220
 Red. masses --      3.3367                 4.0501                 4.3010
 Frc consts  --      0.2659                 0.5080                 0.5589
 IR Inten    --      3.6371                 2.5808                17.6932

                     10                     11                     12
                      A                      A                      A
 Frequencies --    534.0566               614.8439               662.9532
 Red. masses --      4.3896                 2.7755                 3.5847
 Frc consts  --      0.7377                 0.6182                 0.9283
 IR Inten    --      0.6888                 3.0363                 2.2177

                     13                     14                     15
                      A                      A                      A
 Frequencies --    690.8128               766.8313               819.9627
 Red. masses --      4.5565                 1.4116                 1.7923
 Frc consts  --      1.2812                 0.4891                 0.7100
 IR Inten    --      5.8302                 5.4395                 2.2255

                     16                     17                     18
                      A                      A                      A
 Frequencies --    846.7509               882.6221               915.9380
 Red. masses --      2.7772                 3.3300                 2.3535
 Frc consts  --      1.1732                 1.5284                 1.1633
 IR Inten    --      1.5587                26.3823                 4.5969

                     19                     20                     21
                      A                      A                      A
 Frequencies --    955.4928               998.9350              1024.8787
 Red. masses --      2.2313                 1.9392                 1.6513
 Frc consts  --      1.2002                 1.1401                 1.0219
 IR Inten    --     22.2648                 3.3921                 1.4214

                     22                     23                     24
                      A                      A                      A
 Frequencies --   1048.5849              1082.2212              1103.3629
 Red. masses --      2.4201                 2.1542                 2.2920
 Frc consts  --      1.5678                 1.4865                 1.6440
 IR Inten    --     25.8841                 8.6478                12.0560

                     25                     26                     27
                      A                      A                      A
 Frequencies --   1125.9814              1170.4198              1230.1286
 Red. masses --      1.6844                 1.3810                 1.3615
 Frc consts  --      1.2582                 1.1146                 1.2139
 IR Inten    --     11.3973                 0.5308                 1.8208

                     28                     29                     30
                      A                      A                      A
 Frequencies --   1254.0539              1271.4831              1307.7570
 Red. masses --      1.6955                 1.3155                 1.8024
 Frc consts  --      1.5710                 1.2530                 1.8162
 IR Inten    --      7.9905                 2.3236                 1.2352

                     31                     32                     33
                      A                      A                      A
 Frequencies --   1328.6794              1329.6018              1359.6431
 Red. masses --      1.6871                 1.4880                 1.5285
 Frc consts  --      1.7549                 1.5498                 1.6648
 IR Inten    --      5.2881                 2.6292                 2.3634

                     34                     35                     36
                      A                      A                      A
 Frequencies --   1408.5093              1446.3334              1458.9792
 Red. masses --      1.2396                 1.3925                 2.1465
 Frc consts  --      1.4490                 1.7163                 2.6920
 IR Inten    --      2.2433                 6.9910                 9.8908

                     37                     38                     39
                      A                      A                      A
 Frequencies --   1479.3410              1487.8706              1499.3693
 Red. masses --      1.0741                 1.1080                 1.0560
 Frc consts  --      1.3849                 1.4452                 1.3987
 IR Inten    --      2.3646                 2.9035                 6.7109

                     40                     41                     42
                      A                      A                      A
 Frequencies --   1513.0123              1836.9271              3039.1112
 Red. masses --      1.0778                12.6033                 1.0444
 Frc consts  --      1.4537                25.0564                 5.6837
 IR Inten    --      3.7955               194.8953                12.5699

                     43                     44                     45
                      A                      A                      A
 Frequencies --   3042.8738              3049.1945              3067.0475
 Red. masses --      1.0521                 1.0606                 1.0656
 Frc consts  --      5.7393                 5.8102                 5.9059
 IR Inten    --     25.5956                27.3718                 5.0104

                     46                     47                     48
                      A                      A                      A
 Frequencies --   3081.7297              3093.2828              3108.5830
 Red. masses --      1.1012                 1.1010                 1.1010
 Frc consts  --      6.1620                 6.2068                 6.2687
 IR Inten    --      5.3622                15.9898                31.9543

                     49                     50                     51
                      A                      A                      A
 Frequencies --   3125.4399              3126.9687              3143.7515
 Red. masses --      1.1002                 1.1017                 1.0910
 Frc consts  --      6.3323                 6.3470                 6.3527
 IR Inten    --      6.9808                19.2620                22.3904

 - Thermochemistry -
 -------------------
 Temperature   298.150 Kelvin.  Pressure   1.00000 Atm.
 Atom     1 has atomic number  6 and mass  12.00000

 Molecular mass:   126.06808 amu.
 Principal axes and moments of inertia in atomic units:
                           1         2         3
     Eigenvalues --   756.097771149.758651500.69855
           X            0.99962  -0.02746  -0.00100
           Y            0.02744   0.99947  -0.01768
           Z            0.00149   0.01765   0.99984
 This molecule is an asymmetric top.
 Rotational symmetry number  1.
 Warning -- assumption of classical behavior for rotation
           may cause significant error
 Rotational temperatures (Kelvin)      0.11455     0.07533     0.05772
 Rotational constants (GHZ):           2.38692     1.56967     1.20260
 Zero-point vibrational energy     416784.6 (Joules/Mol)
                                   99.61391 (Kcal/Mol)
 Warning -- explicit consideration of  11 degrees of freedom as
           vibrations may cause significant error
 Vibrational temperatures:    104.85   151.28   226.51   271.97   335.59
          (Kelvin)            417.41   529.13   663.86   675.68   768.39
                              884.62   953.84   993.92  1103.30  1179.74
                             1218.28  1269.89  1317.83  1374.74  1437.24
                             1474.57  1508.68  1557.07  1587.49  1620.03
                             1683.97  1769.88  1804.30  1829.38  1881.57
                             1911.67  1913.00  1956.22  2026.53  2080.95
                             2099.14  2128.44  2140.71  2157.26  2176.88
                             2642.93  4372.60  4378.01  4387.11  4412.79
                             4433.92  4450.54  4472.55  4496.81  4499.00
                             4523.15

 Zero-point correction=                           0.158745 (Hartree/Particle)
 Thermal correction to Energy=                    0.167377
 Thermal correction to Enthalpy=                  0.168321
 Thermal correction to Gibbs Free Energy=         0.125237
 Sum of electronic and zero-point Energies=           -423.050223
 Sum of electronic and thermal Energies=              -423.041591
 Sum of electronic and thermal Enthalpies=            -423.040647
 Sum of electronic and thermal Free Energies=         -423.083731

                     E (Thermal)             CV                S
                      KCal/Mol        Cal/Mol-Kelvin    Cal/Mol-Kelvin
 Total                  105.031             32.330             90.678
 Electronic               0.000              0.000              0.000
 Translational            0.889              2.981             40.409
 Rotational               0.889              2.981             28.658
 Vibrational            103.253             26.368             21.612
 Vibration     1          0.599              1.967              4.074
 Vibration     2          0.605              1.945              3.357
 Vibration     3          0.621              1.894              2.580
 Vibration     4          0.633              1.855              2.237
 Vibration     5          0.654              1.790              1.854
 Vibration     6          0.686              1.692              1.473
 Vibration     7          0.740              1.539              1.089
 Vibration     8          0.819              1.336              0.762
 Vibration     9          0.827              1.317              0.739
 Vibration    10          0.889              1.175              0.578
 Vibration    11          0.974              1.000              0.425

 Normal termination of Gaussian 09 at Tue Jan 28 10:33:05 2020.
