 Gaussian 09, Revision D.01,
 Gaussian 09:  ES64L-G09RevD.01 24-Apr-2013

 -----------------------------
 # b3lyp 6-31G(2df,p) opt Freq
 -----------------------------

 -----
 titel
 -----
 Symbolic Z-matrix:
 Charge =  0 Multiplicity = 1

 SCF Done:  E(RB3LYP) =  -423.139329693     A.U. after   13 cycles
 Optimization completed.
    -- Stationary point found.
 Normal termination of Gaussian 09 at Mon Jan 27 17:27:31 2020.

 ----------------------------------------------------------------------
 #N Geom=AllCheck Guess=TCheck SCRF=Check GenChk RB3LYP/6-31G(2df,p) Fr
 eq
 ----------------------------------------------------------------------

 Structure from the checkpoint file:  "/scratch/puck/g09_88f485a7-e108-4f34-aae1-a34d519987b5/Gau-79108.chk"
 -----
 titel
 -----
 Charge =  0 Multiplicity = 1

                         Standard orientation:
 ---------------------------------------------------------------------
 Center     Atomic      Atomic             Coordinates (Angstroms)
 Number     Number       Type             X           Y           Z
 ---------------------------------------------------------------------
      1          8           0       -2.303319    0.333065   -0.698887
      2          6           0       -1.194537   -0.014801    0.072573
      3          6           0       -1.072268   -1.407298    0.644009
      4          6           0       -0.152116   -0.948122   -0.475095
      5          6           0        1.124112   -0.128416   -0.164363
      6          8           0        2.368378   -0.674086   -0.465891
      7          6           0        0.651505    1.303500   -0.645382
      8          6           0       -0.294192    1.131998    0.588232
      9          6           0        0.899024    0.402763    1.265769
     10          1           0       -3.018306    0.571570   -0.098773
     11          1           0       -0.708427   -1.609727    1.644403
     12          1           0       -1.859689   -2.079993    0.317823
     13          1           0       -0.258696   -1.388290   -1.461426
     14          1           0        2.334197   -1.042930   -1.354728
     15          1           0        1.421770    2.066582   -0.509145
     16          1           0        0.178557    1.388140   -1.626988
     17          1           0       -0.788968    1.978746    1.062905
     18          1           0        1.686785    1.104080    1.547438
     19          1           0        0.723142   -0.297758    2.082252
 ---------------------------------------------------------------------

 SCF Done:  E(RB3LYP) =  -423.139329693     A.U. after    1 cycles

 The electronic state is 1-A.
 Alpha  occ. eigenvalues --  -19.14342 -19.13883 -10.24179 -10.23458 -10.19355
 Alpha  occ. eigenvalues --  -10.18511 -10.18342 -10.17900 -10.17530  -1.03070
 Alpha  occ. eigenvalues --   -1.02413  -0.89828  -0.80074  -0.66533  -0.66039
 Alpha  occ. eigenvalues --   -0.61545  -0.56228  -0.55253  -0.52202  -0.49494
 Alpha  occ. eigenvalues --   -0.48702  -0.43177  -0.41812  -0.39986  -0.39380
 Alpha  occ. eigenvalues --   -0.37794  -0.35561  -0.34711  -0.33099  -0.32263
 Alpha  occ. eigenvalues --   -0.30339  -0.26944  -0.25091  -0.24552
 Alpha virt. eigenvalues --    0.07689   0.08342   0.10681   0.11694   0.11975
 Alpha virt. eigenvalues --    0.13209   0.14451   0.15842   0.16641   0.18116
 Alpha virt. eigenvalues --    0.18959   0.20423   0.21726   0.22785   0.23293

 Mulliken charges:
               1
     1  O   -0.472229
     2  C    0.423498
     3  C   -0.379875
     4  C   -0.167307
     5  C    0.421453
     6  O   -0.484646
     7  C   -0.283688
     8  C   -0.107437
     9  C   -0.278125
    10  H    0.282154
    11  H    0.113611
    12  H    0.112795
    13  H    0.087826
    14  H    0.278865
    15  H    0.093659
    16  H    0.098227
    17  H    0.060570
    18  H    0.105139
    19  H    0.095510
 Sum of Mulliken charges =   0.00000

 Dipole moment (field-independent basis, Debye):
    X=             -1.1550    Y=              0.0572    Z=              0.2547  Tot=              1.1841
 Quadrupole moment (field-independent basis, Debye-Ang):
   XX=            -53.7233   YY=            -52.2867   ZZ=            -50.9063
   XY=             -0.0676   XZ=             -5.3881   YZ=              2.7368

  Exact polarizability:  79.205   2.601  73.813  -1.539  -0.271  69.881
 Approx polarizability: 113.634  -0.992 108.744  -2.659  -0.449 108.480

                      1                      2                      3
                      A                      A                      A
 Frequencies --    184.2344               228.2226               276.3188
 Red. masses --      4.2272                 1.1430                 1.5889
 Frc consts  --      0.0845                 0.0351                 0.0715
 IR Inten    --      5.0711                73.3552                10.8384

                      4                      5                      6
                      A                      A                      A
 Frequencies --    300.7874               338.1860               393.9138
 Red. masses --      2.0601                 3.1586                 3.1320
 Frc consts  --      0.1098                 0.2128                 0.2863
 IR Inten    --    108.6549                 5.3474                 2.1658

                      7                      8                      9
                      A                      A                      A
 Frequencies --    412.4971               466.1814               527.1603
 Red. masses --      2.6978                 3.0391                 2.7139
 Frc consts  --      0.2705                 0.3891                 0.4444
 IR Inten    --      1.7206                11.8672                 0.4374

                     10                     11                     12
                      A                      A                      A
 Frequencies --    550.4606               584.6515               628.3583
 Red. masses --      2.0035                 3.5379                 3.1550
 Frc consts  --      0.3577                 0.7125                 0.7340
 IR Inten    --      2.5018                 1.2847                 9.2202

                     13                     14                     15
                      A                      A                      A
 Frequencies --    722.0408               780.0298               849.6913
 Red. masses --      3.4037                 3.1079                 2.3924
 Frc consts  --      1.0455                 1.1141                 1.0177
 IR Inten    --      1.3661                 1.2676                 1.0102

                     16                     17                     18
                      A                      A                      A
 Frequencies --    891.1135               915.9073               927.6075
 Red. masses --      1.8967                 2.4608                 2.2024
 Frc consts  --      0.8874                 1.2163                 1.1165
 IR Inten    --      3.0808                 5.2833                 5.3012

                     19                     20                     21
                      A                      A                      A
 Frequencies --    939.8640               963.5461               981.5199
 Red. masses --      1.7270                 2.2124                 1.7676
 Frc consts  --      0.8988                 1.2102                 1.0033
 IR Inten    --      7.4975                26.3243                 9.7133

                     22                     23                     24
                      A                      A                      A
 Frequencies --    995.5292              1016.9305              1038.4779
 Red. masses --      1.5968                 1.6686                 1.2714
 Frc consts  --      0.9324                 1.0167                 0.8078
 IR Inten    --      2.8008                 4.2563                 6.4458

                     25                     26                     27
                      A                      A                      A
 Frequencies --   1068.4041              1080.8160              1101.4414
 Red. masses --      1.4543                 1.4427                 1.6746
 Frc consts  --      0.9781                 0.9929                 1.1970
 IR Inten    --      3.8918                 6.5832                12.9829

                     28                     29                     30
                      A                      A                      A
 Frequencies --   1134.7196              1156.1499              1201.8027
 Red. masses --      1.5016                 1.8823                 2.1804
 Frc consts  --      1.1392                 1.4824                 1.8554
 IR Inten    --     25.5661                30.5000               101.9575

                     31                     32                     33
                      A                      A                      A
 Frequencies --   1219.2545              1222.1173              1231.0717
 Red. masses --      1.4920                 1.7248                 1.6266
 Frc consts  --      1.3068                 1.5178                 1.4524
 IR Inten    --      4.2615                 0.4862                55.5513

                     34                     35                     36
                      A                      A                      A
 Frequencies --   1277.6524              1295.7979              1330.8959
 Red. masses --      2.0981                 2.4863                 1.9712
 Frc consts  --      2.0179                 2.4597                 2.0571
 IR Inten    --     49.7571                 9.5694               192.1252

                     37                     38                     39
                      A                      A                      A
 Frequencies --   1376.9217              1404.3773              1479.4619
 Red. masses --      1.9221                 1.7092                 1.2798
 Frc consts  --      2.1471                 1.9861                 1.6504
 IR Inten    --      3.7209                 6.2838                 3.5738

                     40                     41                     42
                      A                      A                      A
 Frequencies --   1497.0902              1536.3595              3058.9666
 Red. masses --      1.2410                 1.1390                 1.0553
 Frc consts  --      1.6387                 1.5840                 5.8178
 IR Inten    --      8.1347                 4.1406                35.4968

                     43                     44                     45
                      A                      A                      A
 Frequencies --   3082.0885              3119.1152              3125.9728
 Red. masses --      1.0576                 1.0909                 1.1050
 Frc consts  --      5.9193                 6.2532                 6.3620
 IR Inten    --     21.5997                38.0463                24.5514

                     46                     47                     48
                      A                      A                      A
 Frequencies --   3130.7884              3138.2695              3163.3157
 Red. masses --      1.0748                 1.0909                 1.0910
 Frc consts  --      6.2071                 6.3302                 6.4323
 IR Inten    --      9.5370                44.5062                 8.8694

                     49                     50                     51
                      A                      A                      A
 Frequencies --   3214.8646              3794.3252              3810.8900
 Red. masses --      1.1148                 1.0661                 1.0658
 Frc consts  --      6.7886                 9.0434                 9.1200
 IR Inten    --     10.7451                20.7733                21.1229

 - Thermochemistry -
 -------------------
 Temperature   298.150 Kelvin.  Pressure   1.00000 Atm.
 Atom     1 has atomic number  8 and mass  15.99491

 Molecular mass:   126.06808 amu.
 Principal axes and moments of inertia in atomic units:
                           1         2         3
     Eigenvalues --   602.134561168.159421303.31523
           X            0.99956   0.02794  -0.01006
           Y           -0.02797   0.99961  -0.00203
           Z            0.01000   0.00231   0.99995
 This molecule is an asymmetric top.
 Rotational symmetry number  1.
 Warning -- assumption of classical behavior for rotation
           may cause significant error
 Rotational temperatures (Kelvin)      0.14384     0.07415     0.06646
 Rotational constants (GHZ):           2.99724     1.54494     1.38473
 Zero-point vibrational energy     419686.8 (Joules/Mol)
                                  100.30756 (Kcal/Mol)
 Warning -- explicit consideration of  11 degrees of freedom as
           vibrations may cause significant error
 Vibrational temperatures:    265.07   328.36   397.56   432.77   486.57
          (Kelvin)            566.75   593.49   670.73   758.47   791.99
                              841.18   904.07  1038.85  1122.29  1222.51
                             1282.11  1317.78  1334.62  1352.25  1386.33
                             1412.19  1432.34  1463.13  1494.14  1537.19
                             1555.05  1584.73  1632.61  1663.44  1729.12
                             1754.23  1758.35  1771.24  1838.25  1864.36
                             1914.86  1981.08  2020.58  2128.61  2153.98
                             2210.48  4401.17  4434.43  4487.71  4497.57
                             4504.50  4515.26  4551.30  4625.47  5459.18
                             5483.01

 Zero-point correction=                           0.159850 (Hartree/Particle)
 Thermal correction to Energy=                    0.167490
 Thermal correction to Enthalpy=                  0.168434
 Thermal correction to Gibbs Free Energy=         0.128509
 Sum of electronic and zero-point Energies=           -422.979479
 Sum of electronic and thermal Energies=              -422.971839
 Sum of electronic and thermal Enthalpies=            -422.970895
 Sum of electronic and thermal Free Energies=         -423.010821

                     E (Thermal)             CV                S
                      KCal/Mol        Cal/Mol-Kelvin    Cal/Mol-Kelvin
 Total                  105.102             32.096             84.031
 Electronic               0.000              0.000              0.000
 Translational            0.889              2.981             40.409
 Rotational               0.889              2.981             28.307
 Vibrational            103.324             26.134             15.315
 Vibration     1          0.631              1.861              2.285
 Vibration     2          0.651              1.798              1.893
 Vibration     3          0.678              1.717              1.556
 Vibration     4          0.693              1.672              1.413
 Vibration     5          0.718              1.599              1.221
 Vibration     6          0.761              1.483              0.985
 Vibration     7          0.776              1.443              0.918
 Vibration     8          0.824              1.325              0.748
 Vibration     9          0.882              1.190              0.594
 Vibration    10          0.906              1.139              0.543
 Vibration    11          0.942              1.065              0.477

 Normal termination of Gaussian 09 at Mon Jan 27 18:23:11 2020.
