 Gaussian 09, Revision D.01,
 Gaussian 09:  ES64L-G09RevD.01 24-Apr-2013

 -----------------------------
 # b3lyp 6-31G(2df,p) opt Freq
 -----------------------------

 -----
 titel
 -----
 Symbolic Z-matrix:
 Charge =  0 Multiplicity = 1

 SCF Done:  E(RB3LYP) =  -423.182639342     A.U. after   13 cycles
 Optimization completed.
    -- Stationary point found.
 Normal termination of Gaussian 09 at Mon Jan 27 11:18:57 2020.

 ----------------------------------------------------------------------
 #N Geom=AllCheck Guess=TCheck SCRF=Check GenChk RB3LYP/6-31G(2df,p) Fr
 eq
 ----------------------------------------------------------------------

 Structure from the checkpoint file:  "/scratch/puck/g09_3bae0f4f-94ec-4974-b1de-33951019d46a/Gau-162686.chk"
 -----
 titel
 -----
 Charge =  0 Multiplicity = 1

                         Standard orientation:
 ---------------------------------------------------------------------
 Center     Atomic      Atomic             Coordinates (Angstroms)
 Number     Number       Type             X           Y           Z
 ---------------------------------------------------------------------
      1          6           0       -2.293946   -0.000003   -0.156296
      2          6           0       -1.072129    0.756112   -0.610600
      3          6           0       -1.072122   -0.756104   -0.610611
      4          6           0       -0.067150   -1.123802    0.475015
      5          6           0        1.358616   -1.188877   -0.086502
      6          8           0        1.677474    0.000003   -0.799713
      7          6           0        1.358611    1.188880   -0.086499
      8          6           0       -0.067151    1.123797    0.475026
      9          8           0       -0.110430   -0.000008    1.371348
     10          1           0       -2.543398   -0.000012    0.899190
     11          1           0       -3.143761   -0.000008   -0.829798
     12          1           0       -1.086381    1.326009   -1.531500
     13          1           0       -1.086375   -1.325977   -1.531525
     14          1           0       -0.309135   -2.019187    1.056162
     15          1           0        2.055688   -1.340367    0.752686
     16          1           0        1.481047   -2.012895   -0.797179
     17          1           0        2.055691    1.340376    0.752679
     18          1           0        1.481026    2.012901   -0.797177
     19          1           0       -0.309129    2.019175    1.056186
 ---------------------------------------------------------------------

 SCF Done:  E(RB3LYP) =  -423.182639342     A.U. after    1 cycles

 The electronic state is 1-A.
 Alpha  occ. eigenvalues --  -19.13932 -19.13846 -10.23212 -10.23210 -10.22511
 Alpha  occ. eigenvalues --  -10.22510 -10.18965 -10.18939 -10.18441  -1.05635
 Alpha  occ. eigenvalues --   -1.01362  -0.85542  -0.78002  -0.69325  -0.66775
 Alpha  occ. eigenvalues --   -0.61292  -0.57420  -0.54803  -0.51238  -0.49922
 Alpha  occ. eigenvalues --   -0.46960  -0.46862  -0.43287  -0.43269  -0.40189
 Alpha  occ. eigenvalues --   -0.39190  -0.36619  -0.35361  -0.34933  -0.31545
 Alpha  occ. eigenvalues --   -0.28932  -0.28269  -0.26453  -0.23499
 Alpha virt. eigenvalues --    0.09148   0.10975   0.11630   0.11750   0.13894
 Alpha virt. eigenvalues --    0.14211   0.14670   0.15938   0.16011   0.16681
 Alpha virt. eigenvalues --    0.17376   0.17769   0.19943   0.19979   0.23083

 Mulliken charges:
               1
     1  C   -0.326622
     2  C   -0.023997
     3  C   -0.023997
     4  C    0.047979
     5  C   -0.080734
     6  O   -0.255767
     7  C   -0.080734
     8  C    0.047980
     9  O   -0.279960
    10  H    0.124092
    11  H    0.109877
    12  H    0.090876
    13  H    0.090877
    14  H    0.080392
    15  H    0.094931
    16  H    0.104742
    17  H    0.094931
    18  H    0.104742
    19  H    0.080392
 Sum of Mulliken charges =   0.00000

 Dipole moment (field-independent basis, Debye):
    X=             -0.5736    Y=              0.0000    Z=             -0.5151  Tot=              0.7710
 Quadrupole moment (field-independent basis, Debye-Ang):
   XX=            -54.3955   YY=            -48.1843   ZZ=            -55.6884
   XY=              0.0000   XZ=              2.9683   YZ=              0.0000

  Exact polarizability:  78.619   0.000  77.085   2.313   0.000  64.401
 Approx polarizability: 104.142   0.000 115.058   0.278   0.000 103.195

                      1                      2                      3
                      A                      A                      A
 Frequencies --    231.7356               239.8607               327.7528
 Red. masses --      4.4295                 2.5390                 2.1397
 Frc consts  --      0.1401                 0.0861                 0.1354
 IR Inten    --      5.5470                 0.2324                 6.4779

                      4                      5                      6
                      A                      A                      A
 Frequencies --    332.0695               429.1109               458.5509
 Red. masses --      2.3137                 4.1866                 3.6290
 Frc consts  --      0.1503                 0.4542                 0.4496
 IR Inten    --      0.9559                 0.0376                 1.3739

                      7                      8                      9
                      A                      A                      A
 Frequencies --    527.9889               668.6961               741.6550
 Red. masses --      4.3868                 4.1525                 2.2278
 Frc consts  --      0.7205                 1.0940                 0.7220
 IR Inten    --      0.0113                18.8522                 1.9264

                     10                     11                     12
                      A                      A                      A
 Frequencies --    783.5110               818.8411               819.4683
 Red. masses --      3.2459                 3.3672                 1.4228
 Frc consts  --      1.1740                 1.3302                 0.5630
 IR Inten    --     17.7036                 0.5084                 1.4219

                     13                     14                     15
                      A                      A                      A
 Frequencies --    859.0532               879.2978               890.2233
 Red. masses --      2.7998                 2.4545                 2.6127
 Frc consts  --      1.2174                 1.1181                 1.2199
 IR Inten    --     15.7995                17.7703                27.4555

                     16                     17                     18
                      A                      A                      A
 Frequencies --    897.7447               980.5481              1005.9507
 Red. masses --      3.8438                 1.6646                 2.4839
 Frc consts  --      1.8252                 0.9429                 1.4809
 IR Inten    --     24.1082                 1.5957                25.3651

                     19                     20                     21
                      A                      A                      A
 Frequencies --   1010.5753              1027.7839              1056.9788
 Red. masses --      2.2446                 2.0237                 2.0223
 Frc consts  --      1.3506                 1.2595                 1.3312
 IR Inten    --      0.2370                 0.7179                 8.4133

                     22                     23                     24
                      A                      A                      A
 Frequencies --   1059.4711              1086.8669              1106.0497
 Red. masses --      2.3781                 1.4366                 1.3117
 Frc consts  --      1.5728                 0.9999                 0.9454
 IR Inten    --      4.5922                 0.6939                12.4833

                     25                     26                     27
                      A                      A                      A
 Frequencies --   1113.2809              1119.7877              1147.2223
 Red. masses --      1.9597                 1.7119                 5.2551
 Frc consts  --      1.4311                 1.2647                 4.0750
 IR Inten    --      0.9359                 3.0049                88.8859

                     28                     29                     30
                      A                      A                      A
 Frequencies --   1195.0355              1234.0081              1280.2029
 Red. masses --      1.7359                 1.1385                 1.3015
 Frc consts  --      1.4606                 1.0214                 1.2568
 IR Inten    --      0.7397                21.4310                 0.5702

                     31                     32                     33
                      A                      A                      A
 Frequencies --   1285.0725              1304.6801              1326.1364
 Red. masses --      1.2865                 1.2876                 1.5034
 Frc consts  --      1.2517                 1.2913                 1.5578
 IR Inten    --      3.4798                 1.5152                 0.7157

                     34                     35                     36
                      A                      A                      A
 Frequencies --   1347.1950              1352.8787              1376.4081
 Red. masses --      1.8054                 1.6676                 1.3307
 Frc consts  --      1.9306                 1.7983                 1.4853
 IR Inten    --      1.9879                11.7766                 0.2338

                     37                     38                     39
                      A                      A                      A
 Frequencies --   1384.1747              1417.6228              1475.1928
 Red. masses --      1.7343                 1.3874                 1.3135
 Frc consts  --      1.9577                 1.6427                 1.6841
 IR Inten    --      0.1760                 6.1378                 1.7175

                     40                     41                     42
                      A                      A                      A
 Frequencies --   1479.3010              1491.2005              2981.9593
 Red. masses --      1.0824                 1.1078                 1.0669
 Frc consts  --      1.3955                 1.4514                 5.5893
 IR Inten    --      0.1656                 4.0332                37.0497

                     43                     44                     45
                      A                      A                      A
 Frequencies --   2987.6481              3064.7464              3067.4422
 Red. masses --      1.0679                 1.0859                 1.0906
 Frc consts  --      5.6164                 6.0091                 6.0460
 IR Inten    --     76.7816                56.2093                33.5246

                     46                     47                     48
                      A                      A                      A
 Frequencies --   3075.5183              3077.5386              3134.9333
 Red. masses --      1.0941                 1.0955                 1.0535
 Frc consts  --      6.0972                 6.1129                 6.1003
 IR Inten    --     52.3043                13.7959                15.7554

                     49                     50                     51
                      A                      A                      A
 Frequencies --   3184.5855              3192.4282              3224.1912
 Red. masses --      1.0886                 1.0955                 1.1155
 Frc consts  --      6.5049                 6.5783                 6.8320
 IR Inten    --     11.1196                 6.5813                 7.7754

 - Thermochemistry -
 -------------------
 Temperature   298.150 Kelvin.  Pressure   1.00000 Atm.
 Atom     1 has atomic number  6 and mass  12.00000

 Molecular mass:   126.06808 amu.
 Principal axes and moments of inertia in atomic units:
                           1         2         3
     Eigenvalues --   597.99702 994.064981121.01979
           X            0.99968   0.00000   0.02529
           Y            0.00000   1.00000   0.00000
           Z           -0.02529   0.00000   0.99968
 This molecule is an asymmetric top.
 Rotational symmetry number  1.
 Warning -- assumption of classical behavior for rotation
           may cause significant error
 Rotational temperatures (Kelvin)      0.14484     0.08713     0.07726
 Rotational constants (GHZ):           3.01798     1.81552     1.60991
 Zero-point vibrational energy     428024.9 (Joules/Mol)
                                  102.30041 (Kcal/Mol)
 Warning -- explicit consideration of   7 degrees of freedom as
           vibrations may cause significant error
 Vibrational temperatures:    333.42   345.11   471.56   477.77   617.39
          (Kelvin)            659.75   759.66   962.10  1067.07  1127.30
                             1178.13  1179.03  1235.98  1265.11  1280.83
                             1291.65  1410.79  1447.34  1453.99  1478.75
                             1520.75  1524.34  1563.76  1591.36  1601.76
                             1611.12  1650.59  1719.39  1775.46  1841.92
                             1848.93  1877.14  1908.01  1938.31  1946.49
                             1980.34  1991.52  2039.64  2122.47  2128.38
                             2145.50  4290.37  4298.55  4409.48  4413.36
                             4424.98  4427.89  4510.46  4581.90  4593.19
                             4638.89

 Zero-point correction=                           0.163026 (Hartree/Particle)
 Thermal correction to Energy=                    0.169522
 Thermal correction to Enthalpy=                  0.170467
 Thermal correction to Gibbs Free Energy=         0.132570
 Sum of electronic and zero-point Energies=           -423.019613
 Sum of electronic and thermal Energies=              -423.013117
 Sum of electronic and thermal Enthalpies=            -423.012173
 Sum of electronic and thermal Free Energies=         -423.050070

                     E (Thermal)             CV                S
                      KCal/Mol        Cal/Mol-Kelvin    Cal/Mol-Kelvin
 Total                  106.377             27.629             79.761
 Electronic               0.000              0.000              0.000
 Translational            0.889              2.981             40.409
 Rotational               0.889              2.981             27.990
 Vibrational            104.599             21.667             11.362
 Vibration     1          0.653              1.792              1.865
 Vibration     2          0.657              1.779              1.804
 Vibration     3          0.711              1.620              1.271
 Vibration     4          0.714              1.611              1.250
 Vibration     5          0.790              1.407              0.862
 Vibration     6          0.817              1.342              0.770
 Vibration     7          0.883              1.188              0.592

 Optimization completed.
    -- Stationary point found.
 Normal termination of Gaussian 09 at Mon Jan 27 12:10:36 2020.
