 Gaussian 09, Revision D.01,
 Gaussian 09:  ES64L-G09RevD.01 24-Apr-2013

 -----------------------------
 # b3lyp 6-31G(2df,p) opt Freq
 -----------------------------

 -----
 titel
 -----
 Symbolic Z-matrix:
 Charge =  0 Multiplicity = 1

 SCF Done:  E(RB3LYP) =  -423.205051008     A.U. after   14 cycles
 Optimization completed.
    -- Stationary point found.
 Normal termination of Gaussian 09 at Mon Jan 27 18:39:48 2020.

 ----------------------------------------------------------------------
 #N Geom=AllCheck Guess=TCheck SCRF=Check GenChk RB3LYP/6-31G(2df,p) Fr
 eq
 ----------------------------------------------------------------------

 Structure from the checkpoint file:  "/scratch/puck/g09_8894b6d5-7761-40c2-8462-26b6d3f402aa/Gau-18767.chk"
 -----
 titel
 -----
 Charge =  0 Multiplicity = 1

                         Standard orientation:
 ---------------------------------------------------------------------
 Center     Atomic      Atomic             Coordinates (Angstroms)
 Number     Number       Type             X           Y           Z
 ---------------------------------------------------------------------
      1          6           0        2.363416    0.166641   -0.294826
      2          6           0        0.872837    0.135983   -0.011035
      3          6           0        0.452193   -0.908888    1.074055
      4          8           0       -0.665504   -1.594727    0.508498
      5          6           0       -1.035587   -0.804487   -0.617081
      6          8           0        0.188308   -0.375771   -1.168009
      7          6           0       -1.857651    0.393194   -0.176525
      8          6           0       -1.223428    1.481419    0.254624
      9          6           0        0.285616    1.527466    0.299762
     10          1           0        2.915319    0.511448    0.585680
     11          1           0        2.719605   -0.831982   -0.561619
     12          1           0        2.583667    0.845635   -1.123546
     13          1           0        1.242325   -1.641788    1.265642
     14          1           0        0.178298   -0.426102    2.019884
     15          1           0       -1.548973   -1.445950   -1.336479
     16          1           0       -2.939477    0.314204   -0.192412
     17          1           0       -1.769738    2.362566    0.580394
     18          1           0        0.664811    2.263783   -0.422699
     19          1           0        0.627354    1.864201    1.287395
 ---------------------------------------------------------------------

 SCF Done:  E(RB3LYP) =  -423.205051008     A.U. after    1 cycles

 The electronic state is 1-A.
 Alpha  occ. eigenvalues --  -19.14088 -19.13754 -10.27403 -10.24326 -10.22598
 Alpha  occ. eigenvalues --  -10.19086 -10.18990 -10.18122 -10.17997  -1.08573
 Alpha  occ. eigenvalues --   -0.98688  -0.80953  -0.79148  -0.70223  -0.67698
 Alpha  occ. eigenvalues --   -0.63080  -0.58843  -0.53768  -0.51774  -0.47080
 Alpha  occ. eigenvalues --   -0.46084  -0.45760  -0.42857  -0.42033  -0.40547
 Alpha  occ. eigenvalues --   -0.39530  -0.38916  -0.36986  -0.35170  -0.32946
 Alpha  occ. eigenvalues --   -0.31709  -0.27844  -0.25566  -0.24095
 Alpha virt. eigenvalues --    0.00884   0.08407   0.11073   0.11809   0.12700
 Alpha virt. eigenvalues --    0.13755   0.14702   0.15859   0.16450   0.17073
 Alpha virt. eigenvalues --    0.18161   0.19668   0.20085   0.20594   0.22778

 Mulliken charges:
               1
     1  C   -0.467286
     2  C    0.338619
     3  C   -0.127405
     4  O   -0.261697
     5  C    0.130091
     6  O   -0.271580
     7  C   -0.056787
     8  C   -0.080029
     9  C   -0.287390
    10  H    0.118473
    11  H    0.129020
    12  H    0.127744
    13  H    0.106370
    14  H    0.100537
    15  H    0.090091
    16  H    0.095824
    17  H    0.096056
    18  H    0.111885
    19  H    0.107465
 Sum of Mulliken charges =   0.00000

 Dipole moment (field-independent basis, Debye):
    X=              0.5726    Y=              1.5715    Z=              0.8170  Tot=              1.8615
 Quadrupole moment (field-independent basis, Debye-Ang):
   XX=            -49.3946   YY=            -54.0475   ZZ=            -54.6034
   XY=             -0.6086   XZ=              2.5065   YZ=              1.7448

  Exact polarizability:  83.819   2.621  77.030   4.010   4.308  62.097
 Approx polarizability: 113.412  11.566 119.508   7.664   9.082  99.124

                      1                      2                      3
                      A                      A                      A
 Frequencies --    149.3893               219.4013               267.3342
 Red. masses --      2.5325                 1.0795                 2.1667
 Frc consts  --      0.0333                 0.0306                 0.0912
 IR Inten    --      2.0559                 0.1050                 0.7075

                      4                      5                      6
                      A                      A                      A
 Frequencies --    292.4359               328.8136               389.1107
 Red. masses --      4.0040                 2.4121                 2.2244
 Frc consts  --      0.2017                 0.1537                 0.1984
 IR Inten    --      1.6849                 1.3662                 0.7398

                      7                      8                      9
                      A                      A                      A
 Frequencies --    487.5577               494.1677               535.0738
 Red. masses --      4.5866                 2.2733                 5.3338
 Frc consts  --      0.6424                 0.3271                 0.8997
 IR Inten    --      6.8441                 1.1102                 3.4360

                     10                     11                     12
                      A                      A                      A
 Frequencies --    617.6196               704.3224               732.3874
 Red. masses --      4.2592                 2.5229                 2.4759
 Frc consts  --      0.9572                 0.7374                 0.7825
 IR Inten    --      3.6737                 9.0703                13.1391

                     13                     14                     15
                      A                      A                      A
 Frequencies --    821.3857               864.9697               876.2118
 Red. masses --      4.2913                 2.5970                 3.1264
 Frc consts  --      1.7058                 1.1448                 1.4142
 IR Inten    --      8.4464                 4.8411                 7.7998

                     16                     17                     18
                      A                      A                      A
 Frequencies --    898.6970               940.2093               953.8488
 Red. masses --      3.0891                 4.1831                 1.8469
 Frc consts  --      1.4700                 2.1787                 0.9900
 IR Inten    --      7.9293                82.3411                11.0165

                     19                     20                     21
                      A                      A                      A
 Frequencies --    961.1119               986.2378               987.9318
 Red. masses --      2.0345                 1.6114                 1.4766
 Frc consts  --      1.1073                 0.9235                 0.8491
 IR Inten    --     23.9764                 2.2259                 3.8788

                     22                     23                     24
                      A                      A                      A
 Frequencies --   1018.7987              1027.3602              1093.8107
 Red. masses --      1.6961                 6.3311                 2.7022
 Frc consts  --      1.0372                 3.9371                 1.9048
 IR Inten    --     13.5748                36.9800               100.2318

                     25                     26                     27
                      A                      A                      A
 Frequencies --   1133.9124              1190.8990              1194.1939
 Red. masses --      1.7097                 1.2825                 1.4897
 Frc consts  --      1.2952                 1.0717                 1.2517
 IR Inten    --      6.9442                10.6029                 6.9567

                     28                     29                     30
                      A                      A                      A
 Frequencies --   1210.0000              1256.1645              1262.7876
 Red. masses --      2.1777                 1.6544                 1.6090
 Frc consts  --      1.8786                 1.5381                 1.5117
 IR Inten    --      8.2172                 8.9098                 4.4285

                     31                     32                     33
                      A                      A                      A
 Frequencies --   1316.6906              1355.8759              1365.2907
 Red. masses --      1.2947                 1.5519                 1.3880
 Frc consts  --      1.3225                 1.6810                 1.5244
 IR Inten    --      7.6709                 2.0090                15.1819

                     34                     35                     36
                      A                      A                      A
 Frequencies --   1386.1889              1401.6855              1411.9215
 Red. masses --      1.5523                 1.5991                 1.3583
 Frc consts  --      1.7574                 1.8511                 1.5954
 IR Inten    --      0.0602                10.4951                11.2923

                     37                     38                     39
                      A                      A                      A
 Frequencies --   1466.1092              1484.4580              1497.0491
 Red. masses --      1.0976                 1.0544                 1.0515
 Frc consts  --      1.3901                 1.3690                 1.3885
 IR Inten    --      3.3074                 3.4808                 3.9754

                     40                     41                     42
                      A                      A                      A
 Frequencies --   1518.1969              1709.6963              3009.3777
 Red. masses --      1.0896                 6.4502                 1.0607
 Frc consts  --      1.4798                11.1086                 5.6599
 IR Inten    --      0.6337                 6.4686                25.9297

                     43                     44                     45
                      A                      A                      A
 Frequencies --   3025.0994              3040.7651              3043.4765
 Red. masses --      1.0610                 1.0471                 1.0852
 Frc consts  --      5.7204                 5.7043                 5.9223
 IR Inten    --     31.8285                14.4519                31.0690

                     46                     47                     48
                      A                      A                      A
 Frequencies --   3075.1494              3100.3489              3112.6440
 Red. masses --      1.1062                 1.0898                 1.1009
 Frc consts  --      6.1635                 6.1720                 6.2842
 IR Inten    --     32.9758                38.6192                17.2442

                     49                     50                     51
                      A                      A                      A
 Frequencies --   3122.3513              3158.6107              3191.9055
 Red. masses --      1.1025                 1.0862                 1.0977
 Frc consts  --      6.3326                 6.3848                 6.5892
 IR Inten    --     18.0756                12.6549                20.9789

 - Thermochemistry -
 -------------------
 Temperature   298.150 Kelvin.  Pressure   1.00000 Atm.
 Atom     1 has atomic number  6 and mass  12.00000

 Molecular mass:   126.06808 amu.
 Principal axes and moments of inertia in atomic units:
                           1         2         3
     Eigenvalues --   705.64936 921.553281204.01429
           X            0.99987  -0.01274   0.00998
           Y            0.01254   0.99972   0.02030
           Z           -0.01024  -0.02017   0.99974
 This molecule is an asymmetric top.
 Rotational symmetry number  1.
 Warning -- assumption of classical behavior for rotation
           may cause significant error
 Rotational temperatures (Kelvin)      0.12274     0.09399     0.07194
 Rotational constants (GHZ):           2.55756     1.95837     1.49894
 Zero-point vibrational energy     422814.3 (Joules/Mol)
                                  101.05505 (Kcal/Mol)
 Warning -- explicit consideration of  10 degrees of freedom as
           vibrations may cause significant error
 Vibrational temperatures:    214.94   315.67   384.63   420.75   473.09
          (Kelvin)            559.84   701.49   711.00   769.85   888.62
                             1013.36  1053.74  1181.79  1244.50  1260.67
                             1293.02  1352.75  1372.37  1382.82  1418.97
                             1421.41  1465.82  1478.14  1573.75  1631.44
                             1713.44  1718.18  1740.92  1807.34  1816.87
                             1894.42  1950.80  1964.35  1994.41  2016.71
                             2031.44  2109.40  2135.80  2153.92  2184.34
                             2459.87  4329.82  4352.44  4374.98  4378.88
                             4424.45  4460.71  4478.39  4492.36  4544.53
                             4592.43

 Zero-point correction=                           0.161041 (Hartree/Particle)
 Thermal correction to Energy=                    0.168393
 Thermal correction to Enthalpy=                  0.169337
 Thermal correction to Gibbs Free Energy=         0.129752
 Sum of electronic and zero-point Energies=           -423.044010
 Sum of electronic and thermal Energies=              -423.036658
 Sum of electronic and thermal Enthalpies=            -423.035714
 Sum of electronic and thermal Free Energies=         -423.075299

                     E (Thermal)             CV                S
                      KCal/Mol        Cal/Mol-Kelvin    Cal/Mol-Kelvin
 Total                  105.668             30.035             83.313
 Electronic               0.000              0.000              0.000
 Translational            0.889              2.981             40.409
 Rotational               0.889              2.981             28.151
 Vibrational            103.891             24.073             14.754
 Vibration     1          0.618              1.903              2.680
 Vibration     2          0.647              1.812              1.964
 Vibration     3          0.672              1.733              1.613
 Vibration     4          0.688              1.688              1.460
 Vibration     5          0.712              1.618              1.266
 Vibration     6          0.757              1.493              1.004
 Vibration     7          0.844              1.278              0.690
 Vibration     8          0.850              1.263              0.673
 Vibration     9          0.890              1.172              0.576
 Vibration    10          0.977              0.995              0.420

 Optimization completed.
    -- Stationary point found.
 Normal termination of Gaussian 09 at Mon Jan 27 20:25:48 2020.
