 Gaussian 09, Revision D.01,
 Gaussian 09:  ES64L-G09RevD.01 24-Apr-2013

 -----------------------------
 # b3lyp 6-31G(2df,p) opt Freq
 -----------------------------

 -----
 titel
 -----
 Symbolic Z-matrix:
 Charge =  0 Multiplicity = 1

 SCF Done:  E(RB3LYP) =  -423.153613720     A.U. after   14 cycles
 Optimization completed.
    -- Stationary point found.
 Normal termination of Gaussian 09 at Mon Jan 27 22:58:20 2020.

 ----------------------------------------------------------------------
 #N Geom=AllCheck Guess=TCheck SCRF=Check GenChk RB3LYP/6-31G(2df,p) Fr
 eq
 ----------------------------------------------------------------------

 Structure from the checkpoint file:  "/scratch/puck/g09_b7841999-d0f9-4d61-a329-def9e1c29406/Gau-65328.chk"
 -----
 titel
 -----
 Charge =  0 Multiplicity = 1

                         Standard orientation:
 ---------------------------------------------------------------------
 Center     Atomic      Atomic             Coordinates (Angstroms)
 Number     Number       Type             X           Y           Z
 ---------------------------------------------------------------------
      1          6           0       -2.619582    0.248687   -0.404813
      2          6           0       -1.271318   -0.294793   -0.082358
      3          6           0       -0.811981   -1.548623    0.035443
      4          6           0        0.661882   -1.322140    0.324318
      5          8           0        0.635102   -0.204773    1.283332
      6          6           0        0.006159    0.523750    0.156764
      7          6           0       -0.006623    2.017521    0.293863
      8          6           0        1.029634   -0.258930   -0.770205
      9          8           0        2.333006    0.222873   -0.748783
     10          1           0       -2.996915    0.891890    0.399914
     11          1           0       -2.597786    0.865367   -1.312412
     12          1           0       -3.343267   -0.555505   -0.563082
     13          1           0       -1.321445   -2.493721   -0.086080
     14          1           0        1.317904   -2.144438    0.606573
     15          1           0       -0.474022    2.314626    1.237867
     16          1           0        1.013267    2.411496    0.270610
     17          1           0       -0.566853    2.475488   -0.527378
     18          1           0        0.749703   -0.456845   -1.806917
     19          1           0        2.545522    0.354014    0.186440
 ---------------------------------------------------------------------

 SCF Done:  E(RB3LYP) =  -423.153613720     A.U. after    1 cycles

 The electronic state is 1-A.
 Alpha  occ. eigenvalues --  -19.14246 -19.13224 -10.24025 -10.23776 -10.23523
 Alpha  occ. eigenvalues --  -10.19130 -10.19073 -10.18254 -10.17846  -1.05875
 Alpha  occ. eigenvalues --   -1.01141  -0.81626  -0.75521  -0.73108  -0.67108
 Alpha  occ. eigenvalues --   -0.64259  -0.57050  -0.52556  -0.49811  -0.48466
 Alpha  occ. eigenvalues --   -0.45548  -0.44508  -0.42909  -0.41576  -0.40413
 Alpha  occ. eigenvalues --   -0.38849  -0.38063  -0.36176  -0.35330  -0.34441
 Alpha  occ. eigenvalues --   -0.32907  -0.25828  -0.25138  -0.23371
 Alpha virt. eigenvalues --    0.00767   0.08659   0.09993   0.10753   0.12978
 Alpha virt. eigenvalues --    0.13989   0.14545   0.14698   0.15689   0.16139
 Alpha virt. eigenvalues --    0.16405   0.17590   0.18766   0.21914   0.23656

 Mulliken charges:
               1
     1  C   -0.516676
     2  C    0.322610
     3  C   -0.206628
     4  C   -0.042321
     5  O   -0.347758
     6  C    0.253645
     7  C   -0.517484
     8  C    0.160616
     9  O   -0.447520
    10  H    0.134156
    11  H    0.130628
    12  H    0.129904
    13  H    0.106697
    14  H    0.080332
    15  H    0.134442
    16  H    0.128360
    17  H    0.124269
    18  H    0.087098
    19  H    0.285627
 Sum of Mulliken charges =   0.00000

 Dipole moment (field-independent basis, Debye):
    X=             -1.5615    Y=              0.0125    Z=             -0.5388  Tot=              1.6519
 Quadrupole moment (field-independent basis, Debye-Ang):
   XX=            -52.9957   YY=            -49.1590   ZZ=            -56.7573
   XY=             -0.9492   XZ=              3.4038   YZ=              0.9246

  Exact polarizability:  85.910  -2.761  83.858   2.486  -0.448  59.653
 Approx polarizability: 119.865  -6.965 128.638   3.253  -2.159  97.893

                      1                      2                      3
                      A                      A                      A
 Frequencies --    142.3775               166.4956               177.5442
 Red. masses --      2.7541                 1.0493                 1.1071
 Frc consts  --      0.0329                 0.0171                 0.0206
 IR Inten    --      1.3543                 0.2140                 0.4527

                      4                      5                      6
                      A                      A                      A
 Frequencies --    224.2193               235.7321               302.1827
 Red. masses --      2.4683                 3.5430                 4.1462
 Frc consts  --      0.0731                 0.1160                 0.2231
 IR Inten    --      0.8813                 0.5824                 9.8117

                      7                      8                      9
                      A                      A                      A
 Frequencies --    341.3437               435.0297               506.9611
 Red. masses --      2.6034                 2.9751                 3.8792
 Frc consts  --      0.1787                 0.3317                 0.5874
 IR Inten    --      3.5200                 1.2073                 2.3966

                     10                     11                     12
                      A                      A                      A
 Frequencies --    542.3006               574.6851               595.5498
 Red. masses --      2.9565                 1.7758                 1.9698
 Frc consts  --      0.5123                 0.3455                 0.4116
 IR Inten    --      1.9664                38.8137                49.8861

                     13                     14                     15
                      A                      A                      A
 Frequencies --    658.7909               695.9533               777.1416
 Red. masses --      3.8343                 4.4851                 1.9134
 Frc consts  --      0.9805                 1.2799                 0.6808
 IR Inten    --      1.2866                 4.1355                 9.0262

                     16                     17                     18
                      A                      A                      A
 Frequencies --    790.7164               819.3123               859.8098
 Red. masses --      2.0540                 2.7794                 2.9819
 Frc consts  --      0.7566                 1.0993                 1.2988
 IR Inten    --      5.8241                22.2483                19.3735

                     19                     20                     21
                      A                      A                      A
 Frequencies --    909.6643               929.8824               951.4033
 Red. masses --      4.4280                 2.4445                 2.4207
 Frc consts  --      2.1588                 1.2454                 1.2910
 IR Inten    --     44.1912                13.7402                 9.1447

                     22                     23                     24
                      A                      A                      A
 Frequencies --   1009.5143              1058.1921              1098.5240
 Red. masses --      1.4889                 1.5246                 1.8267
 Frc consts  --      0.8940                 1.0059                 1.2988
 IR Inten    --      2.7723                 5.7994                 4.8876

                     25                     26                     27
                      A                      A                      A
 Frequencies --   1117.1395              1127.2711              1167.0967
 Red. masses --      2.5827                 2.3388                 1.9375
 Frc consts  --      1.8991                 1.7511                 1.5549
 IR Inten    --     98.5012                46.6411                16.3239

                     28                     29                     30
                      A                      A                      A
 Frequencies --   1192.5770              1208.1178              1258.5018
 Red. masses --      1.5058                 1.8076                 1.5517
 Frc consts  --      1.2618                 1.5545                 1.4480
 IR Inten    --      7.0328                42.5153                 3.4030

                     31                     32                     33
                      A                      A                      A
 Frequencies --   1279.0160              1300.8577              1334.5650
 Red. masses --      1.6244                 1.8311                 3.1280
 Frc consts  --      1.5657                 1.8257                 3.2824
 IR Inten    --      1.1380                 7.0342                 6.3797

                     34                     35                     36
                      A                      A                      A
 Frequencies --   1409.8729              1415.9981              1432.5708
 Red. masses --      1.3772                 1.3685                 1.3318
 Frc consts  --      1.6129                 1.6166                 1.6104
 IR Inten    --      7.8567                 4.9027               108.8047

                     37                     38                     39
                      A                      A                      A
 Frequencies --   1475.0831              1476.9034              1488.6409
 Red. masses --      1.0503                 1.0486                 1.0583
 Frc consts  --      1.3464                 1.3477                 1.3818
 IR Inten    --      9.3793                 4.4155                 4.5651

                     40                     41                     42
                      A                      A                      A
 Frequencies --   1490.6542              1676.9229              3017.8029
 Red. masses --      1.0478                 7.2236                 1.0381
 Frc consts  --      1.3717                11.9683                 5.5700
 IR Inten    --      8.2900                 5.5059                24.0248

                     43                     44                     45
                      A                      A                      A
 Frequencies --   3040.4919              3063.6906              3103.1971
 Red. masses --      1.0350                 1.0984                 1.0880
 Frc consts  --      5.6375                 6.0743                 6.1733
 IR Inten    --     16.0286                14.3947                32.8890

                     46                     47                     48
                      A                      A                      A
 Frequencies --   3109.7991              3111.9651              3116.5318
 Red. masses --      1.0990                 1.1008                 1.1013
 Frc consts  --      6.2618                 6.2807                 6.3024
 IR Inten    --     21.8890                12.2696                10.3735

                     49                     50                     51
                      A                      A                      A
 Frequencies --   3136.4333              3235.1180              3745.8094
 Red. masses --      1.0919                 1.0984                 1.0639
 Frc consts  --      6.3285                 6.7735                 8.7950
 IR Inten    --     37.9841                 5.9519                25.7469

 - Thermochemistry -
 -------------------
 Temperature   298.150 Kelvin.  Pressure   1.00000 Atm.
 Atom     1 has atomic number  6 and mass  12.00000

 Molecular mass:   126.06808 amu.
 Principal axes and moments of inertia in atomic units:
                           1         2         3
     Eigenvalues --   682.585901125.257641416.63146
           X            0.99963  -0.01863   0.01998
           Y            0.01828   0.99968   0.01772
           Z           -0.02031  -0.01735   0.99964
 This molecule is an asymmetric top.
 Rotational symmetry number  1.
 Warning -- assumption of classical behavior for rotation
           may cause significant error
 Rotational temperatures (Kelvin)      0.12689     0.07697     0.06114
 Rotational constants (GHZ):           2.64398     1.60385     1.27397
 Zero-point vibrational energy     414721.1 (Joules/Mol)
                                   99.12072 (Kcal/Mol)
 Warning -- explicit consideration of  12 degrees of freedom as
           vibrations may cause significant error
 Vibrational temperatures:    204.85   239.55   255.45   322.60   339.17
          (Kelvin)            434.77   491.12   625.91   729.40   780.25
                              826.84   856.86   947.85  1001.32  1118.13
                             1137.66  1178.81  1237.07  1308.80  1337.89
                             1368.86  1452.46  1522.50  1580.53  1607.31
                             1621.89  1679.19  1715.85  1738.21  1810.70
                             1840.22  1871.64  1920.14  2028.49  2037.30
                             2061.15  2122.31  2124.93  2141.82  2144.72
                             2412.72  4341.94  4374.58  4407.96  4464.80
                             4474.30  4477.42  4483.99  4512.62  4654.61
                             5389.38

 Zero-point correction=                           0.157959 (Hartree/Particle)
 Thermal correction to Energy=                    0.166477
 Thermal correction to Enthalpy=                  0.167421
 Thermal correction to Gibbs Free Energy=         0.125428
 Sum of electronic and zero-point Energies=           -422.995655
 Sum of electronic and thermal Energies=              -422.987137
 Sum of electronic and thermal Enthalpies=            -422.986193
 Sum of electronic and thermal Free Energies=         -423.028186

                     E (Thermal)             CV                S
                      KCal/Mol        Cal/Mol-Kelvin    Cal/Mol-Kelvin
 Total                  104.466             33.441             88.382
 Electronic               0.000              0.000              0.000
 Translational            0.889              2.981             40.409
 Rotational               0.889              2.981             28.478
 Vibrational            102.688             27.480             19.496
 Vibration     1          0.616              1.911              2.772
 Vibration     2          0.624              1.884              2.475
 Vibration     3          0.628              1.870              2.354
 Vibration     4          0.649              1.804              1.925
 Vibration     5          0.655              1.786              1.835
 Vibration     6          0.694              1.670              1.405
 Vibration     7          0.721              1.593              1.206
 Vibration     8          0.796              1.394              0.842
 Vibration     9          0.862              1.235              0.641
 Vibration    10          0.897              1.157              0.560
 Vibration    11          0.931              1.086              0.495
 Vibration    12          0.953              1.041              0.457

 Normal termination of Gaussian 09 at Mon Jan 27 23:43:07 2020.
