 Gaussian 09, Revision D.01,
 Gaussian 09:  ES64L-G09RevD.01 24-Apr-2013

 -----------------------------
 # b3lyp 6-31G(2df,p) opt Freq
 -----------------------------

 -----
 titel
 -----
 Symbolic Z-matrix:
 Charge =  0 Multiplicity = 1

 SCF Done:  E(RB3LYP) =  -423.136156451     A.U. after   14 cycles
 Optimization completed.
    -- Stationary point found.
 Normal termination of Gaussian 09 at Tue Jan 28 01:53:49 2020.

 ----------------------------------------------------------------------
 #N Geom=AllCheck Guess=TCheck SCRF=Check GenChk RB3LYP/6-31G(2df,p) Fr
 eq
 ----------------------------------------------------------------------

 Structure from the checkpoint file:  "/scratch/puck/g09_41595d8c-1ff3-4115-b19b-bb8fe5889a35/Gau-38012.chk"
 -----
 titel
 -----
 Charge =  0 Multiplicity = 1

                         Standard orientation:
 ---------------------------------------------------------------------
 Center     Atomic      Atomic             Coordinates (Angstroms)
 Number     Number       Type             X           Y           Z
 ---------------------------------------------------------------------
      1          8           0       -2.170362    1.147513   -0.186531
      2          6           0       -1.631999    0.084858    0.549688
      3          6           0       -1.555140   -1.303690   -0.073547
      4          6           0       -0.337094   -0.447587    0.065865
      5          6           0        0.604759    0.027635   -1.040464
      6          6           0        1.257372    1.284605   -0.425896
      7          6           0        1.590545    0.670371    0.975664
      8          6           0        1.017691   -0.740494    0.713488
      9          8           0        1.532925   -1.030475   -0.625456
     10          1           0       -3.128881    1.053743   -0.191202
     11          1           0       -1.798646    0.137741    1.627041
     12          1           0       -1.678544   -2.166230    0.574457
     13          1           0       -1.971808   -1.417198   -1.069762
     14          1           0        0.346998    0.012786   -2.098495
     15          1           0        2.150424    1.582379   -0.979000
     16          1           0        0.564604    2.127476   -0.378116
     17          1           0        2.662899    0.631244    1.177668
     18          1           0        1.093951    1.183356    1.803654
     19          1           0        1.181700   -1.535794    1.440858
 ---------------------------------------------------------------------

 SCF Done:  E(RB3LYP) =  -423.136156451     A.U. after    1 cycles

 The electronic state is 1-A.
 Alpha  occ. eigenvalues --  -19.14761 -19.12542 -10.23675 -10.23327 -10.23160
 Alpha  occ. eigenvalues --  -10.19447 -10.18577 -10.17865 -10.17575  -1.04207
 Alpha  occ. eigenvalues --   -1.02979  -0.84821  -0.77654  -0.70187  -0.65669
 Alpha  occ. eigenvalues --   -0.60983  -0.56830  -0.52786  -0.52026  -0.51639
 Alpha  occ. eigenvalues --   -0.47617  -0.43884  -0.43770  -0.41117  -0.38593
 Alpha  occ. eigenvalues --   -0.35247  -0.35134  -0.34403  -0.34177  -0.32838
 Alpha  occ. eigenvalues --   -0.30223  -0.27564  -0.26569  -0.23763
 Alpha virt. eigenvalues --    0.06988   0.09656   0.10804   0.11185   0.11674
 Alpha virt. eigenvalues --    0.12726   0.14812   0.15945   0.16635   0.16819
 Alpha virt. eigenvalues --    0.17242   0.19110   0.20385   0.21927   0.22723

 Mulliken charges:
               1
     1  O   -0.424003
     2  C   -0.009899
     3  C   -0.426564
     4  C    0.437431
     5  C    0.000960
     6  C   -0.219076
     7  C   -0.218077
     8  C   -0.027820
     9  O   -0.303813
    10  H    0.289513
    11  H    0.085172
    12  H    0.113388
    13  H    0.118008
    14  H    0.081434
    15  H    0.102936
    16  H    0.117810
    17  H    0.105371
    18  H    0.099342
    19  H    0.077886
 Sum of Mulliken charges =   0.00000

 Dipole moment (field-independent basis, Debye):
    X=             -2.0804    Y=              0.2459    Z=              1.1310  Tot=              2.3807
 Quadrupole moment (field-independent basis, Debye-Ang):
   XX=            -48.8822   YY=            -55.8230   ZZ=            -50.7307
   XY=              2.7736   XZ=              1.3826   YZ=             -1.9230

  Exact polarizability:  82.462   3.517  72.534   1.844  -1.827  69.819
 Approx polarizability: 111.528  -1.258 108.247   0.504  -1.284 105.961

                      1                      2                      3
                      A                      A                      A
 Frequencies --    126.2415               141.7471               216.1866
 Red. masses --      4.4089                 3.5602                 2.7083
 Frc consts  --      0.0414                 0.0421                 0.0746
 IR Inten    --      3.3099                 0.3287                 2.4759

                      4                      5                      6
                      A                      A                      A
 Frequencies --    292.0171               309.6642               413.8500
 Red. masses --      1.9961                 1.1565                 2.9035
 Frc consts  --      0.1003                 0.0653                 0.2930
 IR Inten    --      0.2586                96.7726                 8.9706

                      7                      8                      9
                      A                      A                      A
 Frequencies --    434.0966               444.1614               589.1671
 Red. masses --      2.9217                 3.0874                 3.5354
 Frc consts  --      0.3244                 0.3589                 0.7231
 IR Inten    --      0.8345                10.2228                 4.7711

                     10                     11                     12
                      A                      A                      A
 Frequencies --    637.1836               749.1022               813.9636
 Red. masses --      3.6970                 5.4587                 1.8774
 Frc consts  --      0.8844                 1.8048                 0.7329
 IR Inten    --      9.0401                 0.9565                 4.2228

                     13                     14                     15
                      A                      A                      A
 Frequencies --    835.2706               847.4417               870.3153
 Red. masses --      1.7756                 2.1305                 2.5861
 Frc consts  --      0.7299                 0.9015                 1.1541
 IR Inten    --      8.9756                23.0591                34.8678

                     16                     17                     18
                      A                      A                      A
 Frequencies --    875.3978               918.4843               946.3961
 Red. masses --      2.4218                 2.8390                 2.2687
 Frc consts  --      1.0935                 1.4111                 1.1972
 IR Inten    --      5.5646                 2.5196                 7.4902

                     19                     20                     21
                      A                      A                      A
 Frequencies --    949.7667               982.3901               990.1651
 Red. masses --      1.9482                 3.5724                 2.5718
 Frc consts  --      1.0354                 2.0313                 1.4856
 IR Inten    --     14.6765                 3.6656                 4.9878

                     22                     23                     24
                      A                      A                      A
 Frequencies --   1016.2998              1036.3944              1052.6271
 Red. masses --      1.6819                 1.3156                 2.2681
 Frc consts  --      1.0235                 0.8326                 1.4807
 IR Inten    --      2.5185                 2.7937                 6.1308

                     25                     26                     27
                      A                      A                      A
 Frequencies --   1095.5185              1128.6561              1162.8062
 Red. masses --      1.7209                 1.2929                 2.5742
 Frc consts  --      1.2169                 0.9703                 2.0507
 IR Inten    --     26.2752                 3.6299                44.3793

                     28                     29                     30
                      A                      A                      A
 Frequencies --   1191.4996              1197.3778              1217.2825
 Red. masses --      1.3979                 2.1153                 1.6688
 Frc consts  --      1.1693                 1.7868                 1.4569
 IR Inten    --      0.7769                 8.2840                18.1408

                     31                     32                     33
                      A                      A                      A
 Frequencies --   1236.9476              1251.7728              1275.7307
 Red. masses --      1.3644                 1.2600                 1.5847
 Frc consts  --      1.2300                 1.1633                 1.5196
 IR Inten    --      0.1039                 1.3036                15.3447

                     34                     35                     36
                      A                      A                      A
 Frequencies --   1292.8789              1304.3700              1318.4249
 Red. masses --      1.3070                 1.4932                 1.4271
 Frc consts  --      1.2872                 1.4968                 1.4616
 IR Inten    --     47.8802                27.5638                 1.0498

                     37                     38                     39
                      A                      A                      A
 Frequencies --   1379.1162              1438.2502              1478.6720
 Red. masses --      1.5948                 1.2374                 1.0863
 Frc consts  --      1.7872                 1.5081                 1.3994
 IR Inten    --      0.5151                 5.1557                 0.3417

                     40                     41                     42
                      A                      A                      A
 Frequencies --   1497.7554              1519.0760              3064.7677
 Red. masses --      1.1208                 3.0626                 1.0587
 Frc consts  --      1.4813                 4.1640                 5.8589
 IR Inten    --      3.3704                 8.2041                24.2781

                     43                     44                     45
                      A                      A                      A
 Frequencies --   3076.2873              3083.1532              3112.6326
 Red. masses --      1.0594                 1.0866                 1.1067
 Frc consts  --      5.9070                 6.0857                 6.3174
 IR Inten    --     29.4042                32.3735                 4.7084

                     46                     47                     48
                      A                      A                      A
 Frequencies --   3119.3871              3122.0559              3131.5692
 Red. masses --      1.0542                 1.0907                 1.1066
 Frc consts  --      6.0440                 6.2636                 6.3941
 IR Inten    --     13.3350                51.2568                31.0693

                     49                     50                     51
                      A                      A                      A
 Frequencies --   3135.0006              3207.6858              3802.1797
 Red. masses --      1.0930                 1.1167                 1.0663
 Frc consts  --      6.3294                 6.7695                 9.0821
 IR Inten    --     28.3879                 8.1639                22.0403

 - Thermochemistry -
 -------------------
 Temperature   298.150 Kelvin.  Pressure   1.00000 Atm.
 Atom     1 has atomic number  8 and mass  15.99491

 Molecular mass:   126.06808 amu.
 Principal axes and moments of inertia in atomic units:
                           1         2         3
     Eigenvalues --   611.088301201.011441385.90514
           X            0.99858   0.05225   0.01080
           Y           -0.05197   0.99834  -0.02474
           Z           -0.01207   0.02414   0.99964
 This molecule is an asymmetric top.
 Rotational symmetry number  1.
 Warning -- assumption of classical behavior for rotation
           may cause significant error
 Rotational temperatures (Kelvin)      0.14174     0.07212     0.06250
 Rotational constants (GHZ):           2.95332     1.50268     1.30221
 Zero-point vibrational energy     420661.9 (Joules/Mol)
                                  100.54062 (Kcal/Mol)
 Warning -- explicit consideration of   9 degrees of freedom as
           vibrations may cause significant error
 Vibrational temperatures:    181.63   203.94   311.04   420.15   445.54
          (Kelvin)            595.44   624.57   639.05   847.68   916.76
                             1077.79  1171.11  1201.77  1219.28  1252.19
                             1259.50  1321.49  1361.65  1366.50  1413.44
                             1424.62  1462.23  1491.14  1514.49  1576.20
                             1623.88  1673.02  1714.30  1722.76  1751.40
                             1779.69  1801.02  1835.49  1860.16  1876.70
                             1896.92  1984.24  2069.32  2127.48  2154.93
                             2185.61  4409.51  4426.09  4435.96  4478.38
                             4488.10  4491.94  4505.62  4510.56  4615.14
                             5470.48

 Zero-point correction=                           0.160222 (Hartree/Particle)
 Thermal correction to Energy=                    0.167878
 Thermal correction to Enthalpy=                  0.168823
 Thermal correction to Gibbs Free Energy=         0.128292
 Sum of electronic and zero-point Energies=           -422.975935
 Sum of electronic and thermal Energies=              -422.968278
 Sum of electronic and thermal Enthalpies=            -422.967334
 Sum of electronic and thermal Free Energies=         -423.007865

                     E (Thermal)             CV                S
                      KCal/Mol        Cal/Mol-Kelvin    Cal/Mol-Kelvin
 Total                  105.345             30.717             85.304
 Electronic               0.000              0.000              0.000
 Translational            0.889              2.981             40.409
 Rotational               0.889              2.981             28.411
 Vibrational            103.568             24.755             16.485
 Vibration     1          0.611              1.927              3.003
 Vibration     2          0.615              1.912              2.780
 Vibration     3          0.645              1.816              1.991
 Vibration     4          0.687              1.689              1.462
 Vibration     5          0.699              1.655              1.364
 Vibration     6          0.777              1.440              0.913
 Vibration     7          0.795              1.396              0.845
 Vibration     8          0.804              1.374              0.814
 Vibration     9          0.946              1.055              0.469

 Optimization completed.
    -- Stationary point found.
 Normal termination of Gaussian 09 at Tue Jan 28 02:45:25 2020.
