 Gaussian 09, Revision D.01,
 Gaussian 09:  ES64L-G09RevD.01 24-Apr-2013

 -----------------------------
 # b3lyp 6-31G(2df,p) opt Freq
 -----------------------------

 -----
 titel
 -----
 Symbolic Z-matrix:
 Charge =  0 Multiplicity = 1

 SCF Done:  E(RB3LYP) =  -423.190720466     A.U. after   14 cycles
 SCF Done:  E(RB3LYP) =  -423.190721627     A.U. after    9 cycles
 SCF Done:  E(RB3LYP) =  -423.190723474     A.U. after    8 cycles
 SCF Done:  E(RB3LYP) =  -423.190723845     A.U. after    9 cycles
 SCF Done:  E(RB3LYP) =  -423.190725993     A.U. after    9 cycles
 SCF Done:  E(RB3LYP) =  -423.190728891     A.U. after   10 cycles
 SCF Done:  E(RB3LYP) =  -423.190730168     A.U. after   10 cycles
 SCF Done:  E(RB3LYP) =  -423.190730092     A.U. after    9 cycles
 SCF Done:  E(RB3LYP) =  -423.190729847     A.U. after   10 cycles
 Optimization completed.
    -- Stationary point found.
 Normal termination of Gaussian 09 at Tue Jan 28 08:36:59 2020.

 ----------------------------------------------------------------------
 #N Geom=AllCheck Guess=TCheck SCRF=Check GenChk RB3LYP/6-31G(2df,p) Fr
 eq
 ----------------------------------------------------------------------

 Structure from the checkpoint file:  "/scratch/puck/g09_15a9b76d-efa4-426b-adce-82af49085587/Gau-127870.chk"
 -----
 titel
 -----
 Charge =  0 Multiplicity = 1

                         Standard orientation:
 ---------------------------------------------------------------------
 Center     Atomic      Atomic             Coordinates (Angstroms)
 Number     Number       Type             X           Y           Z
 ---------------------------------------------------------------------
      1          6           0       -4.086447    1.057299   -0.135381
      2          6           0       -3.541560   -0.382221   -0.171123
      3          6           0       -2.118065   -0.464789    0.140534
      4          6           0       -0.946156   -0.505968    0.416173
      5          6           0        0.481460   -0.566629    0.703844
      6          6           0        1.311006   -0.566694   -0.588230
      7          8           0        2.714914   -0.735260   -0.299757
      8          6           0        3.397785    0.375171    0.013676
      9          8           0        2.953187    1.487840    0.087545
     10          1           0       -3.951876    1.499035    0.855624
     11          1           0       -3.563711    1.688678   -0.858897
     12          1           0       -5.153720    1.067175   -0.375931
     13          1           0       -4.104280   -1.005013    0.536240
     14          1           0       -3.722380   -0.817828   -1.162315
     15          1           0        0.784998    0.291721    1.313671
     16          1           0        0.720683   -1.470415    1.277792
     17          1           0        1.046350   -1.416210   -1.219275
     18          1           0        1.161913    0.364306   -1.137967
     19          1           0        4.449073    0.100901    0.191805
 ---------------------------------------------------------------------

 SCF Done:  E(RB3LYP) =  -423.190729847     A.U. after    1 cycles

 The electronic state is 1-A.
 Alpha  occ. eigenvalues --  -19.19261 -19.13698 -10.31150 -10.24775 -10.21117
 Alpha  occ. eigenvalues --  -10.20755 -10.18216 -10.17361 -10.17102  -1.10828
 Alpha  occ. eigenvalues --   -1.02464  -0.80797  -0.78768  -0.72265  -0.67804
 Alpha  occ. eigenvalues --   -0.63095  -0.58414  -0.53559  -0.50175  -0.47400
 Alpha  occ. eigenvalues --   -0.46640  -0.45664  -0.45503  -0.43766  -0.39860
 Alpha  occ. eigenvalues --   -0.39507  -0.39228  -0.36963  -0.36152  -0.35212
 Alpha  occ. eigenvalues --   -0.31273  -0.28395  -0.25119  -0.25066
 Alpha virt. eigenvalues --    0.00525   0.05291   0.05505   0.10800   0.11314
 Alpha virt. eigenvalues --    0.12122   0.13319   0.14856   0.15025   0.15422
 Alpha virt. eigenvalues --    0.16744   0.17148   0.19504   0.20286   0.21357

 Mulliken charges:
               1
     1  C   -0.363974
     2  C   -0.313928
     3  C    0.112311
     4  C    0.012076
     5  C   -0.355878
     6  C   -0.064617
     7  O   -0.201448
     8  C    0.179600
     9  O   -0.303836
    10  H    0.129388
    11  H    0.128736
    12  H    0.114196
    13  H    0.129434
    14  H    0.128134
    15  H    0.151777
    16  H    0.134278
    17  H    0.128169
    18  H    0.143035
    19  H    0.112545
 Sum of Mulliken charges =   0.00000

 Dipole moment (field-independent basis, Debye):
    X=             -0.9079    Y=             -1.5229    Z=             -0.3253  Tot=              1.8026
 Quadrupole moment (field-independent basis, Debye-Ang):
   XX=            -45.5990   YY=            -57.7306   ZZ=            -51.7984
   XY=             -4.0130   XZ=              1.2273   YZ=             -0.3271

  Exact polarizability: 119.901  -0.763  67.775   7.498   0.775  58.983
 Approx polarizability: 152.745  -2.065 105.964  14.126   2.466  87.640

 ******    1 imaginary frequencies (negative Signs) ******

                      1                      2                      3
                      A                      A                      A
 Frequencies --    -14.0935                41.7010                76.1059
 Red. masses --      2.5089                 4.6810                 3.8307
 Frc consts  --      0.0003                 0.0048                 0.0131
 IR Inten    --      0.4427                 0.5807                 1.5915

                      4                      5                      6
                      A                      A                      A
 Frequencies --     87.4750               139.4642               205.8805
 Red. masses --      3.2106                 2.9634                 1.4955
 Frc consts  --      0.0145                 0.0340                 0.0373
 IR Inten    --      2.0737                 1.5330                 0.0721

                      7                      8                      9
                      A                      A                      A
 Frequencies --    229.8402               290.0539               332.4805
 Red. masses --      2.4471                 2.3494                 3.2171
 Frc consts  --      0.0762                 0.1165                 0.2095
 IR Inten    --      3.2589                 1.7346                 8.2011

                     10                     11                     12
                      A                      A                      A
 Frequencies --    335.1722               422.0949               480.8054
 Red. masses --      2.8329                 4.6181                 5.5374
 Frc consts  --      0.1875                 0.4848                 0.7542
 IR Inten    --     18.2247                15.4911                 4.7297

                     13                     14                     15
                      A                      A                      A
 Frequencies --    524.3846               743.6634               754.4819
 Red. masses --      4.6474                 2.5198                 2.1595
 Frc consts  --      0.7529                 0.8211                 0.7243
 IR Inten    --      0.7986                 1.4658                 4.4332

                     16                     17                     18
                      A                      A                      A
 Frequencies --    784.1815               814.2615               943.8615
 Red. masses --      1.1762                 2.0256                 4.8667
 Frc consts  --      0.4262                 0.7913                 2.5545
 IR Inten    --      1.7469                 5.4152                27.3296

                     19                     20                     21
                      A                      A                      A
 Frequencies --    966.3955              1038.0626              1050.9841
 Red. masses --      2.4229                 2.8757                 2.0490
 Frc consts  --      1.3332                 1.8257                 1.3335
 IR Inten    --      1.8372                 5.0969                 0.9603

                     22                     23                     24
                      A                      A                      A
 Frequencies --   1078.2306              1090.9327              1105.6261
 Red. masses --      1.8916                 1.6667                 1.4989
 Frc consts  --      1.2957                 1.1687                 1.0796
 IR Inten    --      2.3052                 5.9848                 0.7917

                     25                     26                     27
                      A                      A                      A
 Frequencies --   1166.4040              1191.2202              1257.1723
 Red. masses --      2.5949                 4.4310                 1.3557
 Frc consts  --      2.0800                 3.7045                 1.2624
 IR Inten    --      8.3152               355.7416                47.4411

                     28                     29                     30
                      A                      A                      A
 Frequencies --   1285.5336              1316.1450              1328.7794
 Red. masses --      1.1491                 1.4117                 1.1012
 Frc consts  --      1.1189                 1.4408                 1.1455
 IR Inten    --      0.0749                 1.4420                11.0061

                     31                     32                     33
                      A                      A                      A
 Frequencies --   1350.8014              1406.4765              1407.6935
 Red. masses --      1.5487                 1.1481                 1.2116
 Frc consts  --      1.6649                 1.3382                 1.4146
 IR Inten    --     23.4092                 1.3859                 0.9063

                     34                     35                     36
                      A                      A                      A
 Frequencies --   1416.3935              1474.7458              1477.5329
 Red. masses --      1.3283                 1.0733                 1.0861
 Frc consts  --      1.5700                 1.3753                 1.3969
 IR Inten    --      3.8353                 4.1843                 5.0719

                     37                     38                     39
                      A                      A                      A
 Frequencies --   1489.8448              1494.3374              1505.3010
 Red. masses --      1.0948                 1.0399                 1.0579
 Frc consts  --      1.4317                 1.3681                 1.4123
 IR Inten    --      6.2791                 4.5586                 1.4543

                     40                     41                     42
                      A                      A                      A
 Frequencies --   1820.2316              2369.0082              3019.1776
 Red. masses --      9.1012                11.8504                 1.0588
 Frc consts  --     17.7666                39.1847                 5.6867
 IR Inten    --    240.0706                 0.7311                27.3970

                     43                     44                     45
                      A                      A                      A
 Frequencies --   3031.4456              3031.7292              3044.4103
 Red. masses --      1.0609                 1.0892                 1.0343
 Frc consts  --      5.7444                 5.8983                 5.6482
 IR Inten    --      7.7521                83.5631                27.9458

                     46                     47                     48
                      A                      A                      A
 Frequencies --   3045.9237              3071.8171              3086.5299
 Red. masses --      1.1010                 1.1001                 1.0568
 Frc consts  --      6.0183                 6.1158                 5.9319
 IR Inten    --      9.8098                 3.2503                18.7808

                     49                     50                     51
                      A                      A                      A
 Frequencies --   3117.8095              3124.1703              3148.0206
 Red. masses --      1.1021                 1.1029                 1.1109
 Frc consts  --      6.3119                 6.3425                 6.4861
 IR Inten    --     30.6999                24.5276                10.0467

 - Thermochemistry -
 -------------------
 Temperature   298.150 Kelvin.  Pressure   1.00000 Atm.
 Atom     1 has atomic number  6 and mass  12.00000

 Molecular mass:   126.06808 amu.
 Principal axes and moments of inertia in atomic units:
                           1         2         3
     Eigenvalues --   394.810093455.499063678.72652
           X            0.99990  -0.01355   0.00439
           Y            0.01358   0.99989  -0.00590
           Z           -0.00431   0.00596   0.99997
 This molecule is an asymmetric top.
 Rotational symmetry number  1.
 Rotational temperatures (Kelvin)      0.21938     0.02507     0.02354
 Rotational constants (GHZ):           4.57116     0.52228     0.49059
    1 imaginary frequencies ignored.
 Zero-point vibrational energy     412800.1 (Joules/Mol)
                                   98.66160 (Kcal/Mol)
 Warning -- explicit consideration of  12 degrees of freedom as
           vibrations may cause significant error
 Vibrational temperatures:     60.00   109.50   125.86   200.66   296.22
          (Kelvin)            330.69   417.32   478.36   482.24   607.30
                              691.77   754.47  1069.96  1085.53  1128.26
                             1171.54  1358.00  1390.43  1493.54  1512.13
                             1551.33  1569.61  1590.75  1678.19  1713.90
                             1808.79  1849.59  1893.64  1911.81  1943.50
                             2023.60  2025.35  2037.87  2121.83  2125.84
                             2143.55  2150.02  2165.79  2618.90  3408.47
                             4343.92  4361.57  4361.98  4380.22  4382.40
                             4419.65  4440.82  4485.83  4494.98  4529.29

 Zero-point correction=                           0.157227 (Hartree/Particle)
 Thermal correction to Energy=                    0.166820
 Thermal correction to Enthalpy=                  0.167764
 Thermal correction to Gibbs Free Energy=         0.121180
 Sum of electronic and zero-point Energies=           -423.033503
 Sum of electronic and thermal Energies=              -423.023910
 Sum of electronic and thermal Enthalpies=            -423.022965
 Sum of electronic and thermal Free Energies=         -423.069550

                     E (Thermal)             CV                S
                      KCal/Mol        Cal/Mol-Kelvin    Cal/Mol-Kelvin
 Total                  104.681             33.278             98.045
 Electronic               0.000              0.000              0.000
 Translational            0.889              2.981             40.409
 Rotational               0.889              2.981             29.996
 Vibrational            102.904             27.316             27.640
 Vibration     1          0.594              1.981              5.177
 Vibration     2          0.599              1.965              3.989
 Vibration     3          0.601              1.958              3.716
 Vibration     4          0.615              1.914              2.811
 Vibration     5          0.640              1.832              2.080
 Vibration     6          0.652              1.795              1.880
 Vibration     7          0.686              1.692              1.474
 Vibration     8          0.714              1.611              1.248
 Vibration     9          0.716              1.605              1.235
 Vibration    10          0.784              1.422              0.885
 Vibration    11          0.837              1.293              0.708
 Vibration    12          0.879              1.196              0.600

 Normal termination of Gaussian 09 at Tue Jan 28 09:07:02 2020.
