 Gaussian 09, Revision D.01,
 Gaussian 09:  ES64L-G09RevD.01 24-Apr-2013

 -----------------------------
 # b3lyp 6-31G(2df,p) opt Freq
 -----------------------------

 -----
 titel
 -----
 Symbolic Z-matrix:
 Charge =  0 Multiplicity = 1

 SCF Done:  E(RB3LYP) =  -423.118459507     A.U. after   14 cycles
 Optimization completed.
    -- Stationary point found.
 Normal termination of Gaussian 09 at Tue Jan 28 12:10:56 2020.

 ----------------------------------------------------------------------
 #N Geom=AllCheck Guess=TCheck SCRF=Check GenChk RB3LYP/6-31G(2df,p) Fr
 eq
 ----------------------------------------------------------------------

 Structure from the checkpoint file:  "/scratch/puck/g09_8031352d-d16f-4d7a-a1cd-9339a8d53ea0/Gau-36772.chk"
 -----
 titel
 -----
 Charge =  0 Multiplicity = 1

                         Standard orientation:
 ---------------------------------------------------------------------
 Center     Atomic      Atomic             Coordinates (Angstroms)
 Number     Number       Type             X           Y           Z
 ---------------------------------------------------------------------
      1          8           0        3.009067   -0.977231   -0.089264
      2          6           0        1.863995   -0.377809    0.491601
      3          6           0        0.864273    0.112541   -0.562831
      4          6           0       -0.376160    0.760002    0.021353
      5          6           0       -1.304692   -0.125657    0.854899
      6          6           0       -1.714782   -1.348936    0.173720
      7          6           0       -2.039010   -2.359064   -0.390544
      8          6           0       -0.397989    2.207994    0.280037
      9          8           0       -1.059617    1.656670   -0.860851
     10          1           0        3.452841   -0.310299   -0.623046
     11          1           0        1.411754   -1.159100    1.111042
     12          1           0        2.140458    0.451177    1.163855
     13          1           0        1.350778    0.848522   -1.214220
     14          1           0        0.570057   -0.734459   -1.191291
     15          1           0       -0.805680   -0.383728    1.798480
     16          1           0       -2.188443    0.465481    1.119013
     17          1           0       -2.334603   -3.249455   -0.887946
     18          1           0       -1.052775    2.614775    1.050106
     19          1           0        0.486214    2.807147    0.065528
 ---------------------------------------------------------------------

 SCF Done:  E(RB3LYP) =  -423.118459507     A.U. after    1 cycles

 The electronic state is 1-A.
 Alpha  occ. eigenvalues --  -19.15413 -19.13783 -10.25406 -10.23835 -10.23303
 Alpha  occ. eigenvalues --  -10.21791 -10.18772 -10.18510 -10.17463  -1.07672
 Alpha  occ. eigenvalues --   -1.01930  -0.80812  -0.76120  -0.71306  -0.66772
 Alpha  occ. eigenvalues --   -0.64699  -0.57728  -0.52909  -0.50945  -0.50030
 Alpha  occ. eigenvalues --   -0.49035  -0.46318  -0.44852  -0.42760  -0.41346
 Alpha  occ. eigenvalues --   -0.39050  -0.38662  -0.36411  -0.32854  -0.30426
 Alpha  occ. eigenvalues --   -0.28470  -0.27032  -0.26759  -0.26018
 Alpha virt. eigenvalues --    0.04491   0.05142   0.07326   0.08897   0.09964
 Alpha virt. eigenvalues --    0.11307   0.12724   0.12850   0.13645   0.14427
 Alpha virt. eigenvalues --    0.15656   0.17733   0.17949   0.20041   0.22075

 Mulliken charges:
               1
     1  O   -0.414761
     2  C   -0.058397
     3  C   -0.294010
     4  C    0.414936
     5  C   -0.427302
     6  C    0.310005
     7  C   -0.442133
     8  C   -0.233420
     9  O   -0.272399
    10  H    0.281740
    11  H    0.120067
    12  H    0.085711
    13  H    0.096136
    14  H    0.132434
    15  H    0.137015
    16  H    0.140200
    17  H    0.200466
    18  H    0.112484
    19  H    0.111227
 Sum of Mulliken charges =   0.00000

 Dipole moment (field-independent basis, Debye):
    X=              0.6986    Y=              1.2937    Z=              1.2023  Tot=              1.8993
 Quadrupole moment (field-independent basis, Debye-Ang):
   XX=            -55.0617   YY=            -51.8449   ZZ=            -52.8081
   XY=              7.4504   XZ=             -4.0450   YZ=              4.3624

  Exact polarizability:  74.549   7.416  91.714  -0.673   9.223  63.512
 Approx polarizability:  98.295  10.706 135.251   3.710  18.388 102.214

                      1                      2                      3
                      A                      A                      A
 Frequencies --     33.3551                85.7457                97.3350
 Red. masses --      3.9022                 1.9952                 4.0977
 Frc consts  --      0.0026                 0.0086                 0.0229
 IR Inten    --      0.5212                 3.4434                 2.3142

                      4                      5                      6
                      A                      A                      A
 Frequencies --    149.8450               168.9838               291.4062
 Red. masses --      3.4742                 3.8846                 1.5824
 Frc consts  --      0.0460                 0.0654                 0.0792
 IR Inten    --      1.1074                 4.0795                56.1705

                      7                      8                      9
                      A                      A                      A
 Frequencies --    324.9331               333.4474               356.3432
 Red. masses --      2.1908                 3.3217                 3.1087
 Frc consts  --      0.1363                 0.2176                 0.2326
 IR Inten    --     49.0713                 6.9826                 0.7098

                     10                     11                     12
                      A                      A                      A
 Frequencies --    363.5396               428.2859               444.5076
 Red. masses --      2.1805                 4.3031                 4.1200
 Frc consts  --      0.1698                 0.4650                 0.4796
 IR Inten    --      5.1007                 2.7972                12.8613

                     13                     14                     15
                      A                      A                      A
 Frequencies --    561.7254               624.1623               647.7594
 Red. masses --      3.7393                 1.2104                 1.2310
 Frc consts  --      0.6952                 0.2778                 0.3043
 IR Inten    --      7.9743                40.3091                41.5876

                     16                     17                     18
                      A                      A                      A
 Frequencies --    764.8895               787.2357               845.5833
 Red. masses --      2.5024                 1.4616                 3.1858
 Frc consts  --      0.8626                 0.5337                 1.3421
 IR Inten    --      3.2943                10.7619                14.5955

                     19                     20                     21
                      A                      A                      A
 Frequencies --    901.2380               942.6386               968.7439
 Red. masses --      2.1921                 1.8139                 2.6001
 Frc consts  --      1.0490                 0.9496                 1.4377
 IR Inten    --      9.2106                11.4686                11.2885

                     22                     23                     24
                      A                      A                      A
 Frequencies --    988.9696              1029.4621              1073.6713
 Red. masses --      2.8341                 2.7144                 3.1557
 Frc consts  --      1.6332                 1.6949                 2.1433
 IR Inten    --      2.5129                19.7069                94.6003

                     25                     26                     27
                      A                      A                      A
 Frequencies --   1095.8505              1131.1548              1149.1829
 Red. masses --      3.0395                 1.2952                 1.2940
 Frc consts  --      2.1506                 0.9764                 1.0068
 IR Inten    --     23.8479                 3.9655                13.1618

                     28                     29                     30
                      A                      A                      A
 Frequencies --   1165.1864              1220.4285              1276.1046
 Red. masses --      1.3165                 1.2965                 1.7273
 Frc consts  --      1.0531                 1.1378                 1.6572
 IR Inten    --      3.7654                 3.2174                 7.6414

                     31                     32                     33
                      A                      A                      A
 Frequencies --   1302.6967              1315.2001              1326.5550
 Red. masses --      1.3134                 1.2833                 1.7793
 Frc consts  --      1.3132                 1.3079                 1.8448
 IR Inten    --     10.7109                 9.0634                 8.4050

                     34                     35                     36
                      A                      A                      A
 Frequencies --   1396.2782              1424.4251              1426.9445
 Red. masses --      1.3092                 1.9486                 1.3466
 Frc consts  --      1.5039                 2.3294                 1.6155
 IR Inten    --      6.8678                18.8305                28.1986

                     37                     38                     39
                      A                      A                      A
 Frequencies --   1455.7508              1483.1200              1513.3458
 Red. masses --      1.0905                 1.1102                 1.0888
 Frc consts  --      1.3616                 1.4389                 1.4691
 IR Inten    --     12.7213                 7.6783                 0.3782

                     40                     41                     42
                      A                      A                      A
 Frequencies --   1531.9324              2240.2614              2969.1667
 Red. masses --      1.3353                 5.9155                 1.0711
 Frc consts  --      1.8463                17.4919                 5.5636
 IR Inten    --      4.8003                 0.6094                52.5155

                     43                     44                     45
                      A                      A                      A
 Frequencies --   3022.3632              3035.9655              3068.7589
 Red. masses --      1.0629                 1.0628                 1.0953
 Frc consts  --      5.7207                 5.7714                 6.0770
 IR Inten    --     13.7657                13.2741                 8.4613

                     46                     47                     48
                      A                      A                      A
 Frequencies --   3073.4002              3078.2303              3094.5308
 Red. masses --      1.0898                 1.0509                 1.1018
 Frc consts  --      6.0649                 5.8672                 6.2164
 IR Inten    --     13.2335                25.6778                32.9717

                     49                     50                     51
                      A                      A                      A
 Frequencies --   3162.3075              3505.7946              3814.5267
 Red. masses --      1.1192                 1.1626                 1.0661
 Frc consts  --      6.5942                 8.4192                 9.1399
 IR Inten    --     24.6982                66.3927                16.6815

 - Thermochemistry -
 -------------------
 Temperature   298.150 Kelvin.  Pressure   1.00000 Atm.
 Atom     1 has atomic number  8 and mass  15.99491

 Molecular mass:   126.06808 amu.
 Principal axes and moments of inertia in atomic units:
                           1         2         3
     Eigenvalues --  1023.871291423.669292142.24886
           X            0.99913   0.04044  -0.00995
           Y           -0.04019   0.99890   0.02412
           Z            0.01092  -0.02370   0.99966
 This molecule is an asymmetric top.
 Rotational symmetry number  1.
 Warning -- assumption of classical behavior for rotation
           may cause significant error
 Rotational temperatures (Kelvin)      0.08459     0.06084     0.04043
 Rotational constants (GHZ):           1.76266     1.26767     0.84245
 Zero-point vibrational energy     409680.7 (Joules/Mol)
                                   97.91604 (Kcal/Mol)
 Warning -- explicit consideration of  13 degrees of freedom as
           vibrations may cause significant error
 Vibrational temperatures:     47.99   123.37   140.04   215.59   243.13
          (Kelvin)            419.27   467.51   479.76   512.70   523.05
                              616.21   639.55   808.20   898.03   931.98
                             1100.50  1132.66  1216.60  1296.68  1356.24
                             1393.80  1422.90  1481.16  1544.77  1576.68
                             1627.48  1653.42  1676.44  1755.92  1836.03
                             1874.29  1892.28  1908.61  2008.93  2049.43
                             2053.05  2094.50  2133.88  2177.36  2204.11
                             3223.23  4271.96  4348.50  4368.07  4415.25
                             4421.93  4428.88  4452.33  4549.85  5044.05
                             5488.25

 Zero-point correction=                           0.156039 (Hartree/Particle)
 Thermal correction to Energy=                    0.166082
 Thermal correction to Enthalpy=                  0.167026
 Thermal correction to Gibbs Free Energy=         0.120055
 Sum of electronic and zero-point Energies=           -422.962420
 Sum of electronic and thermal Energies=              -422.952377
 Sum of electronic and thermal Enthalpies=            -422.951433
 Sum of electronic and thermal Free Energies=         -422.998405

                     E (Thermal)             CV                S
                      KCal/Mol        Cal/Mol-Kelvin    Cal/Mol-Kelvin
 Total                  104.218             36.231             98.860
 Electronic               0.000              0.000              0.000
 Translational            0.889              2.981             40.409
 Rotational               0.889              2.981             29.525
 Vibrational            102.441             30.269             28.926
 Vibration     1          0.594              1.983              5.619
 Vibration     2          0.601              1.959              3.755
 Vibration     3          0.603              1.951              3.507
 Vibration     4          0.618              1.903              2.674
 Vibration     5          0.625              1.881              2.447
 Vibration     6          0.687              1.690              1.466
 Vibration     7          0.709              1.626              1.285
 Vibration     8          0.715              1.609              1.243
 Vibration     9          0.732              1.562              1.138
 Vibration    10          0.737              1.547              1.107
 Vibration    11          0.790              1.409              0.864
 Vibration    12          0.804              1.373              0.813
 Vibration    13          0.917              1.114              0.520

 Normal termination of Gaussian 09 at Tue Jan 28 12:51:40 2020.
