 Gaussian 09, Revision D.01,
 Gaussian 09:  ES64L-G09RevD.01 24-Apr-2013

 -----------------------------
 # b3lyp 6-31G(2df,p) opt Freq
 -----------------------------

 -----
 titel
 -----
 Symbolic Z-matrix:
 Charge =  0 Multiplicity = 1

 SCF Done:  E(RB3LYP) =  -423.173678226     A.U. after   14 cycles
 Optimization completed.
    -- Stationary point found.
 Normal termination of Gaussian 09 at Tue Jan 28 03:21:10 2020.

 ----------------------------------------------------------------------
 #N Geom=AllCheck Guess=TCheck SCRF=Check GenChk RB3LYP/6-31G(2df,p) Fr
 eq
 ----------------------------------------------------------------------

 Structure from the checkpoint file:  "/scratch/puck/g09_c19d89d7-6f7d-4c95-adac-dd30a7edaa11/Gau-115249.chk"
 -----
 titel
 -----
 Charge =  0 Multiplicity = 1

                         Standard orientation:
 ---------------------------------------------------------------------
 Center     Atomic      Atomic             Coordinates (Angstroms)
 Number     Number       Type             X           Y           Z
 ---------------------------------------------------------------------
      1          8           0       -2.002081   -0.253603   -0.912114
      2          6           0       -1.487714    0.234733    0.324195
      3          6           0       -0.741089   -0.868293    1.091575
      4          6           0        0.495066   -1.418292    0.413783
      5          8           0        0.674865   -1.148026   -0.993762
      6          6           0        1.618059   -0.601989   -0.059983
      7          6           0        1.759842    0.896389    0.077825
      8          6           0        0.551704    1.792080    0.002847
      9          6           0       -0.751293    1.537327    0.111875
     10          1           0       -1.222785   -0.459518   -1.446449
     11          1           0       -2.380439    0.467781    0.917250
     12          1           0       -0.471373   -0.509798    2.093487
     13          1           0       -1.452777   -1.689502    1.229840
     14          1           0        0.730287   -2.451013    0.676156
     15          1           0        2.587971   -1.102188   -0.108487
     16          1           0        2.295548    1.083504    1.022316
     17          1           0        2.460791    1.229702   -0.700631
     18          1           0        0.825879    2.829506   -0.184498
     19          1           0       -1.422815    2.382843   -0.024683
 ---------------------------------------------------------------------

 SCF Done:  E(RB3LYP) =  -423.173678226     A.U. after    1 cycles

 The electronic state is 1-A.
 Alpha  occ. eigenvalues --  -19.15824 -19.11712 -10.24428 -10.24191 -10.23135
 Alpha  occ. eigenvalues --  -10.20191 -10.18958 -10.18780 -10.17932  -1.07469
 Alpha  occ. eigenvalues --   -1.00155  -0.80736  -0.76922  -0.73216  -0.65902
 Alpha  occ. eigenvalues --   -0.64285  -0.56501  -0.53859  -0.52536  -0.47235
 Alpha  occ. eigenvalues --   -0.46751  -0.44942  -0.44379  -0.42274  -0.41360
 Alpha  occ. eigenvalues --   -0.39505  -0.36993  -0.36059  -0.34513  -0.31873
 Alpha  occ. eigenvalues --   -0.29598  -0.27479  -0.26535  -0.24288
 Alpha virt. eigenvalues --    0.01466   0.07438   0.09737   0.10732   0.11758
 Alpha virt. eigenvalues --    0.11951   0.13417   0.15718   0.16031   0.17343
 Alpha virt. eigenvalues --    0.17728   0.18976   0.19987   0.20628   0.21583

 Mulliken charges:
               1
     1  O   -0.439449
     2  C    0.079722
     3  C   -0.277433
     4  C    0.045276
     5  O   -0.265689
     6  C    0.072642
     7  C   -0.305162
     8  C   -0.050393
     9  C   -0.075441
    10  H    0.292356
    11  H    0.084774
    12  H    0.107456
    13  H    0.115397
    14  H    0.094646
    15  H    0.092804
    16  H    0.122815
    17  H    0.122393
    18  H    0.091869
    19  H    0.091417
 Sum of Mulliken charges =   0.00000

 Dipole moment (field-independent basis, Debye):
    X=              2.3187    Y=              0.4153    Z=              2.0570  Tot=              3.1273
 Quadrupole moment (field-independent basis, Debye-Ang):
   XX=            -53.6213   YY=            -51.0592   ZZ=            -54.3290
   XY=             -0.1503   XZ=             -2.2987   YZ=             -2.3660

  Exact polarizability:  90.650   3.567  77.448  -2.908  -2.999  59.785
 Approx polarizability: 137.149   9.722 105.047  -1.976  -1.130  98.000

                      1                      2                      3
                      A                      A                      A
 Frequencies --     77.3305               179.5884               255.7078
 Red. masses --      2.7144                 3.9373                 3.1676
 Frc consts  --      0.0096                 0.0748                 0.1220
 IR Inten    --      0.3149                 2.6402                 1.8128

                      4                      5                      6
                      A                      A                      A
 Frequencies --    274.3452               319.7617               356.7965
 Red. masses --      4.0265                 3.3489                 4.2515
 Frc consts  --      0.1786                 0.2017                 0.3189
 IR Inten    --      1.9901                 1.0698                 1.7484

                      7                      8                      9
                      A                      A                      A
 Frequencies --    423.5945               510.7478               524.6011
 Red. masses --      2.8146                 2.3671                 3.4626
 Frc consts  --      0.2976                 0.3638                 0.5615
 IR Inten    --      4.7622                 1.5569                 6.7901

                     10                     11                     12
                      A                      A                      A
 Frequencies --    559.8789               696.3412               718.1503
 Red. masses --      1.1307                 3.1926                 4.2494
 Frc consts  --      0.2088                 0.9121                 1.2912
 IR Inten    --     97.4831                15.0094                 3.8349

                     13                     14                     15
                      A                      A                      A
 Frequencies --    752.7013               811.2584               826.5997
 Red. masses --      1.9919                 2.7432                 3.3889
 Frc consts  --      0.6649                 1.0637                 1.3643
 IR Inten    --      3.8553                24.0612                15.3622

                     16                     17                     18
                      A                      A                      A
 Frequencies --    875.3435               890.0947               903.5631
 Red. masses --      3.1335                 3.4220                 2.7933
 Frc consts  --      1.4146                 1.5974                 1.3436
 IR Inten    --      2.7934                 8.5005                16.9734

                     19                     20                     21
                      A                      A                      A
 Frequencies --    941.8006              1001.4002              1021.5301
 Red. masses --      2.4331                 2.2607                 1.3534
 Frc consts  --      1.2715                 1.3357                 0.8321
 IR Inten    --      5.4070                 5.1488                 0.0797

                     22                     23                     24
                      A                      A                      A
 Frequencies --   1057.3612              1071.2972              1096.0674
 Red. masses --      2.0653                 2.0281                 2.2676
 Frc consts  --      1.3604                 1.3714                 1.6051
 IR Inten    --     56.4074                11.5548                61.9722

                     25                     26                     27
                      A                      A                      A
 Frequencies --   1147.7061              1152.7316              1240.4416
 Red. masses --      1.2101                 1.3918                 1.2229
 Frc consts  --      0.9391                 1.0897                 1.1087
 IR Inten    --      2.9069                11.4419                 4.8249

                     28                     29                     30
                      A                      A                      A
 Frequencies --   1257.1315              1270.8063              1289.0746
 Red. masses --      1.1889                 1.0840                 1.3084
 Frc consts  --      1.1070                 1.0315                 1.2810
 IR Inten    --      6.8421                 1.8422                 6.2474

                     31                     32                     33
                      A                      A                      A
 Frequencies --   1321.4330              1364.4786              1386.2654
 Red. masses --      1.2167                 1.7528                 1.3173
 Frc consts  --      1.2517                 1.9227                 1.4915
 IR Inten    --      7.0919                 5.8328                 1.6482

                     34                     35                     36
                      A                      A                      A
 Frequencies --   1402.5253              1421.8208              1435.7278
 Red. masses --      1.8143                 1.3999                 1.2801
 Frc consts  --      2.1027                 1.6673                 1.5547
 IR Inten    --      1.7095                 6.5131                19.8443

                     37                     38                     39
                      A                      A                      A
 Frequencies --   1456.6906              1462.6849              1472.6570
 Red. masses --      1.2300                 1.1168                 1.1975
 Frc consts  --      1.5377                 1.4077                 1.5301
 IR Inten    --     49.7201                 3.6870                19.0267

                     40                     41                     42
                      A                      A                      A
 Frequencies --   1507.7230              1742.8970              2989.8060
 Red. masses --      2.5361                 7.1614                 1.0670
 Frc consts  --      3.3967                12.8171                 5.6195
 IR Inten    --      6.4923                 3.4760                22.6502

                     43                     44                     45
                      A                      A                      A
 Frequencies --   3019.1814              3023.0591              3035.9082
 Red. masses --      1.0912                 1.0699                 1.0762
 Frc consts  --      5.8607                 5.7609                 5.8443
 IR Inten    --     16.8484                 7.6754                49.6895

                     46                     47                     48
                      A                      A                      A
 Frequencies --   3070.4162              3080.4463              3098.5414
 Red. masses --      1.0992                 1.0853                 1.0904
 Frc consts  --      6.1057                 6.0680                 6.1681
 IR Inten    --     12.7737                33.0809                60.2563

                     49                     50                     51
                      A                      A                      A
 Frequencies --   3123.4213              3151.1550              3752.6763
 Red. masses --      1.0832                 1.0930                 1.0652
 Frc consts  --      6.2259                 6.3947                 8.8383
 IR Inten    --      9.1061                31.4036                56.0295

 - Thermochemistry -
 -------------------
 Temperature   298.150 Kelvin.  Pressure   1.00000 Atm.
 Atom     1 has atomic number  8 and mass  15.99491

 Molecular mass:   126.06808 amu.
 Principal axes and moments of inertia in atomic units:
                           1         2         3
     Eigenvalues --   792.45329 982.885091363.47470
           X            0.99926   0.03533  -0.01541
           Y           -0.03587   0.99870  -0.03629
           Z            0.01410   0.03682   0.99922
 This molecule is an asymmetric top.
 Rotational symmetry number  1.
 Warning -- assumption of classical behavior for rotation
           may cause significant error
 Rotational temperatures (Kelvin)      0.10930     0.08812     0.06352
 Rotational constants (GHZ):           2.27741     1.83617     1.32363
 Zero-point vibrational energy     423617.2 (Joules/Mol)
                                  101.24694 (Kcal/Mol)
 Warning -- explicit consideration of  10 degrees of freedom as
           vibrations may cause significant error
 Vibrational temperatures:    111.26   258.39   367.91   394.72   460.07
          (Kelvin)            513.35   609.46   734.85   754.78   805.54
                             1001.88  1033.26  1082.97  1167.22  1189.29
                             1259.42  1280.65  1300.02  1355.04  1440.79
                             1469.75  1521.31  1541.36  1576.99  1651.29
                             1658.52  1784.72  1808.73  1828.40  1854.69
                             1901.24  1963.18  1994.52  2017.92  2045.68
                             2065.69  2095.85  2104.47  2118.82  2169.27
                             2507.64  4301.66  4343.92  4349.50  4367.99
                             4417.64  4432.07  4458.10  4493.90  4533.80
                             5399.26

 Zero-point correction=                           0.161347 (Hartree/Particle)
 Thermal correction to Energy=                    0.169118
 Thermal correction to Enthalpy=                  0.170062
 Thermal correction to Gibbs Free Energy=         0.129170
 Sum of electronic and zero-point Energies=           -423.012331
 Sum of electronic and thermal Energies=              -423.004560
 Sum of electronic and thermal Enthalpies=            -423.003616
 Sum of electronic and thermal Free Energies=         -423.044509

                     E (Thermal)             CV                S
                      KCal/Mol        Cal/Mol-Kelvin    Cal/Mol-Kelvin
 Total                  106.123             30.824             86.066
 Electronic               0.000              0.000              0.000
 Translational            0.889              2.981             40.409
 Rotational               0.889              2.981             28.453
 Vibrational            104.346             24.862             17.204
 Vibration     1          0.599              1.964              3.958
 Vibration     2          0.629              1.867              2.333
 Vibration     3          0.666              1.753              1.691
 Vibration     4          0.677              1.721              1.569
 Vibration     5          0.706              1.636              1.311
 Vibration     6          0.732              1.561              1.136
 Vibration     7          0.786              1.419              0.880
 Vibration     8          0.866              1.226              0.632
 Vibration     9          0.880              1.196              0.599
 Vibration    10          0.915              1.118              0.524

 Optimization completed.
    -- Stationary point found.
 Normal termination of Gaussian 09 at Tue Jan 28 04:06:02 2020.
