 Gaussian 09, Revision D.01,
 Gaussian 09:  ES64L-G09RevD.01 24-Apr-2013

 -----------------------------
 # b3lyp 6-31G(2df,p) opt Freq
 -----------------------------

 -----
 titel
 -----
 Symbolic Z-matrix:
 Charge =  0 Multiplicity = 1

 SCF Done:  E(RB3LYP) =  -423.172048881     A.U. after   14 cycles
 Optimization completed.
    -- Stationary point found.
 Normal termination of Gaussian 09 at Tue Jan 28 08:08:26 2020.

 ----------------------------------------------------------------------
 #N Geom=AllCheck Guess=TCheck SCRF=Check GenChk RB3LYP/6-31G(2df,p) Fr
 eq
 ----------------------------------------------------------------------

 Structure from the checkpoint file:  "/scratch/puck/g09_76c1bbc9-2803-47fd-9dca-d031d87bd170/Gau-127940.chk"
 -----
 titel
 -----
 Charge =  0 Multiplicity = 1

                         Standard orientation:
 ---------------------------------------------------------------------
 Center     Atomic      Atomic             Coordinates (Angstroms)
 Number     Number       Type             X           Y           Z
 ---------------------------------------------------------------------
      1          6           0       -2.367809    1.588087    0.751715
      2          6           0       -2.602301    0.556370   -0.363644
      3          6           0       -1.761278   -0.698103   -0.190805
      4          8           0       -2.242884   -1.798770   -0.023212
      5          6           0       -0.321566   -0.504195   -0.234900
      6          6           0        0.876743   -0.350790   -0.264162
      7          6           0        2.329235   -0.163070   -0.325612
      8          6           0        3.007317   -0.540070    0.993946
      9          8           0        2.682765    1.188498   -0.601551
     10          1           0       -2.638526    1.176692    1.728757
     11          1           0       -1.319098    1.895568    0.791420
     12          1           0       -2.977823    2.478889    0.579103
     13          1           0       -3.647513    0.237575   -0.395259
     14          1           0       -2.350845    1.004319   -1.333679
     15          1           0        2.714526   -0.826530   -1.117727
     16          1           0        2.815001   -1.586868    1.239086
     17          1           0        4.084461   -0.383581    0.897683
     18          1           0        2.630131    0.091071    1.801909
     19          1           0        2.208595    1.465668   -1.392424
 ---------------------------------------------------------------------

 SCF Done:  E(RB3LYP) =  -423.172048881     A.U. after    1 cycles

 The electronic state is 1-A.
 Alpha  occ. eigenvalues --  -19.15160 -19.13428 -10.28655 -10.27073 -10.20450
 Alpha  occ. eigenvalues --  -10.19669 -10.19389 -10.18976 -10.18851  -1.04428
 Alpha  occ. eigenvalues --   -1.03550  -0.80408  -0.78711  -0.74697  -0.67218
 Alpha  occ. eigenvalues --   -0.64349  -0.60134  -0.54220  -0.50534  -0.48408
 Alpha  occ. eigenvalues --   -0.45570  -0.44119  -0.42945  -0.41389  -0.39744
 Alpha  occ. eigenvalues --   -0.38734  -0.38403  -0.36690  -0.36048  -0.35418
 Alpha  occ. eigenvalues --   -0.30191  -0.28509  -0.27748  -0.25607
 Alpha virt. eigenvalues --   -0.05183   0.02049   0.07564   0.08747   0.11031
 Alpha virt. eigenvalues --    0.13283   0.14002   0.14304   0.14931   0.16551
 Alpha virt. eigenvalues --    0.16594   0.16761   0.18133   0.19545   0.21116

 Mulliken charges:
               1
     1  C   -0.388172
     2  C   -0.276771
     3  C    0.242997
     4  O   -0.283761
     5  C    0.010660
     6  C    0.082430
     7  C   -0.035597
     8  C   -0.374168
     9  O   -0.412956
    10  H    0.132298
    11  H    0.135223
    12  H    0.124859
    13  H    0.124151
    14  H    0.117795
    15  H    0.107707
    16  H    0.133847
    17  H    0.132359
    18  H    0.138237
    19  H    0.288862
 Sum of Mulliken charges =   0.00000

 Dipole moment (field-independent basis, Debye):
    X=              1.0198    Y=              1.9626    Z=             -0.9653  Tot=              2.4133
 Quadrupole moment (field-independent basis, Debye-Ang):
   XX=            -53.9707   YY=            -58.3158   ZZ=            -49.7098
   XY=             -9.8891   XZ=             -0.6506   YZ=             -1.5647

  Exact polarizability: 115.129   2.912  73.542   0.785  -1.717  61.584
 Approx polarizability: 165.400  19.093 112.361  -2.094  -4.560  88.244

                      1                      2                      3
                      A                      A                      A
 Frequencies --     20.6088                44.5082                72.7073
 Red. masses --      3.3062                 2.8567                 3.1483
 Frc consts  --      0.0008                 0.0033                 0.0098
 IR Inten    --      1.7791                 0.7164                 1.6804

                      4                      5                      6
                      A                      A                      A
 Frequencies --     94.7947               182.5024               213.4864
 Red. masses --      5.0340                 2.5848                 1.6098
 Frc consts  --      0.0267                 0.0507                 0.0432
 IR Inten    --      1.4485                 3.0229                 0.5625

                      7                      8                      9
                      A                      A                      A
 Frequencies --    237.3282               244.0860               275.3611
 Red. masses --      1.3312                 1.7690                 3.1310
 Frc consts  --      0.0442                 0.0621                 0.1399
 IR Inten    --      0.5168                11.2785                12.0702

                     10                     11                     12
                      A                      A                      A
 Frequencies --    302.8443               371.5028               425.3108
 Red. masses --      1.2736                 3.7437                 2.9525
 Frc consts  --      0.0688                 0.3044                 0.3147
 IR Inten    --    102.3712                 3.1307                 7.3819

                     13                     14                     15
                      A                      A                      A
 Frequencies --    530.3825               556.7625               603.8881
 Red. masses --      4.2938                 4.7492                 5.3343
 Frc consts  --      0.7117                 0.8674                 1.1461
 IR Inten    --      8.4376                20.6112                 5.3557

                     16                     17                     18
                      A                      A                      A
 Frequencies --    671.7725               720.0280               811.8727
 Red. masses --      4.0185                 3.4287                 1.3201
 Frc consts  --      1.0685                 1.0473                 0.5126
 IR Inten    --      2.2773                 3.3031                 2.9948

                     19                     20                     21
                      A                      A                      A
 Frequencies --    861.8875               932.8870               982.0540
 Red. masses --      2.8096                 2.0611                 1.9725
 Frc consts  --      1.2297                 1.0569                 1.1208
 IR Inten    --      5.4242                34.5621                35.6047

                     22                     23                     24
                      A                      A                      A
 Frequencies --   1030.0678              1064.8203              1080.9137
 Red. masses --      2.8659                 2.0902                 1.7519
 Frc consts  --      1.7916                 1.3963                 1.2060
 IR Inten    --     44.1575                32.6359                 2.3484

                     25                     26                     27
                      A                      A                      A
 Frequencies --   1085.2550              1144.2975              1227.1799
 Red. masses --      1.8189                 2.1720                 2.5398
 Frc consts  --      1.2622                 1.6757                 2.2535
 IR Inten    --     18.2105                36.8074               121.6157

                     28                     29                     30
                      A                      A                      A
 Frequencies --   1278.0240              1287.3354              1329.6584
 Red. masses --      1.1556                 1.3944                 1.5189
 Frc consts  --      1.1120                 1.3615                 1.5822
 IR Inten    --     49.2169                62.4955                 1.4638

                     31                     32                     33
                      A                      A                      A
 Frequencies --   1353.8756              1390.2622              1407.3756
 Red. masses --      1.2786                 1.3422                 1.3529
 Frc consts  --      1.3809                 1.5285                 1.5789
 IR Inten    --     56.2728                40.2318                10.9381

                     34                     35                     36
                      A                      A                      A
 Frequencies --   1409.4348              1467.9799              1482.6305
 Red. masses --      1.2139                 1.0806                 1.0474
 Frc consts  --      1.4208                 1.3720                 1.3566
 IR Inten    --      2.0859                 3.4007                 3.3827

                     37                     38                     39
                      A                      A                      A
 Frequencies --   1495.4674              1499.4566              1506.5617
 Red. masses --      1.0500                 1.0389                 1.0569
 Frc consts  --      1.3835                 1.3762                 1.4134
 IR Inten    --      2.0523                 5.6604                 7.0482

                     40                     41                     42
                      A                      A                      A
 Frequencies --   1763.2866              2317.5904              2963.7823
 Red. masses --     11.8163                11.9602                 1.0807
 Frc consts  --     21.6459                37.8495                 5.5928
 IR Inten    --    198.3126                83.0566                32.1684

                     43                     44                     45
                      A                      A                      A
 Frequencies --   3030.8929              3044.9597              3055.7768
 Red. masses --      1.0638                 1.0343                 1.0334
 Frc consts  --      5.7577                 5.6503                 5.6855
 IR Inten    --      9.5706                20.5105                12.5168

                     46                     47                     48
                      A                      A                      A
 Frequencies --   3099.2225              3117.9284              3124.7829
 Red. masses --      1.0978                 1.1027                 1.1020
 Frc consts  --      6.2127                 6.3160                 6.3395
 IR Inten    --      3.0415                20.0630                30.8383

                     49                     50                     51
                      A                      A                      A
 Frequencies --   3137.4380              3141.8850              3818.0890
 Red. masses --      1.1032                 1.1031                 1.0664
 Frc consts  --      6.3983                 6.4158                 9.1589
 IR Inten    --     15.0006                12.6881                21.1055

 - Thermochemistry -
 -------------------
 Temperature   298.150 Kelvin.  Pressure   1.00000 Atm.
 Atom     1 has atomic number  6 and mass  12.00000

 Molecular mass:   126.06808 amu.
 Principal axes and moments of inertia in atomic units:
                           1         2         3
     Eigenvalues --   654.179082467.669192808.11459
           X            0.99915  -0.04091   0.00493
           Y            0.04089   0.99916   0.00298
           Z           -0.00505  -0.00277   0.99998
 This molecule is an asymmetric top.
 Rotational symmetry number  1.
 Warning -- assumption of classical behavior for rotation
           may cause significant error
 Rotational temperatures (Kelvin)      0.13240     0.03510     0.03084
 Rotational constants (GHZ):           2.75879     0.73135     0.64269
 Zero-point vibrational energy     408601.3 (Joules/Mol)
                                   97.65806 (Kcal/Mol)
 Warning -- explicit consideration of  15 degrees of freedom as
           vibrations may cause significant error
 Vibrational temperatures:     29.65    64.04   104.61   136.39   262.58
          (Kelvin)            307.16   341.46   351.18   396.18   435.72
                              534.51   611.93   763.10   801.06   868.86
                              966.53  1035.96  1168.10  1240.06  1342.21
                             1412.95  1482.04  1532.04  1555.19  1561.44
                             1646.39  1765.64  1838.79  1852.19  1913.08
                             1947.92  2000.27  2024.90  2027.86  2112.09
                             2133.17  2151.64  2157.38  2167.60  2536.97
                             3334.49  4264.22  4360.77  4381.01  4396.58
                             4459.08  4486.00  4495.86  4514.07  4520.47
                             5493.37

 Zero-point correction=                           0.155628 (Hartree/Particle)
 Thermal correction to Energy=                    0.166601
 Thermal correction to Enthalpy=                  0.167545
 Thermal correction to Gibbs Free Energy=         0.117297
 Sum of electronic and zero-point Energies=           -423.016421
 Sum of electronic and thermal Energies=              -423.005448
 Sum of electronic and thermal Enthalpies=            -423.004504
 Sum of electronic and thermal Free Energies=         -423.054752

                     E (Thermal)             CV                S
                      KCal/Mol        Cal/Mol-Kelvin    Cal/Mol-Kelvin
 Total                  104.544             37.453            105.755
 Electronic               0.000              0.000              0.000
 Translational            0.889              2.981             40.409
 Rotational               0.889              2.981             29.895
 Vibrational            102.766             31.491             35.451
 Vibration     1          0.593              1.986              6.575
 Vibration     2          0.595              1.980              5.048
 Vibration     3          0.599              1.967              4.079
 Vibration     4          0.603              1.953              3.559
 Vibration     5          0.630              1.864              2.303
 Vibration     6          0.644              1.820              2.014
 Vibration     7          0.656              1.784              1.823
 Vibration     8          0.659              1.773              1.773
 Vibration     9          0.677              1.719              1.562
 Vibration    10          0.694              1.668              1.401
 Vibration    11          0.743              1.531              1.074
 Vibration    12          0.787              1.415              0.874
 Vibration    13          0.885              1.183              0.586
 Vibration    14          0.912              1.125              0.530
 Vibration    15          0.962              1.024              0.443

 Optimization completed.
    -- Stationary point found.
 Normal termination of Gaussian 09 at Tue Jan 28 08:40:38 2020.
