 Gaussian 09, Revision D.01,
 Gaussian 09:  ES64L-G09RevD.01 24-Apr-2013

 -----------------------------
 # b3lyp 6-31G(2df,p) opt Freq
 -----------------------------

 -----
 titel
 -----
 Symbolic Z-matrix:
 Charge =  0 Multiplicity = 1

 SCF Done:  E(RB3LYP) =  -423.215166238     A.U. after   14 cycles
 Optimization completed.
    -- Stationary point found.
 Normal termination of Gaussian 09 at Tue Jan 28 08:13:12 2020.

 ----------------------------------------------------------------------
 #N Geom=AllCheck Guess=TCheck SCRF=Check GenChk RB3LYP/6-31G(2df,p) Fr
 eq
 ----------------------------------------------------------------------

 Structure from the checkpoint file:  "/scratch/puck/g09_c16bd5a8-7d13-4d9a-a2d7-d6799b6240bb/Gau-14317.chk"
 -----
 titel
 -----
 Charge =  0 Multiplicity = 1

                         Standard orientation:
 ---------------------------------------------------------------------
 Center     Atomic      Atomic             Coordinates (Angstroms)
 Number     Number       Type             X           Y           Z
 ---------------------------------------------------------------------
      1          6           0        2.564889   -1.239052   -0.421892
      2          6           0        1.579300   -0.380447    0.371365
      3          8           0        1.626620    0.924192   -0.179774
      4          6           0        0.560030    1.760777    0.244916
      5          6           0       -0.783136    1.237189   -0.263831
      6          6           0       -0.894895   -0.231307    0.052668
      7          6           0       -2.219777   -0.874622    0.052263
      8          8           0       -3.258191   -0.301110   -0.187605
      9          6           0        0.189655   -0.954388    0.363619
     10          1           0        2.241542   -1.324135   -1.462823
     11          1           0        3.553883   -0.774861   -0.400977
     12          1           0        2.638149   -2.241648    0.009371
     13          1           0        1.919060   -0.346565    1.425718
     14          1           0        0.543975    1.828949    1.345030
     15          1           0        0.779808    2.755471   -0.151233
     16          1           0       -1.618067    1.778235    0.194174
     17          1           0       -0.869371    1.396827   -1.345488
     18          1           0       -2.202891   -1.960885    0.298466
     19          1           0        0.090087   -2.004948    0.632145
 ---------------------------------------------------------------------

 SCF Done:  E(RB3LYP) =  -423.215166238     A.U. after    1 cycles

 The electronic state is 1-A.
 Alpha  occ. eigenvalues --  -19.14602 -19.13375 -10.26572 -10.25052 -10.23426
 Alpha  occ. eigenvalues --  -10.21041 -10.20242 -10.19087 -10.18745  -1.04311
 Alpha  occ. eigenvalues --   -1.03917  -0.82717  -0.79430  -0.71862  -0.66284
 Alpha  occ. eigenvalues --   -0.64247  -0.58248  -0.53129  -0.50841  -0.49259
 Alpha  occ. eigenvalues --   -0.47042  -0.46071  -0.42591  -0.41447  -0.40849
 Alpha  occ. eigenvalues --   -0.40020  -0.39472  -0.37725  -0.36834  -0.35751
 Alpha  occ. eigenvalues --   -0.31590  -0.27016  -0.26289  -0.25095
 Alpha virt. eigenvalues --   -0.05569   0.05701   0.09061   0.11063   0.11842
 Alpha virt. eigenvalues --    0.12214   0.13534   0.15031   0.15986   0.16227
 Alpha virt. eigenvalues --    0.16838   0.17956   0.18937   0.19973   0.22987

 Mulliken charges:
               1
     1  C   -0.397334
     2  C    0.093355
     3  O   -0.262352
     4  C   -0.094468
     5  C   -0.305509
     6  C    0.198275
     7  C    0.092522
     8  O   -0.273328
     9  C   -0.146818
    10  H    0.131317
    11  H    0.133332
    12  H    0.117430
    13  H    0.084631
    14  H    0.092441
    15  H    0.112859
    16  H    0.126583
    17  H    0.126536
    18  H    0.065806
    19  H    0.104722
 Sum of Mulliken charges =   0.00000

 Dipole moment (field-independent basis, Debye):
    X=              2.3998    Y=             -0.8877    Z=              1.0161  Tot=              2.7531
 Quadrupole moment (field-independent basis, Debye-Ang):
   XX=            -65.9311   YY=            -48.6641   ZZ=            -52.6355
   XY=             -2.2123   XZ=             -0.0157   YZ=             -0.2684

  Exact polarizability: 105.728  -7.443  82.248   4.475  -3.856  57.276
 Approx polarizability: 160.447 -20.881 117.558  12.334  -9.743  90.877

                      1                      2                      3
                      A                      A                      A
 Frequencies --     91.7126               103.1973               188.4819
 Red. masses --      4.9285                 2.6804                 4.3917
 Frc consts  --      0.0244                 0.0168                 0.0919
 IR Inten    --      4.5089                 0.6663                 6.5866

                      4                      5                      6
                      A                      A                      A
 Frequencies --    214.2035               239.4082               282.9494
 Red. masses --      1.3828                 1.7661                 2.1583
 Frc consts  --      0.0374                 0.0596                 0.1018
 IR Inten    --      1.9657                 4.4651                 2.9032

                      7                      8                      9
                      A                      A                      A
 Frequencies --    346.4564               388.9348               441.6534
 Red. masses --      2.8445                 5.0085                 2.3240
 Frc consts  --      0.2012                 0.4464                 0.2671
 IR Inten    --      3.4143                 4.2751                 3.4429

                     10                     11                     12
                      A                      A                      A
 Frequencies --    471.0025               562.5687               616.5058
 Red. masses --      3.2056                 3.3219                 2.9774
 Frc consts  --      0.4190                 0.6194                 0.6668
 IR Inten    --      0.8859                 5.2898                 3.0871

                     13                     14                     15
                      A                      A                      A
 Frequencies --    727.6421               798.5927               827.9410
 Red. masses --      3.3489                 2.5956                 2.5966
 Frc consts  --      1.0447                 0.9753                 1.0487
 IR Inten    --      9.1075                 9.1331                 1.8567

                     16                     17                     18
                      A                      A                      A
 Frequencies --    879.3208               906.0695               947.7789
 Red. masses --      1.2928                 2.4420                 1.9659
 Frc consts  --      0.5889                 1.1812                 1.0405
 IR Inten    --     11.9848                 1.8271                 2.6557

                     19                     20                     21
                      A                      A                      A
 Frequencies --   1001.2668              1029.2079              1042.5402
 Red. masses --      2.0196                 1.7988                 1.8286
 Frc consts  --      1.1929                 1.1226                 1.1710
 IR Inten    --      7.4525                10.9833                10.5974

                     22                     23                     24
                      A                      A                      A
 Frequencies --   1080.3401              1100.3387              1122.0222
 Red. masses --      1.9297                 2.3140                 3.1028
 Frc consts  --      1.3270                 1.6507                 2.3015
 IR Inten    --      6.0374                24.9773                41.3154

                     25                     26                     27
                      A                      A                      A
 Frequencies --   1171.7139              1193.6465              1235.4136
 Red. masses --      2.1605                 1.8458                 1.3987
 Frc consts  --      1.7476                 1.5495                 1.2577
 IR Inten    --     37.9509                62.2623                18.1586

                     28                     29                     30
                      A                      A                      A
 Frequencies --   1286.0713              1313.0876              1345.6202
 Red. masses --      1.3468                 1.3541                 1.4711
 Frc consts  --      1.3124                 1.3756                 1.5694
 IR Inten    --     19.3493                29.9006                 5.1437

                     31                     32                     33
                      A                      A                      A
 Frequencies --   1352.8305              1390.6246              1404.7323
 Red. masses --      1.2733                 2.0255                 1.3428
 Frc consts  --      1.3730                 2.3078                 1.5612
 IR Inten    --      5.0482                 1.1003                 3.6921

                     34                     35                     36
                      A                      A                      A
 Frequencies --   1409.6500              1428.3250              1468.3139
 Red. masses --      1.3140                 1.2805                 1.0909
 Frc consts  --      1.5383                 1.5392                 1.3858
 IR Inten    --     14.8621                 3.6740                 4.0039

                     37                     38                     39
                      A                      A                      A
 Frequencies --   1482.8884              1497.0252              1502.3784
 Red. masses --      1.0526                 1.0574                 1.0879
 Frc consts  --      1.3637                 1.3962                 1.4468
 IR Inten    --      3.0620                 1.0514                 2.6512

                     40                     41                     42
                      A                      A                      A
 Frequencies --   1702.4312              1790.1973              2871.0854
 Red. masses --      7.4257                10.5646                 1.0828
 Frc consts  --     12.6803                19.9483                 5.2588
 IR Inten    --     31.9146               248.8674               111.8032

                     43                     44                     45
                      A                      A                      A
 Frequencies --   2904.0140              2974.5661              3038.2027
 Red. masses --      1.0791                 1.0711                 1.0635
 Frc consts  --      5.3616                 5.5835                 5.7837
 IR Inten    --     43.8512                56.1371                12.0496

                     46                     47                     48
                      A                      A                      A
 Frequencies --   3047.1655              3081.1743              3095.5159
 Red. masses --      1.0341                 1.0967                 1.0941
 Frc consts  --      5.6572                 6.1344                 6.1769
 IR Inten    --     18.0323                13.7196                34.8382

                     49                     50                     51
                      A                      A                      A
 Frequencies --   3123.8073              3131.1057              3144.8444
 Red. masses --      1.1020                 1.1029                 1.0892
 Frc consts  --      6.3356                 6.3705                 6.3467
 IR Inten    --     15.7728                16.2343                12.4354

 - Thermochemistry -
 -------------------
 Temperature   298.150 Kelvin.  Pressure   1.00000 Atm.
 Atom     1 has atomic number  6 and mass  12.00000

 Molecular mass:   126.06808 amu.
 Principal axes and moments of inertia in atomic units:
                           1         2         3
     Eigenvalues --   569.990061626.793782077.93146
           X            0.99953  -0.03067  -0.00252
           Y            0.03068   0.99952   0.00320
           Z            0.00242  -0.00327   0.99999
 This molecule is an asymmetric top.
 Rotational symmetry number  1.
 Warning -- assumption of classical behavior for rotation
           may cause significant error
 Rotational temperatures (Kelvin)      0.15196     0.05324     0.04168
 Rotational constants (GHZ):           3.16627     1.10939     0.86853
 Zero-point vibrational energy     417476.2 (Joules/Mol)
                                   99.77920 (Kcal/Mol)
 Warning -- explicit consideration of  12 degrees of freedom as
           vibrations may cause significant error
 Vibrational temperatures:    131.95   148.48   271.18   308.19   344.45
          (Kelvin)            407.10   498.47   559.59   635.44   677.67
                              809.41   887.01  1046.91  1149.00  1191.22
                             1265.14  1303.63  1363.64  1440.60  1480.80
                             1499.98  1554.37  1583.14  1614.34  1685.83
                             1717.39  1777.48  1850.37  1889.24  1936.04
                             1946.42  2000.80  2021.09  2028.17  2055.04
                             2112.57  2133.54  2153.88  2161.58  2449.42
                             2575.69  4130.85  4178.22  4279.73  4371.29
                             4384.19  4433.12  4453.75  4494.46  4504.96
                             4524.72

 Zero-point correction=                           0.159008 (Hartree/Particle)
 Thermal correction to Energy=                    0.167645
 Thermal correction to Enthalpy=                  0.168589
 Thermal correction to Gibbs Free Energy=         0.125545
 Sum of electronic and zero-point Energies=           -423.056158
 Sum of electronic and thermal Energies=              -423.047522
 Sum of electronic and thermal Enthalpies=            -423.046577
 Sum of electronic and thermal Free Energies=         -423.089621

                     E (Thermal)             CV                S
                      KCal/Mol        Cal/Mol-Kelvin    Cal/Mol-Kelvin
 Total                  105.199             32.245             90.593
 Electronic               0.000              0.000              0.000
 Translational            0.889              2.981             40.409
 Rotational               0.889              2.981             29.045
 Vibrational            103.421             26.283             21.139
 Vibration     1          0.602              1.955              3.623
 Vibration     2          0.605              1.947              3.393
 Vibration     3          0.633              1.856              2.243
 Vibration     4          0.644              1.819              2.008
 Vibration     5          0.657              1.780              1.807
 Vibration     6          0.682              1.705              1.516
 Vibration     7          0.724              1.582              1.182
 Vibration     8          0.757              1.494              1.004
 Vibration     9          0.801              1.379              0.821
 Vibration    10          0.828              1.314              0.735
 Vibration    11          0.918              1.112              0.519
 Vibration    12          0.976              0.997              0.422

 Normal termination of Gaussian 09 at Tue Jan 28 08:54:25 2020.
