 Gaussian 09, Revision D.01,
 Gaussian 09:  ES64L-G09RevD.01 24-Apr-2013

 -----------------------------
 # b3lyp 6-31G(2df,p) opt Freq
 -----------------------------

 -----
 titel
 -----
 Symbolic Z-matrix:
 Charge =  0 Multiplicity = 1

 SCF Done:  E(RB3LYP) =  -423.181619439     A.U. after   13 cycles
 Optimization completed.
    -- Stationary point found.
 Normal termination of Gaussian 09 at Tue Jan 28 12:12:19 2020.

 ----------------------------------------------------------------------
 #N Geom=AllCheck Guess=TCheck SCRF=Check GenChk RB3LYP/6-31G(2df,p) Fr
 eq
 ----------------------------------------------------------------------

 Structure from the checkpoint file:  "/scratch/puck/g09_1f80ea5f-f21d-4e57-a469-d8c4c6e94fb6/Gau-117638.chk"
 -----
 titel
 -----
 Charge =  0 Multiplicity = 1

                         Standard orientation:
 ---------------------------------------------------------------------
 Center     Atomic      Atomic             Coordinates (Angstroms)
 Number     Number       Type             X           Y           Z
 ---------------------------------------------------------------------
      1          8           0       -2.809997   -0.483687    0.071051
      2          6           0       -1.947619    0.589709   -0.282911
      3          6           0       -0.494653    0.228661   -0.176383
      4          6           0        0.136321   -0.951668   -0.911935
      5          6           0        1.537980   -0.791533   -0.286078
      6          6           0        1.884574    0.679076   -0.612559
      7          6           0        0.624112    1.262426    0.016509
      8          6           0        0.289529    0.288811    1.122609
      9          8           0        1.253546   -0.745370    1.125611
     10          1           0       -2.554105   -0.777831    0.951838
     11          1           0       -2.208370    0.841320   -1.317384
     12          1           0       -2.152178    1.485893    0.326171
     13          1           0       -0.333262   -1.903621   -0.653430
     14          1           0        0.143261   -0.832731   -1.999483
     15          1           0        2.286221   -1.555413   -0.485400
     16          1           0        2.799181    1.008400   -0.111851
     17          1           0        1.968823    0.863484   -1.686994
     18          1           0        0.426799    2.323522    0.092026
     19          1           0       -0.106230    0.546534    2.095692
 ---------------------------------------------------------------------

 SCF Done:  E(RB3LYP) =  -423.181619439     A.U. after    1 cycles

 The electronic state is 1-A.
 Alpha  occ. eigenvalues --  -19.14174 -19.13337 -10.23424 -10.23218 -10.23076
 Alpha  occ. eigenvalues --  -10.19387 -10.19221 -10.18668 -10.18266  -1.05499
 Alpha  occ. eigenvalues --   -1.01416  -0.86201  -0.76378  -0.72782  -0.68016
 Alpha  occ. eigenvalues --   -0.59672  -0.56780  -0.54771  -0.53482  -0.48168
 Alpha  occ. eigenvalues --   -0.46458  -0.45762  -0.43372  -0.42303  -0.40565
 Alpha  occ. eigenvalues --   -0.37738  -0.37450  -0.35292  -0.34062  -0.33131
 Alpha  occ. eigenvalues --   -0.30759  -0.28144  -0.26284  -0.23325
 Alpha virt. eigenvalues --    0.07696   0.09648   0.11319   0.11980   0.13204
 Alpha virt. eigenvalues --    0.13523   0.14899   0.15266   0.16133   0.16759
 Alpha virt. eigenvalues --    0.17715   0.18944   0.20132   0.21133   0.21732

 Mulliken charges:
               1
     1  O   -0.414344
     2  C   -0.178519
     3  C    0.267524
     4  C   -0.271227
     5  C    0.049112
     6  C   -0.231597
     7  C   -0.171060
     8  C    0.045104
     9  O   -0.261175
    10  H    0.282553
    11  H    0.111024
    12  H    0.082607
    13  H    0.110001
    14  H    0.099675
    15  H    0.082145
    16  H    0.107746
    17  H    0.102348
    18  H    0.088435
    19  H    0.099649
 Sum of Mulliken charges =   0.00000

 Dipole moment (field-independent basis, Debye):
    X=              0.7693    Y=              1.1208    Z=             -0.3071  Tot=              1.3936
 Quadrupole moment (field-independent basis, Debye-Ang):
   XX=            -58.7277   YY=            -52.0472   ZZ=            -51.3581
   XY=             -1.0716   XZ=             -5.3840   YZ=              1.0110

  Exact polarizability:  80.549   0.533  70.484  -2.032   1.132  68.697
 Approx polarizability: 108.796   1.875 106.973   0.103  -1.423 109.284

                      1                      2                      3
                      A                      A                      A
 Frequencies --     95.8379               146.8662               262.6808
 Red. masses --      3.5340                 4.1679                 1.9284
 Frc consts  --      0.0191                 0.0530                 0.0784
 IR Inten    --      4.0231                 0.2099                20.0169

                      4                      5                      6
                      A                      A                      A
 Frequencies --    327.8181               380.2576               418.2169
 Red. masses --      1.5348                 2.0220                 1.7123
 Frc consts  --      0.0972                 0.1723                 0.1765
 IR Inten    --     51.3032                52.5926                 0.5154

                      7                      8                      9
                      A                      A                      A
 Frequencies --    485.1913               551.3099               616.9079
 Red. masses --      2.4314                 4.6295                 4.2567
 Frc consts  --      0.3372                 0.8290                 0.9545
 IR Inten    --      2.5822                 6.9661                10.7866

                     10                     11                     12
                      A                      A                      A
 Frequencies --    695.3971               729.2552               806.0168
 Red. masses --      4.8403                 3.3328                 3.6405
 Frc consts  --      1.3791                 1.0443                 1.3935
 IR Inten    --      0.5919                12.2744                 2.3707

                     13                     14                     15
                      A                      A                      A
 Frequencies --    870.6915               879.6373               895.6473
 Red. masses --      2.2500                 1.7208                 2.5165
 Frc consts  --      1.0050                 0.7845                 1.1894
 IR Inten    --     24.7688                10.8624                16.4713

                     16                     17                     18
                      A                      A                      A
 Frequencies --    903.6477               940.1047               956.2282
 Red. masses --      2.0853                 2.3420                 2.1540
 Frc consts  --      1.0033                 1.2195                 1.1604
 IR Inten    --      5.7382                 2.4047                11.8590

                     19                     20                     21
                      A                      A                      A
 Frequencies --    977.0817               982.2297              1014.3638
 Red. masses --      2.1413                 1.7474                 1.6196
 Frc consts  --      1.2045                 0.9933                 0.9819
 IR Inten    --      8.1354                10.4700                10.8612

                     22                     23                     24
                      A                      A                      A
 Frequencies --   1033.6751              1050.1969              1068.5692
 Red. masses --      1.7986                 3.2497                 2.8418
 Frc consts  --      1.1323                 2.1117                 1.9118
 IR Inten    --      2.9834                55.0802                35.9669

                     25                     26                     27
                      A                      A                      A
 Frequencies --   1089.4228              1135.6003              1150.3168
 Red. masses --      2.5652                 1.3695                 1.5901
 Frc consts  --      1.7937                 1.0406                 1.2397
 IR Inten    --     18.6092                 3.0680                22.0981

                     28                     29                     30
                      A                      A                      A
 Frequencies --   1169.8083              1193.4123              1241.0875
 Red. masses --      1.1850                 1.4819                 1.4098
 Frc consts  --      0.9554                 1.2435                 1.2794
 IR Inten    --      5.2861                25.9192                 1.8617

                     31                     32                     33
                      A                      A                      A
 Frequencies --   1256.8030              1276.5740              1284.0104
 Red. masses --      1.3569                 2.3016                 1.6974
 Frc consts  --      1.2628                 2.2099                 1.6488
 IR Inten    --      4.4880                 4.7118                 5.8688

                     34                     35                     36
                      A                      A                      A
 Frequencies --   1314.6006              1342.6953              1375.0920
 Red. masses --      2.0616                 1.5923                 1.2920
 Frc consts  --      2.0992                 1.6913                 1.4393
 IR Inten    --      3.6405                 5.8835                 1.2146

                     37                     38                     39
                      A                      A                      A
 Frequencies --   1414.4568              1427.6564              1476.8012
 Red. masses --      1.8694                 1.6754                 1.1199
 Frc consts  --      2.2036                 2.0120                 1.4390
 IR Inten    --     13.2562                67.9050                 2.4316

                     40                     41                     42
                      A                      A                      A
 Frequencies --   1495.8209              1504.5807              2964.5902
 Red. masses --      1.1263                 1.0856                 1.0712
 Frc consts  --      1.4847                 1.4479                 5.5471
 IR Inten    --      2.3072                 0.4861                60.9582

                     43                     44                     45
                      A                      A                      A
 Frequencies --   3056.8554              3058.3004              3063.7688
 Red. masses --      1.0884                 1.0598                 1.0592
 Frc consts  --      5.9922                 5.8401                 5.8576
 IR Inten    --     23.7341                33.2375                27.0022

                     46                     47                     48
                      A                      A                      A
 Frequencies --   3111.3512              3116.5806              3152.0718
 Red. masses --      1.1068                 1.1066                 1.0912
 Frc consts  --      6.3126                 6.3328                 6.3875
 IR Inten    --     16.1338                21.2461                31.6405

                     49                     50                     51
                      A                      A                      A
 Frequencies --   3202.2517              3213.1341              3807.5355
 Red. masses --      1.0906                 1.0960                 1.0659
 Frc consts  --      6.5892                 6.6670                 9.1049
 IR Inten    --      5.6428                11.7216                12.4992

 - Thermochemistry -
 -------------------
 Temperature   298.150 Kelvin.  Pressure   1.00000 Atm.
 Atom     1 has atomic number  8 and mass  15.99491

 Molecular mass:   126.06808 amu.
 Principal axes and moments of inertia in atomic units:
                           1         2         3
     Eigenvalues --   522.018271346.350721393.01768
           X            0.99977   0.00080  -0.02139
           Y            0.00259   0.98744   0.15799
           Z            0.02124  -0.15801   0.98721
 This molecule is an asymmetric top.
 Rotational symmetry number  1.
 Warning -- assumption of classical behavior for rotation
           may cause significant error
 Rotational temperatures (Kelvin)      0.16592     0.06433     0.06218
 Rotational constants (GHZ):           3.45724     1.34047     1.29556
 Zero-point vibrational energy     424572.7 (Joules/Mol)
                                  101.47530 (Kcal/Mol)
 Warning -- explicit consideration of   9 degrees of freedom as
           vibrations may cause significant error
 Vibrational temperatures:    137.89   211.31   377.94   471.66   547.11
          (Kelvin)            601.72   698.08   793.21   887.59  1000.52
                             1049.23  1159.68  1252.73  1265.60  1288.64
                             1300.15  1352.60  1375.80  1405.80  1413.21
                             1459.44  1487.23  1511.00  1537.43  1567.43
                             1633.87  1655.05  1683.09  1717.05  1785.65
                             1808.26  1836.70  1847.40  1891.41  1931.84
                             1978.45  2035.09  2054.08  2124.78  2152.15
                             2164.75  4265.38  4398.13  4400.21  4408.07
                             4476.53  4484.06  4535.12  4607.32  4622.98
                             5478.19

 Zero-point correction=                           0.161711 (Hartree/Particle)
 Thermal correction to Energy=                    0.169015
 Thermal correction to Enthalpy=                  0.169959
 Thermal correction to Gibbs Free Energy=         0.129957
 Sum of electronic and zero-point Energies=           -423.019908
 Sum of electronic and thermal Energies=              -423.012605
 Sum of electronic and thermal Enthalpies=            -423.011661
 Sum of electronic and thermal Free Energies=         -423.051662

                     E (Thermal)             CV                S
                      KCal/Mol        Cal/Mol-Kelvin    Cal/Mol-Kelvin
 Total                  106.058             29.570             84.191
 Electronic               0.000              0.000              0.000
 Translational            0.889              2.981             40.409
 Rotational               0.889              2.981             28.373
 Vibrational            104.281             23.609             15.410
 Vibration     1          0.603              1.952              3.537
 Vibration     2          0.617              1.906              2.712
 Vibration     3          0.670              1.741              1.644
 Vibration     4          0.711              1.620              1.271
 Vibration     5          0.750              1.512              1.038
 Vibration     6          0.781              1.431              0.898
 Vibration     7          0.841              1.283              0.696
 Vibration     8          0.907              1.137              0.541
 Vibration     9          0.977              0.996              0.421

 Normal termination of Gaussian 09 at Tue Jan 28 13:00:33 2020.
