 Gaussian 09, Revision D.01,
 Gaussian 09:  ES64L-G09RevD.01 24-Apr-2013

 -----------------------------
 # b3lyp 6-31G(2df,p) opt Freq
 -----------------------------

 -----
 titel
 -----
 Symbolic Z-matrix:
 Charge =  0 Multiplicity = 1

 SCF Done:  E(RB3LYP) =  -423.152052604     A.U. after   12 cycles
 Optimization completed.
    -- Stationary point found.
 Normal termination of Gaussian 09 at Mon Jan 27 22:13:15 2020.

 ----------------------------------------------------------------------
 #N Geom=AllCheck Guess=TCheck SCRF=Check GenChk RB3LYP/6-31G(2df,p) Fr
 eq
 ----------------------------------------------------------------------

 Structure from the checkpoint file:  "/scratch/puck/g09_0d324009-46ad-4136-9e46-a8883fa56c67/Gau-29166.chk"
 -----
 titel
 -----
 Charge =  0 Multiplicity = 1

                         Standard orientation:
 ---------------------------------------------------------------------
 Center     Atomic      Atomic             Coordinates (Angstroms)
 Number     Number       Type             X           Y           Z
 ---------------------------------------------------------------------
      1          8           0       -3.136171    0.008032   -0.276144
      2          6           0       -1.885066    0.027296    0.349263
      3          6           0       -0.756280    0.780285   -0.291189
      4          6           0       -0.759947   -0.767670   -0.249808
      5          6           0        0.451378   -0.757009    0.687317
      6          8           0        1.664232   -1.193805    0.108593
      7          6           0        2.169854   -0.154104   -0.722266
      8          6           0        1.796980    1.151441   -0.004707
      9          6           0        0.450375    0.821852    0.652386
     10          1           0       -3.006447   -0.106906   -1.223520
     11          1           0       -2.027839    0.063293    1.427947
     12          1           0       -0.936261    1.453494   -1.123541
     13          1           0       -0.937311   -1.494039   -1.036143
     14          1           0        0.336232   -1.279532    1.641708
     15          1           0        3.247011   -0.307782   -0.826317
     16          1           0        1.717201   -0.197368   -1.724009
     17          1           0        2.537553    1.378366    0.768376
     18          1           0        1.744020    2.006881   -0.684046
     19          1           0        0.297584    1.357234    1.593976
 ---------------------------------------------------------------------

 SCF Done:  E(RB3LYP) =  -423.152052604     A.U. after    1 cycles

 The electronic state is 1-A.
 Alpha  occ. eigenvalues --  -19.14603 -19.13733 -10.23994 -10.23267 -10.22558
 Alpha  occ. eigenvalues --  -10.19375 -10.19194 -10.18852 -10.18656  -1.03808
 Alpha  occ. eigenvalues --   -1.03104  -0.88382  -0.77139  -0.71610  -0.63412
 Alpha  occ. eigenvalues --   -0.61960  -0.59117  -0.53967  -0.52253  -0.49896
 Alpha  occ. eigenvalues --   -0.48066  -0.45880  -0.43342  -0.41491  -0.40744
 Alpha  occ. eigenvalues --   -0.37265  -0.36993  -0.35419  -0.33922  -0.33099
 Alpha  occ. eigenvalues --   -0.30872  -0.26064  -0.25947  -0.23532
 Alpha virt. eigenvalues --    0.07167   0.09582   0.09865   0.10900   0.11870
 Alpha virt. eigenvalues --    0.13689   0.14287   0.14580   0.15186   0.16560
 Alpha virt. eigenvalues --    0.18013   0.18068   0.20821   0.21130   0.22792

 Mulliken charges:
               1
     1  O   -0.442184
     2  C    0.135570
     3  C   -0.119877
     4  C   -0.146761
     5  C    0.100404
     6  O   -0.258006
     7  C   -0.084869
     8  C   -0.235930
     9  C   -0.065364
    10  H    0.284132
    11  H    0.100579
    12  H    0.080889
    13  H    0.088127
    14  H    0.079389
    15  H    0.109318
    16  H    0.094060
    17  H    0.107899
    18  H    0.101443
    19  H    0.071181
 Sum of Mulliken charges =   0.00000

 Dipole moment (field-independent basis, Debye):
    X=              0.7167    Y=              1.1837    Z=             -1.1285  Tot=              1.7856
 Quadrupole moment (field-independent basis, Debye-Ang):
   XX=            -58.8001   YY=            -55.2678   ZZ=            -48.5282
   XY=              3.6695   XZ=              2.2016   YZ=              0.2541

  Exact polarizability:  87.424   2.419  67.214  -0.439   0.040  68.512
 Approx polarizability: 114.758   0.476 106.142  -0.656  -1.110 105.163

                      1                      2                      3
                      A                      A                      A
 Frequencies --    146.2195               149.3191               177.0466
 Red. masses --      3.4381                 1.5265                 1.5572
 Frc consts  --      0.0433                 0.0201                 0.0288
 IR Inten    --      2.3780                36.2374                46.4571

                      4                      5                      6
                      A                      A                      A
 Frequencies --    244.5045               268.5588               383.5172
 Red. masses --      2.4484                 5.5775                 2.7779
 Frc consts  --      0.0862                 0.2370                 0.2407
 IR Inten    --      4.2327                10.8644                 4.4407

                      7                      8                      9
                      A                      A                      A
 Frequencies --    423.8028               456.4951               606.5895
 Red. masses --      5.0468                 3.2006                 3.0701
 Frc consts  --      0.5341                 0.3930                 0.6656
 IR Inten    --      0.4222                 1.6954                 1.7953

                     10                     11                     12
                      A                      A                      A
 Frequencies --    663.4852               787.6215               847.8777
 Red. masses --      3.4517                 1.9021                 2.1632
 Frc consts  --      0.8952                 0.6952                 0.9163
 IR Inten    --      4.6148                 8.1108                 4.6448

                     13                     14                     15
                      A                      A                      A
 Frequencies --    858.1123               886.2345               907.1272
 Red. masses --      2.1838                 3.2418                 2.2781
 Frc consts  --      0.9474                 1.5001                 1.1045
 IR Inten    --      5.9617                 3.0490                25.2161

                     16                     17                     18
                      A                      A                      A
 Frequencies --    911.4693               930.1826               953.6930
 Red. masses --      2.4896                 3.6426                 1.9728
 Frc consts  --      1.2186                 1.8569                 1.0572
 IR Inten    --      3.6890                 8.9678                12.6838

                     19                     20                     21
                      A                      A                      A
 Frequencies --    976.5963              1008.1361              1019.8035
 Red. masses --      2.0592                 1.8741                 1.8026
 Frc consts  --      1.1571                 1.1222                 1.1045
 IR Inten    --     25.1072                 7.7995                 3.4258

                     22                     23                     24
                      A                      A                      A
 Frequencies --   1054.8535              1087.1267              1099.4053
 Red. masses --      1.7976                 1.6674                 2.5867
 Frc consts  --      1.1785                 1.1611                 1.8421
 IR Inten    --     13.7000                10.4732                97.5923

                     25                     26                     27
                      A                      A                      A
 Frequencies --   1117.4430              1133.2770              1153.3721
 Red. masses --      1.6838                 1.9837                 2.2371
 Frc consts  --      1.2388                 1.5011                 1.7534
 IR Inten    --     13.8335                85.5225                 6.7038

                     28                     29                     30
                      A                      A                      A
 Frequencies --   1184.3414              1223.5299              1232.2421
 Red. masses --      1.7755                 1.3866                 1.3219
 Frc consts  --      1.4673                 1.2230                 1.1826
 IR Inten    --      4.2553                 1.9275                 8.8169

                     31                     32                     33
                      A                      A                      A
 Frequencies --   1244.7593              1269.0870              1277.9086
 Red. masses --      1.6717                 1.4278                 1.5375
 Frc consts  --      1.5261                 1.3549                 1.4794
 IR Inten    --     29.4705                 1.6269                 3.8265

                     34                     35                     36
                      A                      A                      A
 Frequencies --   1308.0804              1335.0897              1344.0072
 Red. masses --      1.4791                 1.5148                 1.3920
 Frc consts  --      1.4912                 1.5909                 1.4815
 IR Inten    --      1.9146                 1.2233                 5.1429

                     37                     38                     39
                      A                      A                      A
 Frequencies --   1364.1417              1395.8979              1449.3315
 Red. masses --      1.4754                 1.3896                 1.7358
 Frc consts  --      1.6176                 1.5954                 2.1483
 IR Inten    --      9.6829                 8.4313               112.3990

                     40                     41                     42
                      A                      A                      A
 Frequencies --   1485.8211              1517.3073              2993.4727
 Red. masses --      1.0954                 1.0935                 1.0706
 Frc consts  --      1.4249                 1.4832                 5.6523
 IR Inten    --      2.0524                 0.6997                51.6519

                     43                     44                     45
                      A                      A                      A
 Frequencies --   3049.7896              3059.2691              3069.9626
 Red. masses --      1.0676                 1.0808                 1.0857
 Frc consts  --      5.8506                 5.9600                 6.0288
 IR Inten    --      6.3473                45.3495                56.8231

                     46                     47                     48
                      A                      A                      A
 Frequencies --   3092.3483              3104.1612              3121.8449
 Red. masses --      1.0934                 1.1050                 1.0893
 Frc consts  --      6.1603                 6.2733                 6.2546
 IR Inten    --     30.1621                36.5802                26.3967

                     49                     50                     51
                      A                      A                      A
 Frequencies --   3155.6705              3169.7308              3812.4035
 Red. masses --      1.0886                 1.0956                 1.0658
 Frc consts  --      6.3870                 6.4856                 9.1269
 IR Inten    --     18.1388                13.5010                18.8128

 - Thermochemistry -
 -------------------
 Temperature   298.150 Kelvin.  Pressure   1.00000 Atm.
 Atom     1 has atomic number  8 and mass  15.99491

 Molecular mass:   126.06808 amu.
 Principal axes and moments of inertia in atomic units:
                           1         2         3
     Eigenvalues --   427.818371550.582151709.84486
           X            0.99982   0.01872  -0.00282
           Y           -0.01870   0.99978   0.00967
           Z            0.00300  -0.00961   0.99995
 This molecule is an asymmetric top.
 Rotational symmetry number  1.
 Rotational temperatures (Kelvin)      0.20245     0.05586     0.05066
 Rotational constants (GHZ):           4.21848     1.16391     1.05550
 Zero-point vibrational energy     421755.8 (Joules/Mol)
                                  100.80206 (Kcal/Mol)
 Warning -- explicit consideration of   9 degrees of freedom as
           vibrations may cause significant error
 Vibrational temperatures:    210.38   214.84   254.73   351.79   386.40
          (Kelvin)            551.80   609.76   656.79   872.75   954.61
                             1133.21  1219.91  1234.63  1275.09  1305.15
                             1311.40  1338.32  1372.15  1405.10  1450.48
                             1467.27  1517.70  1564.13  1581.80  1607.75
                             1630.53  1659.44  1704.00  1760.38  1772.92
                             1790.93  1825.93  1838.62  1882.03  1920.89
                             1933.72  1962.69  2008.38  2085.26  2137.76
                             2183.06  4306.93  4387.96  4401.60  4416.99
                             4449.19  4466.19  4491.63  4540.30  4560.53
                             5485.19

 Zero-point correction=                           0.160638 (Hartree/Particle)
 Thermal correction to Energy=                    0.168343
 Thermal correction to Enthalpy=                  0.169287
 Thermal correction to Gibbs Free Energy=         0.128544
 Sum of electronic and zero-point Energies=           -422.991414
 Sum of electronic and thermal Energies=              -422.983710
 Sum of electronic and thermal Enthalpies=            -422.982765
 Sum of electronic and thermal Free Energies=         -423.023509

                     E (Thermal)             CV                S
                      KCal/Mol        Cal/Mol-Kelvin    Cal/Mol-Kelvin
 Total                  105.637             30.262             85.751
 Electronic               0.000              0.000              0.000
 Translational            0.889              2.981             40.409
 Rotational               0.889              2.981             28.519
 Vibrational            103.859             24.301             16.824
 Vibration     1          0.617              1.907              2.721
 Vibration     2          0.618              1.903              2.681
 Vibration     3          0.628              1.871              2.359
 Vibration     4          0.660              1.772              1.770
 Vibration     5          0.673              1.731              1.605
 Vibration     6          0.753              1.505              1.025
 Vibration     7          0.786              1.418              0.879
 Vibration     8          0.815              1.347              0.776
 Vibration     9          0.965              1.018              0.438

 Optimization completed.
    -- Stationary point found.
 Normal termination of Gaussian 09 at Tue Jan 28 00:28:54 2020.
