 Gaussian 09, Revision D.01,
 Gaussian 09:  ES64L-G09RevD.01 24-Apr-2013

 -----------------------------
 # b3lyp 6-31G(2df,p) opt Freq
 -----------------------------

 -----
 titel
 -----
 Symbolic Z-matrix:
 Charge =  0 Multiplicity = 1

 SCF Done:  E(RB3LYP) =  -423.126956978     A.U. after   13 cycles
 Optimization completed.
    -- Stationary point found.
 Normal termination of Gaussian 09 at Mon Jan 27 22:07:32 2020.

 ----------------------------------------------------------------------
 #N Geom=AllCheck Guess=TCheck SCRF=Check GenChk RB3LYP/6-31G(2df,p) Fr
 eq
 ----------------------------------------------------------------------

 Structure from the checkpoint file:  "/scratch/puck/g09_5b134628-8319-48ba-acd6-e97068c4769c/Gau-159483.chk"
 -----
 titel
 -----
 Charge =  0 Multiplicity = 1

                         Standard orientation:
 ---------------------------------------------------------------------
 Center     Atomic      Atomic             Coordinates (Angstroms)
 Number     Number       Type             X           Y           Z
 ---------------------------------------------------------------------
      1          6           0       -2.469243   -0.295151   -0.725851
      2          6           0       -1.090104   -0.375560   -0.142566
      3          6           0       -0.596558   -1.275339    0.995711
      4          6           0        0.676767   -0.392094    1.034847
      5          6           0        1.378044   -0.688374   -0.323650
      6          8           0        2.595153   -0.006156   -0.525879
      7          6           0        0.173020   -0.024851   -0.987309
      8          6           0       -0.159552    0.740040    0.267239
      9          8           0       -0.312906    2.094728    0.419829
     10          1           0       -3.226265   -0.206766    0.062551
     11          1           0       -2.569427    0.576002   -1.381833
     12          1           0       -2.710335   -1.186153   -1.316844
     13          1           0       -1.218418   -1.162983    1.889994
     14          1           0       -0.447201   -2.342241    0.790384
     15          1           0        1.275776   -0.276024    1.936170
     16          1           0        1.585926   -1.740951   -0.543676
     17          1           0        2.415785    0.938822   -0.446146
     18          1           0        0.068050    0.301263   -2.015142
     19          1           0       -0.906101    2.258424    1.162427
 ---------------------------------------------------------------------

 SCF Done:  E(RB3LYP) =  -423.126956978     A.U. after    1 cycles

 The electronic state is 1-A.
 Alpha  occ. eigenvalues --  -19.16256 -19.12939 -10.23868 -10.22823 -10.19794
 Alpha  occ. eigenvalues --  -10.18665 -10.18488 -10.18379 -10.18318  -1.04640
 Alpha  occ. eigenvalues --   -1.01467  -0.91702  -0.74356  -0.71668  -0.66993
 Alpha  occ. eigenvalues --   -0.61739  -0.56906  -0.55251  -0.50717  -0.47689
 Alpha  occ. eigenvalues --   -0.45514  -0.44392  -0.42736  -0.41392  -0.39696
 Alpha  occ. eigenvalues --   -0.38806  -0.37250  -0.36295  -0.33756  -0.32799
 Alpha  occ. eigenvalues --   -0.30880  -0.26024  -0.24120  -0.23286
 Alpha virt. eigenvalues --    0.06353   0.08887   0.10862   0.11579   0.11998
 Alpha virt. eigenvalues --    0.12831   0.13823   0.15431   0.15778   0.17428
 Alpha virt. eigenvalues --    0.17937   0.18666   0.20221   0.21360   0.23393

 Mulliken charges:
               1
     1  C   -0.508768
     2  C    0.248764
     3  C   -0.285964
     4  C   -0.178832
     5  C    0.163008
     6  O   -0.448412
     7  C   -0.200142
     8  C    0.304324
     9  O   -0.455631
    10  H    0.113893
    11  H    0.125834
    12  H    0.124488
    13  H    0.090317
    14  H    0.090826
    15  H    0.073584
    16  H    0.078033
    17  H    0.284072
    18  H    0.089455
    19  H    0.291152
 Sum of Mulliken charges =   0.00000

 Dipole moment (field-independent basis, Debye):
    X=             -2.3666    Y=              0.3699    Z=              1.1834  Tot=              2.6717
 Quadrupole moment (field-independent basis, Debye-Ang):
   XX=            -57.2040   YY=            -52.5969   ZZ=            -50.5780
   XY=              0.2419   XZ=             -0.0375   YZ=              1.8785

  Exact polarizability:  82.805   0.550  73.167  -0.342  -0.585  70.121
 Approx polarizability: 113.144   1.400 112.794  -3.261   1.370 106.830

                      1                      2                      3
                      A                      A                      A
 Frequencies --    146.4792               172.4403               194.0506
 Red. masses --      5.1053                 3.0163                 1.0480
 Frc consts  --      0.0645                 0.0528                 0.0233
 IR Inten    --      0.9668                 0.6082                 0.6829

                      4                      5                      6
                      A                      A                      A
 Frequencies --    233.2772               305.1916               330.9986
 Red. masses --      2.6736                 2.4539                 1.4752
 Frc consts  --      0.0857                 0.1347                 0.0952
 IR Inten    --      2.3160                 3.2782                58.2658

                      7                      8                      9
                      A                      A                      A
 Frequencies --    334.0213               384.9251               417.4302
 Red. masses --      1.1786                 2.2152                 2.6569
 Frc consts  --      0.0775                 0.1934                 0.2728
 IR Inten    --     64.0229                35.7264                24.8370

                     10                     11                     12
                      A                      A                      A
 Frequencies --    461.0778               513.7933               617.0567
 Red. masses --      3.4031                 3.2469                 3.4289
 Frc consts  --      0.4263                 0.5050                 0.7692
 IR Inten    --     10.7497                 7.4175                 1.0165

                     13                     14                     15
                      A                      A                      A
 Frequencies --    650.8876               740.3233               829.7246
 Red. masses --      4.1879                 4.3305                 3.4627
 Frc consts  --      1.0453                 1.3984                 1.4045
 IR Inten    --      7.1707                 6.6402                 8.9849

                     16                     17                     18
                      A                      A                      A
 Frequencies --    843.4712               898.5145               913.1128
 Red. masses --      2.8205                 1.9916                 1.8340
 Frc consts  --      1.1823                 0.9473                 0.9009
 IR Inten    --      7.9324                11.3803                 8.3580

                     19                     20                     21
                      A                      A                      A
 Frequencies --    928.0890               964.7898               993.1077
 Red. masses --      2.1638                 1.5078                 1.6696
 Frc consts  --      1.0981                 0.8269                 0.9702
 IR Inten    --      1.6893                 5.0173                 3.3728

                     22                     23                     24
                      A                      A                      A
 Frequencies --   1003.5777              1041.3171              1066.4416
 Red. masses --      1.8878                 1.9091                 2.2294
 Frc consts  --      1.1202                 1.2197                 1.4938
 IR Inten    --      9.5410                17.2985                28.0508

                     25                     26                     27
                      A                      A                      A
 Frequencies --   1099.8311              1135.6268              1138.5267
 Red. masses --      1.9991                 1.8957                 1.6239
 Frc consts  --      1.4248                 1.4404                 1.2402
 IR Inten    --     61.6382                 2.9359                 1.5776

                     28                     29                     30
                      A                      A                      A
 Frequencies --   1179.4038              1216.3892              1229.6966
 Red. masses --      1.5887                 3.0054                 1.5030
 Frc consts  --      1.3020                 2.6200                 1.3391
 IR Inten    --     13.4174                40.8111                 5.7759

                     31                     32                     33
                      A                      A                      A
 Frequencies --   1240.5627              1266.5145              1292.6213
 Red. masses --      1.6568                 1.7031                 1.5945
 Frc consts  --      1.5023                 1.6096                 1.5697
 IR Inten    --     25.1710                23.3353                 4.2004

                     34                     35                     36
                      A                      A                      A
 Frequencies --   1296.5325              1364.5674              1416.4067
 Red. masses --      1.6861                 2.1430                 1.3227
 Frc consts  --      1.6699                 2.3510                 1.5635
 IR Inten    --    113.9012                 8.1107                 6.1488

                     37                     38                     39
                      A                      A                      A
 Frequencies --   1436.4873              1471.8116              1488.3808
 Red. masses --      1.4090                 2.1045                 1.0823
 Frc consts  --      1.7131                 2.6860                 1.4126
 IR Inten    --     90.0268                22.2444                10.5432

                     40                     41                     42
                      A                      A                      A
 Frequencies --   1498.3820              1513.5114              3020.6007
 Red. masses --      1.0882                 1.4771                 1.0373
 Frc consts  --      1.4394                 1.9936                 5.5765
 IR Inten    --      2.5355                23.6923                35.6578

                     43                     44                     45
                      A                      A                      A
 Frequencies --   3025.8344              3055.8502              3078.3077
 Red. masses --      1.0568                 1.0849                 1.1018
 Frc consts  --      5.7007                 5.9692                 6.1516
 IR Inten    --     53.2881                51.4438                 5.4348

                     46                     47                     48
                      A                      A                      A
 Frequencies --   3080.0833              3095.4680              3137.9362
 Red. masses --      1.1051                 1.0999                 1.0915
 Frc consts  --      6.1770                 6.2097                 6.3325
 IR Inten    --     56.4505                18.0604                27.3872

                     49                     50                     51
                      A                      A                      A
 Frequencies --   3192.4662              3778.3588              3781.1571
 Red. masses --      1.0933                 1.0660                 1.0653
 Frc consts  --      6.5650                 8.9667                 8.9737
 IR Inten    --      9.0891                20.1506                13.3949

 - Thermochemistry -
 -------------------
 Temperature   298.150 Kelvin.  Pressure   1.00000 Atm.
 Atom     1 has atomic number  6 and mass  12.00000

 Molecular mass:   126.06808 amu.
 Principal axes and moments of inertia in atomic units:
                           1         2         3
     Eigenvalues --   693.986481202.810151397.47311
           X            0.99972   0.01532   0.01783
           Y           -0.01492   0.99963  -0.02266
           Z           -0.01817   0.02239   0.99958
 This molecule is an asymmetric top.
 Rotational symmetry number  1.
 Warning -- assumption of classical behavior for rotation
           may cause significant error
 Rotational temperatures (Kelvin)      0.12481     0.07201     0.06198
 Rotational constants (GHZ):           2.60054     1.50044     1.29143
 Zero-point vibrational energy     415794.5 (Joules/Mol)
                                   99.37727 (Kcal/Mol)
 Warning -- explicit consideration of  12 degrees of freedom as
           vibrations may cause significant error
 Vibrational temperatures:    210.75   248.10   279.20   335.63   439.10
          (Kelvin)            476.23   480.58   553.82   600.59   663.39
                              739.23   887.81   936.48  1065.16  1193.79
                             1213.57  1292.76  1313.76  1335.31  1388.12
                             1428.86  1443.92  1498.22  1534.37  1582.41
                             1633.91  1638.08  1696.90  1750.11  1769.26
                             1784.89  1822.23  1859.79  1865.42  1963.31
                             2037.89  2066.78  2117.61  2141.45  2155.83
                             2177.60  4345.97  4353.50  4396.68  4428.99
                             4431.55  4453.68  4514.78  4593.24  5436.21
                             5440.23

 Zero-point correction=                           0.158368 (Hartree/Particle)
 Thermal correction to Energy=                    0.166856
 Thermal correction to Enthalpy=                  0.167800
 Thermal correction to Gibbs Free Energy=         0.125947
 Sum of electronic and zero-point Energies=           -422.968589
 Sum of electronic and thermal Energies=              -422.960101
 Sum of electronic and thermal Enthalpies=            -422.959157
 Sum of electronic and thermal Free Energies=         -423.001010

                     E (Thermal)             CV                S
                      KCal/Mol        Cal/Mol-Kelvin    Cal/Mol-Kelvin
 Total                  104.704             33.533             88.086
 Electronic               0.000              0.000              0.000
 Translational            0.889              2.981             40.409
 Rotational               0.889              2.981             28.547
 Vibrational            102.926             27.571             19.131
 Vibration     1          0.617              1.906              2.717
 Vibration     2          0.626              1.876              2.409
 Vibration     3          0.635              1.848              2.189
 Vibration     4          0.654              1.790              1.854
 Vibration     5          0.696              1.664              1.388
 Vibration     6          0.713              1.614              1.255
 Vibration     7          0.716              1.608              1.241
 Vibration     8          0.754              1.502              1.020
 Vibration     9          0.780              1.432              0.901
 Vibration    10          0.819              1.336              0.763
 Vibration    11          0.869              1.219              0.625
 Vibration    12          0.977              0.996              0.421

 Normal termination of Gaussian 09 at Mon Jan 27 23:01:02 2020.
