 Gaussian 09, Revision D.01,
 Gaussian 09:  ES64L-G09RevD.01 24-Apr-2013

 -----------------------------
 # b3lyp 6-31G(2df,p) opt Freq
 -----------------------------

 -----
 titel
 -----
 Symbolic Z-matrix:
 Charge =  0 Multiplicity = 1

 SCF Done:  E(RB3LYP) =  -423.188487388     A.U. after   13 cycles
 Optimization completed.
    -- Stationary point found.
 Normal termination of Gaussian 09 at Mon Jan 27 23:49:20 2020.

 ----------------------------------------------------------------------
 #N Geom=AllCheck Guess=TCheck SCRF=Check GenChk RB3LYP/6-31G(2df,p) Fr
 eq
 ----------------------------------------------------------------------

 Structure from the checkpoint file:  "/scratch/puck/g09_abca63f4-de8c-47bb-b9fc-f94f42c6a1a0/Gau-78120.chk"
 -----
 titel
 -----
 Charge =  0 Multiplicity = 1

                         Standard orientation:
 ---------------------------------------------------------------------
 Center     Atomic      Atomic             Coordinates (Angstroms)
 Number     Number       Type             X           Y           Z
 ---------------------------------------------------------------------
      1          8           0       -2.238217   -0.169291    0.073488
      2          6           0       -1.030088   -0.515404   -0.565423
      3          6           0       -0.158956    0.691569   -1.057249
      4          6           0       -0.065126    1.757265    0.060246
      5          6           0        0.952334    0.817388    0.739192
      6          8           0        0.278942   -0.270461    1.409397
      7          6           0       -0.033802   -1.225901    0.373907
      8          6           0        1.247589   -1.293088   -0.458814
      9          6           0        1.294469    0.216964   -0.665638
     10          1           0       -2.000333    0.094532    0.971346
     11          1           0       -1.300535   -1.160657   -1.407721
     12          1           0       -0.382372    1.009176   -2.075909
     13          1           0        0.419441    2.671618   -0.295306
     14          1           0       -0.971937    2.020702    0.609583
     15          1           0        1.716859    1.214671    1.409497
     16          1           0       -0.401656   -2.136647    0.846984
     17          1           0        2.097216   -1.686750    0.105300
     18          1           0        1.126959   -1.862876   -1.384553
     19          1           0        2.132037    0.661499   -1.199630
 ---------------------------------------------------------------------

 SCF Done:  E(RB3LYP) =  -423.188487388     A.U. after    1 cycles

 The electronic state is 1-A.
 Alpha  occ. eigenvalues --  -19.14394 -19.13081 -10.23269 -10.22969 -10.22782
 Alpha  occ. eigenvalues --  -10.19313 -10.18812 -10.18516 -10.18050  -1.04829
 Alpha  occ. eigenvalues --   -1.00923  -0.84888  -0.78062  -0.71062  -0.64018
 Alpha  occ. eigenvalues --   -0.61535  -0.58931  -0.54420  -0.51774  -0.49592
 Alpha  occ. eigenvalues --   -0.46688  -0.45091  -0.42295  -0.41182  -0.40557
 Alpha  occ. eigenvalues --   -0.37581  -0.36369  -0.34970  -0.33517  -0.33077
 Alpha  occ. eigenvalues --   -0.31240  -0.28911  -0.26472  -0.24151
 Alpha virt. eigenvalues --    0.08260   0.08879   0.11987   0.12700   0.13214
 Alpha virt. eigenvalues --    0.14126   0.14602   0.15113   0.16539   0.17313
 Alpha virt. eigenvalues --    0.17519   0.18854   0.19908   0.20874   0.22318

 Mulliken charges:
               1
     1  O   -0.452893
     2  C    0.162054
     3  C   -0.079497
     4  C   -0.245796
     5  C    0.108312
     6  O   -0.304363
     7  C    0.039932
     8  C   -0.244461
     9  C   -0.050193
    10  H    0.286427
    11  H    0.082587
    12  H    0.065627
    13  H    0.099108
    14  H    0.097779
    15  H    0.073716
    16  H    0.078318
    17  H    0.106876
    18  H    0.103408
    19  H    0.073056
 Sum of Mulliken charges =   0.00000

 Dipole moment (field-independent basis, Debye):
    X=              1.8119    Y=              0.1237    Z=             -0.8453  Tot=              2.0032
 Quadrupole moment (field-independent basis, Debye-Ang):
   XX=            -56.8343   YY=            -50.3617   ZZ=            -53.4767
   XY=              0.3489   XZ=             -1.8732   YZ=              1.1843

  Exact polarizability:  73.429   0.262  77.031  -0.220   1.752  67.583
 Approx polarizability: 107.604   1.571 109.000  -0.557   2.653 107.334

                      1                      2                      3
                      A                      A                      A
 Frequencies --    176.8281               291.0799               401.5942
 Red. masses --      4.4365                 5.2299                 1.7472
 Frc consts  --      0.0817                 0.2611                 0.1660
 IR Inten    --      4.7096                 5.4438                12.1792

                      4                      5                      6
                      A                      A                      A
 Frequencies --    417.2421               458.9874               480.9401
 Red. masses --      1.5383                 1.8154                 2.5174
 Frc consts  --      0.1578                 0.2253                 0.3431
 IR Inten    --     22.6487                17.5376                35.0191

                      7                      8                      9
                      A                      A                      A
 Frequencies --    515.2873               625.6149               657.6373
 Red. masses --      4.3898                 4.9426                 3.8854
 Frc consts  --      0.6867                 1.1398                 0.9900
 IR Inten    --      0.5776                 3.2863                 4.1245

                     10                     11                     12
                      A                      A                      A
 Frequencies --    762.6901               790.2985               814.8708
 Red. masses --      3.3860                 3.0023                 2.5108
 Frc consts  --      1.1605                 1.1048                 0.9823
 IR Inten    --      0.8061                11.6211                10.1401

                     13                     14                     15
                      A                      A                      A
 Frequencies --    844.3719               864.6134               910.0580
 Red. masses --      2.1980                 2.9743                 2.4283
 Frc consts  --      0.9233                 1.3100                 1.1849
 IR Inten    --      0.6838                16.9414                 1.7932

                     16                     17                     18
                      A                      A                      A
 Frequencies --    934.4162               950.9918               958.2606
 Red. masses --      2.4460                 1.8508                 2.8279
 Frc consts  --      1.2583                 0.9862                 1.5300
 IR Inten    --     27.1947                 8.4536                 4.1408

                     19                     20                     21
                      A                      A                      A
 Frequencies --    970.7742               995.6232              1031.2196
 Red. masses --      1.8367                 1.9882                 1.9109
 Frc consts  --      1.0198                 1.1612                 1.1973
 IR Inten    --      5.9791                 0.8770                26.3634

                     22                     23                     24
                      A                      A                      A
 Frequencies --   1038.7301              1064.9554              1097.2619
 Red. masses --      1.8344                 1.8533                 1.8050
 Frc consts  --      1.1661                 1.2384                 1.2804
 IR Inten    --     15.2949                 3.2562                10.8666

                     25                     26                     27
                      A                      A                      A
 Frequencies --   1122.1345              1132.4029              1162.4671
 Red. masses --      1.9115                 1.5935                 1.4474
 Frc consts  --      1.4181                 1.2039                 1.1524
 IR Inten    --    112.5225                26.7131                 3.6866

                     28                     29                     30
                      A                      A                      A
 Frequencies --   1218.2370              1220.3368              1237.8490
 Red. masses --      1.7815                 1.8169                 1.5505
 Frc consts  --      1.5578                 1.5942                 1.3998
 IR Inten    --      4.2037                 0.8603                 1.1262

                     31                     32                     33
                      A                      A                      A
 Frequencies --   1254.4392              1271.4652              1282.8837
 Red. masses --      1.5901                 1.5286                 1.6125
 Frc consts  --      1.4742                 1.4559                 1.5636
 IR Inten    --      1.1595                 9.7309                 7.5303

                     34                     35                     36
                      A                      A                      A
 Frequencies --   1302.4309              1307.1811              1329.9519
 Red. masses --      1.5447                 1.2928                 1.6990
 Frc consts  --      1.5439                 1.3015                 1.7706
 IR Inten    --      2.3159                 1.3398                 2.2457

                     37                     38                     39
                      A                      A                      A
 Frequencies --   1342.7929              1368.0950              1437.1091
 Red. masses --      1.4605                 1.3820                 1.2649
 Frc consts  --      1.5516                 1.5240                 1.5392
 IR Inten    --      4.1135                 5.0409                66.1038

                     40                     41                     42
                      A                      A                      A
 Frequencies --   1486.8007              1487.7819              3053.3369
 Red. masses --      1.1127                 1.1187                 1.0807
 Frc consts  --      1.4493                 1.4589                 5.9360
 IR Inten    --      2.3761                 7.6388                11.7055

                     43                     44                     45
                      A                      A                      A
 Frequencies --   3055.9210              3062.7432              3090.8257
 Red. masses --      1.0589                 1.0633                 1.0895
 Frc consts  --      5.8262                 5.8769                 6.1324
 IR Inten    --     26.5147                39.4530                63.0952

                     46                     47                     48
                      A                      A                      A
 Frequencies --   3103.4521              3111.8717              3113.8246
 Red. masses --      1.0896                 1.1059                 1.1070
 Frc consts  --      6.1834                 6.3099                 6.3241
 IR Inten    --     36.2900                21.5515                22.1310

                     49                     50                     51
                      A                      A                      A
 Frequencies --   3122.7825              3138.2639              3772.7738
 Red. masses --      1.0898                 1.0907                 1.0653
 Frc consts  --      6.2616                 6.3292                 8.9340
 IR Inten    --     39.8736                24.1531                21.7320

 - Thermochemistry -
 -------------------
 Temperature   298.150 Kelvin.  Pressure   1.00000 Atm.
 Atom     1 has atomic number  8 and mass  15.99491

 Molecular mass:   126.06808 amu.
 Principal axes and moments of inertia in atomic units:
                           1         2         3
     Eigenvalues --   713.74246 869.782061019.61441
           X            0.99943  -0.02504  -0.02249
           Y            0.02587   0.99896   0.03766
           Z            0.02152  -0.03822   0.99904
 This molecule is an asymmetric top.
 Rotational symmetry number  1.
 Warning -- assumption of classical behavior for rotation
           may cause significant error
 Rotational temperatures (Kelvin)      0.12135     0.09958     0.08495
 Rotational constants (GHZ):           2.52856     2.07493     1.77002
 Zero-point vibrational energy     428529.3 (Joules/Mol)
                                  102.42096 (Kcal/Mol)
 Warning -- explicit consideration of   7 degrees of freedom as
           vibrations may cause significant error
 Vibrational temperatures:    254.42   418.80   577.80   600.32   660.38
          (Kelvin)            691.96   741.38   900.12   946.19  1097.34
                             1137.06  1172.42  1214.86  1243.98  1309.37
                             1344.41  1368.26  1378.72  1396.73  1432.48
                             1483.69  1494.50  1532.23  1578.71  1614.50
                             1629.27  1672.53  1752.77  1755.79  1780.99
                             1804.86  1829.35  1845.78  1873.91  1880.74
                             1913.50  1931.98  1968.38  2067.68  2139.17
                             2140.58  4393.07  4396.78  4406.60  4447.00
                             4465.17  4477.28  4480.09  4492.98  4515.26
                             5428.17

 Zero-point correction=                           0.163218 (Hartree/Particle)
 Thermal correction to Energy=                    0.169638
 Thermal correction to Enthalpy=                  0.170582
 Thermal correction to Gibbs Free Energy=         0.132861
 Sum of electronic and zero-point Energies=           -423.025269
 Sum of electronic and thermal Energies=              -423.018850
 Sum of electronic and thermal Enthalpies=            -423.017905
 Sum of electronic and thermal Free Energies=         -423.055627

                     E (Thermal)             CV                S
                      KCal/Mol        Cal/Mol-Kelvin    Cal/Mol-Kelvin
 Total                  106.449             27.894             79.391
 Electronic               0.000              0.000              0.000
 Translational            0.889              2.981             40.409
 Rotational               0.889              2.981             27.939
 Vibrational            104.672             21.932             11.043
 Vibration     1          0.628              1.871              2.362
 Vibration     2          0.687              1.690              1.468
 Vibration     3          0.767              1.467              0.957
 Vibration     4          0.780              1.433              0.901
 Vibration     5          0.817              1.341              0.769
 Vibration     6          0.837              1.292              0.708
 Vibration     7          0.870              1.216              0.621

 Optimization completed.
    -- Stationary point found.
 Normal termination of Gaussian 09 at Tue Jan 28 00:39:36 2020.
