 Gaussian 09, Revision D.01,
 Gaussian 09:  ES64L-G09RevD.01 24-Apr-2013

 -----------------------------
 # b3lyp 6-31G(2df,p) opt Freq
 -----------------------------

 -----
 titel
 -----
 Symbolic Z-matrix:
 Charge =  0 Multiplicity = 1

 SCF Done:  E(RB3LYP) =  -423.198938088     A.U. after   14 cycles
 Optimization completed.
    -- Stationary point found.
 Normal termination of Gaussian 09 at Mon Jan 27 16:37:34 2020.

 ----------------------------------------------------------------------
 #N Geom=AllCheck Guess=TCheck SCRF=Check GenChk RB3LYP/6-31G(2df,p) Fr
 eq
 ----------------------------------------------------------------------

 Structure from the checkpoint file:  "/scratch/puck/g09_c8615f5f-41cc-4f95-ada0-af1b66f4f9a1/Gau-177684.chk"
 -----
 titel
 -----
 Charge =  0 Multiplicity = 1

                         Standard orientation:
 ---------------------------------------------------------------------
 Center     Atomic      Atomic             Coordinates (Angstroms)
 Number     Number       Type             X           Y           Z
 ---------------------------------------------------------------------
      1          6           0        1.115859    1.995681    0.165573
      2          6           0        0.372003    0.658382    0.041147
      3          6           0       -1.134732    0.909901   -0.204406
      4          6           0       -1.939652   -0.363192   -0.343977
      5          8           0       -2.964079   -0.590367    0.248698
      6          8           0        0.895552   -0.071434   -1.086225
      7          6           0        1.534750   -1.273682   -0.662139
      8          6           0        1.296093   -1.339766    0.819556
      9          6           0        0.637024   -0.258193    1.215400
     10          1           0        0.740119    2.577603    1.013366
     11          1           0        2.184484    1.818150    0.313014
     12          1           0        0.983604    2.586748   -0.745471
     13          1           0       -1.569678    1.515633    0.595645
     14          1           0       -1.225897    1.467799   -1.146646
     15          1           0       -1.518685   -1.094784   -1.066837
     16          1           0        1.101768   -2.130596   -1.200209
     17          1           0        2.607283   -1.243484   -0.911575
     18          1           0        1.632650   -2.161579    1.438781
     19          1           0        0.324489   -0.015868    2.223217
 ---------------------------------------------------------------------

 SCF Done:  E(RB3LYP) =  -423.198938088     A.U. after    1 cycles

 The electronic state is 1-A.
 Alpha  occ. eigenvalues --  -19.14298 -19.13359 -10.26537 -10.25464 -10.23888
 Alpha  occ. eigenvalues --  -10.19739 -10.19353 -10.19138 -10.18187  -1.04301
 Alpha  occ. eigenvalues --   -1.03863  -0.81025  -0.78958  -0.72291  -0.68272
 Alpha  occ. eigenvalues --   -0.58866  -0.57757  -0.55881  -0.51124  -0.47964
 Alpha  occ. eigenvalues --   -0.46449  -0.45306  -0.43215  -0.42475  -0.40215
 Alpha  occ. eigenvalues --   -0.39693  -0.39026  -0.37888  -0.36542  -0.34319
 Alpha  occ. eigenvalues --   -0.32776  -0.28469  -0.25491  -0.23566
 Alpha virt. eigenvalues --   -0.01764   0.00685   0.08507   0.10518   0.10752
 Alpha virt. eigenvalues --    0.13066   0.13849   0.15308   0.16386   0.16579
 Alpha virt. eigenvalues --    0.17461   0.18452   0.19661   0.19868   0.21562

 Mulliken charges:
               1
     1  C   -0.411058
     2  C    0.303079
     3  C   -0.297083
     4  C    0.156130
     5  O   -0.248727
     6  O   -0.304412
     7  C   -0.132695
     8  C   -0.097124
     9  C   -0.105420
    10  H    0.115743
    11  H    0.121672
    12  H    0.124909
    13  H    0.115715
    14  H    0.127687
    15  H    0.085821
    16  H    0.111078
    17  H    0.109850
    18  H    0.112903
    19  H    0.111931
 Sum of Mulliken charges =   0.00000

 Dipole moment (field-independent basis, Debye):
    X=              2.6685    Y=              0.4129    Z=              0.4025  Tot=              2.7301
 Quadrupole moment (field-independent basis, Debye-Ang):
   XX=            -62.1344   YY=            -49.6517   ZZ=            -52.7042
   XY=             -5.0295   XZ=              3.3720   YZ=              0.7440

  Exact polarizability:  79.803  -6.805  83.728  -5.043   3.588  67.700
 Approx polarizability: 114.276 -12.794 121.643 -13.757   7.133 106.321

                      1                      2                      3
                      A                      A                      A
 Frequencies --     59.4381                77.3192               111.0890
 Red. masses --      4.4132                 3.5731                 2.7637
 Frc consts  --      0.0092                 0.0126                 0.0201
 IR Inten    --      4.7361                 2.5691                 3.5087

                      4                      5                      6
                      A                      A                      A
 Frequencies --    195.1473               222.1969               250.6327
 Red. masses --      2.7391                 1.1153                 2.1015
 Frc consts  --      0.0615                 0.0324                 0.0778
 IR Inten    --      4.5169                 0.0339                 0.9444

                      7                      8                      9
                      A                      A                      A
 Frequencies --    321.6735               370.1300               398.4805
 Red. masses --      3.4223                 2.3465                 2.7726
 Frc consts  --      0.2086                 0.1894                 0.2594
 IR Inten    --      2.9048                 3.1916                 0.8452

                     10                     11                     12
                      A                      A                      A
 Frequencies --    458.8536               555.5577               638.8513
 Red. masses --      3.3958                 2.6638                 2.7027
 Frc consts  --      0.4212                 0.4844                 0.6499
 IR Inten    --     11.6280                 0.1848                 2.2678

                     13                     14                     15
                      A                      A                      A
 Frequencies --    747.4452               768.7374               812.5398
 Red. masses --      1.3588                 4.1485                 2.2649
 Frc consts  --      0.4473                 1.4444                 0.8810
 IR Inten    --     26.5380                 4.8051                 1.1388

                     16                     17                     18
                      A                      A                      A
 Frequencies --    824.6583               895.1594               932.2100
 Red. masses --      4.9340                 1.8843                 1.7434
 Frc consts  --      1.9770                 0.8896                 0.8927
 IR Inten    --     11.2653                 2.8875                 2.1588

                     19                     20                     21
                      A                      A                      A
 Frequencies --    960.0349               961.5747              1012.2210
 Red. masses --      2.1757                 1.3346                 2.3890
 Frc consts  --      1.1815                 0.7271                 1.4422
 IR Inten    --      1.3877                 1.5490                 7.7961

                     22                     23                     24
                      A                      A                      A
 Frequencies --   1021.6386              1046.1521              1070.3486
 Red. masses --      1.4874                 1.6559                 2.9932
 Frc consts  --      0.9147                 1.0678                 2.0204
 IR Inten    --      3.7266                13.9953                50.3664

                     25                     26                     27
                      A                      A                      A
 Frequencies --   1114.2497              1136.3785              1169.8714
 Red. masses --      2.0779                 2.2490                 1.8668
 Frc consts  --      1.5200                 1.7112                 1.5053
 IR Inten    --     73.7540                35.5983                 4.5052

                     28                     29                     30
                      A                      A                      A
 Frequencies --   1202.4675              1209.4299              1265.6687
 Red. masses --      1.1745                 2.0144                 1.5574
 Frc consts  --      1.0006                 1.7360                 1.4699
 IR Inten    --      1.8826                33.2710                 4.8565

                     31                     32                     33
                      A                      A                      A
 Frequencies --   1308.4402              1362.4544              1379.7884
 Red. masses --      1.5912                 1.8277                 1.5313
 Frc consts  --      1.6050                 1.9989                 1.7177
 IR Inten    --     11.1663                10.9492                 2.8577

                     34                     35                     36
                      A                      A                      A
 Frequencies --   1400.9500              1418.3669              1446.6551
 Red. masses --      1.2492                 1.2197                 1.0959
 Frc consts  --      1.4445                 1.4457                 1.3513
 IR Inten    --      4.0970                 7.9100                 4.2981

                     37                     38                     39
                      A                      A                      A
 Frequencies --   1485.7244              1490.0700              1518.6178
 Red. masses --      1.0586                 1.0534                 1.0849
 Frc consts  --      1.3768                 1.3780                 1.4741
 IR Inten    --      1.8483                 2.7158                 0.6460

                     40                     41                     42
                      A                      A                      A
 Frequencies --   1691.7420              1829.5640              2902.8059
 Red. masses --      6.7040                10.0316                 1.0827
 Frc consts  --     11.3045                19.7840                 5.3754
 IR Inten    --      1.8182               173.1585                75.8207

                     43                     44                     45
                      A                      A                      A
 Frequencies --   2977.1985              2998.6409              3023.4079
 Red. masses --      1.0592                 1.1023                 1.0629
 Frc consts  --      5.5313                 5.8399                 5.7243
 IR Inten    --     80.1244                39.9814                 6.6763

                     46                     47                     48
                      A                      A                      A
 Frequencies --   3038.0267              3100.9238              3113.3181
 Red. masses --      1.0351                 1.0978                 1.1012
 Frc consts  --      5.6285                 6.2193                 6.2885
 IR Inten    --     16.7247                 4.3878                22.4654

                     49                     50                     51
                      A                      A                      A
 Frequencies --   3121.3541              3207.4928              3231.6381
 Red. masses --      1.1027                 1.0854                 1.1066
 Frc consts  --      6.3301                 6.5792                 6.8093
 IR Inten    --     20.7989                 1.8122                 6.3043

 - Thermochemistry -
 -------------------
 Temperature   298.150 Kelvin.  Pressure   1.00000 Atm.
 Atom     1 has atomic number  6 and mass  12.00000

 Molecular mass:   126.06808 amu.
 Principal axes and moments of inertia in atomic units:
                           1         2         3
     Eigenvalues --   757.702621336.352501615.68165
           X            0.99978  -0.01916   0.00863
           Y            0.01892   0.99944   0.02754
           Z           -0.00915  -0.02737   0.99958
 This molecule is an asymmetric top.
 Rotational symmetry number  1.
 Warning -- assumption of classical behavior for rotation
           may cause significant error
 Rotational temperatures (Kelvin)      0.11431     0.06481     0.05361
 Rotational constants (GHZ):           2.38186     1.35050     1.11702
 Zero-point vibrational energy     411858.3 (Joules/Mol)
                                   98.43650 (Kcal/Mol)
 Warning -- explicit consideration of  11 degrees of freedom as
           vibrations may cause significant error
 Vibrational temperatures:     85.52   111.24   159.83   280.77   319.69
          (Kelvin)            360.60   462.82   532.53   573.32   660.19
                              799.32   919.16  1075.41  1106.04  1169.06
                             1186.50  1287.93  1341.24  1381.27  1383.49
                             1456.36  1469.91  1505.18  1539.99  1603.15
                             1634.99  1683.18  1730.08  1740.10  1821.01
                             1882.55  1960.27  1985.21  2015.65  2040.71
                             2081.41  2137.62  2143.88  2184.95  2434.04
                             2632.33  4176.48  4283.52  4314.37  4350.00
                             4371.04  4461.53  4479.36  4490.93  4614.86
                             4649.60

 Zero-point correction=                           0.156869 (Hartree/Particle)
 Thermal correction to Energy=                    0.166038
 Thermal correction to Enthalpy=                  0.166982
 Thermal correction to Gibbs Free Energy=         0.122333
 Sum of electronic and zero-point Energies=           -423.042070
 Sum of electronic and thermal Energies=              -423.032900
 Sum of electronic and thermal Enthalpies=            -423.031956
 Sum of electronic and thermal Free Energies=         -423.076605

                     E (Thermal)             CV                S
                      KCal/Mol        Cal/Mol-Kelvin    Cal/Mol-Kelvin
 Total                  104.190             33.435             93.972
 Electronic               0.000              0.000              0.000
 Translational            0.889              2.981             40.409
 Rotational               0.889              2.981             28.883
 Vibrational            102.413             27.473             24.681
 Vibration     1          0.597              1.974              4.476
 Vibration     2          0.599              1.964              3.958
 Vibration     3          0.607              1.940              3.250
 Vibration     4          0.636              1.847              2.178
 Vibration     5          0.648              1.807              1.941
 Vibration     6          0.663              1.762              1.726
 Vibration     7          0.707              1.632              1.302
 Vibration     8          0.742              1.534              1.079
 Vibration     9          0.765              1.473              0.968
 Vibration    10          0.817              1.341              0.769
 Vibration    11          0.911              1.128              0.533

 Optimization completed.
    -- Stationary point found.
 Normal termination of Gaussian 09 at Mon Jan 27 17:17:18 2020.
