 Gaussian 09, Revision D.01,
 Gaussian 09:  ES64L-G09RevD.01 24-Apr-2013

 -----------------------------
 # b3lyp 6-31G(2df,p) opt Freq
 -----------------------------

 -----
 titel
 -----
 Symbolic Z-matrix:
 Charge =  0 Multiplicity = 1

 SCF Done:  E(RB3LYP) =  -423.196828877     A.U. after   13 cycles
 Optimization completed.
    -- Stationary point found.
 Normal termination of Gaussian 09 at Mon Jan 27 12:20:15 2020.

 ----------------------------------------------------------------------
 #N Geom=AllCheck Guess=TCheck SCRF=Check GenChk RB3LYP/6-31G(2df,p) Fr
 eq
 ----------------------------------------------------------------------

 Structure from the checkpoint file:  "/scratch/puck/g09_dc5296fe-de9e-4b9e-8129-463d4358f529/Gau-97895.chk"
 -----
 titel
 -----
 Charge =  0 Multiplicity = 1

                         Standard orientation:
 ---------------------------------------------------------------------
 Center     Atomic      Atomic             Coordinates (Angstroms)
 Number     Number       Type             X           Y           Z
 ---------------------------------------------------------------------
      1          6           0        1.999982    0.059737   -0.312182
      2          8           0        1.547832   -0.584489    0.900283
      3          6           0        0.151063   -0.781918    0.755928
      4          6           0       -0.700110    0.499855    0.982696
      5          6           0       -1.999990    0.060266    0.312048
      6          8           0       -1.547841   -0.585911   -0.899380
      7          6           0       -0.151076   -0.783071   -0.754729
      8          6           0        0.700098    0.498353   -0.983463
      9          6           0        0.000033    1.486241   -0.001104
     10          1           0        2.654934    0.896892   -0.047620
     11          1           0        2.575532   -0.654328   -0.919206
     12          1           0       -0.155028   -1.654980    1.333835
     13          1           0       -0.804538    0.847966    2.010178
     14          1           0       -2.575634   -0.652792    0.920162
     15          1           0       -2.654867    0.897058    0.046147
     16          1           0        0.155038   -1.657000   -1.331313
     17          1           0        0.804496    0.844911   -2.011471
     18          1           0        0.727286    2.129648    0.500982
     19          1           0       -0.727140    2.129038   -0.504087
 ---------------------------------------------------------------------

 SCF Done:  E(RB3LYP) =  -423.196828877     A.U. after    1 cycles

 The electronic state is 1-A.
 Alpha  occ. eigenvalues --  -19.13717 -19.13717 -10.22915 -10.22894 -10.22751
 Alpha  occ. eigenvalues --  -10.22750 -10.19019 -10.19019 -10.18585  -1.04899
 Alpha  occ. eigenvalues --   -1.02350  -0.82105  -0.76764  -0.72787  -0.66508
 Alpha  occ. eigenvalues --   -0.60690  -0.57437  -0.54216  -0.53556  -0.49417
 Alpha  occ. eigenvalues --   -0.48093  -0.44820  -0.41595  -0.40710  -0.40063
 Alpha  occ. eigenvalues --   -0.38023  -0.36834  -0.36561  -0.35523  -0.32588
 Alpha  occ. eigenvalues --   -0.31925  -0.30904  -0.24979  -0.23168
 Alpha virt. eigenvalues --    0.08914   0.08920   0.12123   0.12478   0.12932
 Alpha virt. eigenvalues --    0.14108   0.14447   0.15480   0.16352   0.17166
 Alpha virt. eigenvalues --    0.17326   0.18673   0.18831   0.21036   0.23158

 Mulliken charges:
               1
     1  C   -0.081850
     2  O   -0.291104
     3  C    0.109615
     4  C   -0.084492
     5  C   -0.081849
     6  O   -0.291103
     7  C    0.109624
     8  C   -0.084498
     9  C   -0.215358
    10  H    0.105298
    11  H    0.094158
    12  H    0.081519
    13  H    0.072748
    14  H    0.094161
    15  H    0.105296
    16  H    0.081519
    17  H    0.072749
    18  H    0.101785
    19  H    0.101781
 Sum of Mulliken charges =   0.00000

 Dipole moment (field-independent basis, Debye):
    X=              0.0000    Y=              0.9906    Z=             -0.0008  Tot=              0.9906
 Quadrupole moment (field-independent basis, Debye-Ang):
   XX=            -54.4784   YY=            -51.9339   ZZ=            -54.1258
   XY=             -0.0048   XZ=             -6.0797   YZ=             -0.0017

  Exact polarizability:  81.239  -0.005  69.530  -6.159  -0.002  66.784
 Approx polarizability: 112.279  -0.003 103.355  -4.036   0.001 103.935

                      1                      2                      3
                      A                      A                      A
 Frequencies --    216.1608               274.1462               357.3981
 Red. masses --      2.5330                 3.3083                 2.9039
 Frc consts  --      0.0697                 0.1465                 0.2185
 IR Inten    --      0.3349                 6.7040                 1.5676

                      4                      5                      6
                      A                      A                      A
 Frequencies --    381.7323               435.5635               541.1810
 Red. masses --      4.2373                 1.7874                 4.7375
 Frc consts  --      0.3638                 0.1998                 0.8175
 IR Inten    --      4.5854                 0.6042                 0.1987

                      7                      8                      9
                      A                      A                      A
 Frequencies --    631.3646               717.6529               768.5784
 Red. masses --      7.3489                 3.4828                 4.6465
 Frc consts  --      1.7260                 1.0568                 1.6172
 IR Inten    --      0.1995                 8.7609                 4.8569

                     10                     11                     12
                      A                      A                      A
 Frequencies --    811.5712               846.8916               859.9260
 Red. masses --      4.0169                 2.4956                 2.0990
 Frc consts  --      1.5588                 1.0546                 0.9145
 IR Inten    --      1.0131                 1.1777                 2.6124

                     13                     14                     15
                      A                      A                      A
 Frequencies --    902.0988               908.3233               941.8846
 Red. masses --      2.9011                 2.5085                 3.3881
 Frc consts  --      1.3910                 1.2194                 1.7709
 IR Inten    --      5.8848                23.4859                 0.0114

                     16                     17                     18
                      A                      A                      A
 Frequencies --    945.5156               971.7213               985.4737
 Red. masses --      2.5131                 1.5389                 2.1976
 Frc consts  --      1.3237                 0.8561                 1.2574
 IR Inten    --     28.6583                 0.0114                 5.9338

                     19                     20                     21
                      A                      A                      A
 Frequencies --    988.1157              1038.4929              1052.9639
 Red. masses --      1.9029                 1.8909                 1.4110
 Frc consts  --      1.0947                 1.2015                 0.9217
 IR Inten    --      3.7870                 6.4678                 1.0014

                     22                     23                     24
                      A                      A                      A
 Frequencies --   1079.1633              1098.0258              1110.8589
 Red. masses --      2.2897                 3.6583                 2.6693
 Frc consts  --      1.5711                 2.5987                 1.9407
 IR Inten    --     64.7429                 5.4977               120.1801

                     25                     26                     27
                      A                      A                      A
 Frequencies --   1145.8929              1181.9419              1182.5588
 Red. masses --      1.9599                 1.3319                 1.2961
 Frc consts  --      1.5163                 1.0963                 1.0679
 IR Inten    --      1.5800                 8.5118                 2.0357

                     28                     29                     30
                      A                      A                      A
 Frequencies --   1217.6363              1223.0636              1249.8581
 Red. masses --      1.4484                 1.5681                 1.3852
 Frc consts  --      1.2652                 1.3821                 1.2750
 IR Inten    --      0.1550                 0.7332                 0.8672

                     31                     32                     33
                      A                      A                      A
 Frequencies --   1260.5593              1282.2728              1309.6105
 Red. masses --      1.6788                 1.3521                 1.3086
 Frc consts  --      1.5717                 1.3098                 1.3223
 IR Inten    --     10.2118                 0.0795                 0.0178

                     34                     35                     36
                      A                      A                      A
 Frequencies --   1330.8829              1335.0040              1338.1398
 Red. masses --      1.7255                 1.4110                 1.4167
 Frc consts  --      1.8007                 1.4817                 1.4946
 IR Inten    --      2.3091                21.0265                 0.0359

                     37                     38                     39
                      A                      A                      A
 Frequencies --   1382.5166              1399.6417              1499.2633
 Red. masses --      1.4104                 1.4646                 1.0929
 Frc consts  --      1.5883                 1.6904                 1.4475
 IR Inten    --      1.1480                 2.0429                 2.9584

                     40                     41                     42
                      A                      A                      A
 Frequencies --   1525.4451              1526.6313              2994.8533
 Red. masses --      1.0962                 1.0946                 1.0664
 Frc consts  --      1.5030                 1.5031                 5.6351
 IR Inten    --      1.0163                 0.3456               146.0199

                     43                     44                     45
                      A                      A                      A
 Frequencies --   2995.8485              3057.6383              3060.6208
 Red. masses --      1.0668                 1.0691                 1.0990
 Frc consts  --      5.6412                 5.8892                 6.0653
 IR Inten    --      9.3805                 1.8669                23.0421

                     46                     47                     48
                      A                      A                      A
 Frequencies --   3062.4992              3102.3347              3106.4586
 Red. masses --      1.0878                 1.1032                 1.0904
 Frc consts  --      6.0108                 6.2556                 6.1996
 IR Inten    --     77.7960                15.1914                21.8331

                     49                     50                     51
                      A                      A                      A
 Frequencies --   3112.0025              3120.7003              3125.4113
 Red. masses --      1.0879                 1.0886                 1.0928
 Frc consts  --      6.2073                 6.2461                 6.2896
 IR Inten    --     41.5003                56.3313                 1.5363

 - Thermochemistry -
 -------------------
 Temperature   298.150 Kelvin.  Pressure   1.00000 Atm.
 Atom     1 has atomic number  6 and mass  12.00000

 Molecular mass:   126.06808 amu.
 Principal axes and moments of inertia in atomic units:
                           1         2         3
     Eigenvalues --   554.819131043.242511049.97682
           X            0.99836  -0.05733   0.00004
           Y            0.00005   0.00155   1.00000
           Z            0.05733   0.99835  -0.00155
 This molecule is an asymmetric top.
 Rotational symmetry number  1.
 Warning -- assumption of classical behavior for rotation
           may cause significant error
 Rotational temperatures (Kelvin)      0.15611     0.08302     0.08249
 Rotational constants (GHZ):           3.25285     1.72993     1.71884
 Zero-point vibrational energy     430620.3 (Joules/Mol)
                                  102.92072 (Kcal/Mol)
 Warning -- explicit consideration of   6 degrees of freedom as
           vibrations may cause significant error
 Vibrational temperatures:    311.01   394.43   514.22   549.23   626.68
          (Kelvin)            778.64   908.39  1032.54  1105.81  1167.67
                             1218.49  1237.24  1297.92  1306.87  1355.16
                             1360.38  1398.09  1417.88  1421.68  1494.16
                             1514.98  1552.67  1579.81  1598.28  1648.68
                             1700.55  1701.44  1751.90  1759.71  1798.26
                             1813.66  1844.90  1884.24  1914.84  1920.77
                             1925.28  1989.13  2013.77  2157.10  2194.77
                             2196.48  4308.92  4310.35  4399.25  4403.55
                             4406.25  4463.56  4469.50  4477.47  4489.99
                             4496.76

 Zero-point correction=                           0.164015 (Hartree/Particle)
 Thermal correction to Energy=                    0.170179
 Thermal correction to Enthalpy=                  0.171124
 Thermal correction to Gibbs Free Energy=         0.133813
 Sum of electronic and zero-point Energies=           -423.032814
 Sum of electronic and thermal Energies=              -423.026649
 Sum of electronic and thermal Enthalpies=            -423.025705
 Sum of electronic and thermal Free Energies=         -423.063016

                     E (Thermal)             CV                S
                      KCal/Mol        Cal/Mol-Kelvin    Cal/Mol-Kelvin
 Total                  106.789             26.458             78.526
 Electronic               0.000              0.000              0.000
 Translational            0.889              2.981             40.409
 Rotational               0.889              2.981             27.899
 Vibrational            105.012             20.496             10.219
 Vibration     1          0.645              1.816              1.991
 Vibration     2          0.676              1.721              1.570
 Vibration     3          0.733              1.560              1.133
 Vibration     4          0.751              1.509              1.032
 Vibration     5          0.796              1.393              0.841
 Vibration     6          0.896              1.159              0.563

 Optimization completed.
    -- Stationary point found.
 Normal termination of Gaussian 09 at Mon Jan 27 13:08:24 2020.
