 Gaussian 09, Revision D.01,
 Gaussian 09:  ES64L-G09RevD.01 24-Apr-2013

 -----------------------------
 # b3lyp 6-31G(2df,p) opt Freq
 -----------------------------

 -----
 titel
 -----
 Symbolic Z-matrix:
 Charge =  0 Multiplicity = 1

 SCF Done:  E(RB3LYP) =  -423.131915806     A.U. after   13 cycles
 Optimization completed.
    -- Stationary point found.
 Normal termination of Gaussian 09 at Tue Jan 28 02:53:25 2020.

 ----------------------------------------------------------------------
 #N Geom=AllCheck Guess=TCheck SCRF=Check GenChk RB3LYP/6-31G(2df,p) Fr
 eq
 ----------------------------------------------------------------------

 Structure from the checkpoint file:  "/scratch/puck/g09_113c242d-4b1a-45d5-b96f-3e937079e1a0/Gau-44174.chk"
 -----
 titel
 -----
 Charge =  0 Multiplicity = 1

                         Standard orientation:
 ---------------------------------------------------------------------
 Center     Atomic      Atomic             Coordinates (Angstroms)
 Number     Number       Type             X           Y           Z
 ---------------------------------------------------------------------
      1          8           0       -2.359182   -0.901024    0.158630
      2          6           0       -1.117362   -0.819803   -0.476579
      3          6           0        0.105614   -1.620846    0.094982
      4          6           0        0.938012   -0.327530    0.017244
      5          6           0        2.144730    0.089076    0.800690
      6          6           0        2.252000   -0.123763   -0.688863
      7          6           0       -0.320746    0.470680   -0.215508
      8          6           0       -0.621137    1.859877   -0.541272
      9          8           0       -0.840213    1.351188    0.789625
     10          1           0       -2.351657   -0.219789    0.845824
     11          1           0       -1.259106   -1.018523   -1.544472
     12          1           0       -0.084046   -1.943921    1.122617
     13          1           0        0.448582   -2.472405   -0.497260
     14          1           0        2.165730    1.104770    1.182064
     15          1           0        2.596435   -0.645936    1.458644
     16          1           0        2.360771    0.746498   -1.328266
     17          1           0        2.772377   -1.007500   -1.043934
     18          1           0        0.182883    2.590494   -0.622728
     19          1           0       -1.523471    2.098847   -1.102695
 ---------------------------------------------------------------------

 SCF Done:  E(RB3LYP) =  -423.131915806     A.U. after    1 cycles

 The electronic state is 1-A.
 Alpha  occ. eigenvalues --  -19.16106 -19.13198 -10.24175 -10.23994 -10.23291
 Alpha  occ. eigenvalues --  -10.20193 -10.19329 -10.19063 -10.18201  -1.07800
 Alpha  occ. eigenvalues --   -1.01616  -0.87492  -0.79236  -0.67755  -0.63476
 Alpha  occ. eigenvalues --   -0.61712  -0.60645  -0.53706  -0.52194  -0.50704
 Alpha  occ. eigenvalues --   -0.47184  -0.47049  -0.43246  -0.41720  -0.38850
 Alpha  occ. eigenvalues --   -0.38615  -0.37050  -0.35706  -0.33837  -0.32203
 Alpha  occ. eigenvalues --   -0.29446  -0.27794  -0.26800  -0.25480
 Alpha virt. eigenvalues --    0.05985   0.08523   0.09073   0.10367   0.12527
 Alpha virt. eigenvalues --    0.13029   0.13660   0.14166   0.14737   0.16795
 Alpha virt. eigenvalues --    0.18293   0.18956   0.19956   0.20683   0.22576

 Mulliken charges:
               1
     1  O   -0.444309
     2  C    0.093351
     3  C   -0.373886
     4  C    0.305894
     5  C   -0.319052
     6  C   -0.323483
     7  C    0.303593
     8  C   -0.267289
     9  O   -0.282677
    10  H    0.291597
    11  H    0.090318
    12  H    0.110253
    13  H    0.102547
    14  H    0.122579
    15  H    0.118766
    16  H    0.113544
    17  H    0.116899
    18  H    0.117592
    19  H    0.123761
 Sum of Mulliken charges =   0.00000

 Dipole moment (field-independent basis, Debye):
    X=              1.8131    Y=              0.6668    Z=             -1.0694  Tot=              2.2081
 Quadrupole moment (field-independent basis, Debye-Ang):
   XX=            -56.9693   YY=            -51.8105   ZZ=            -52.1434
   XY=             -3.1566   XZ=              0.2856   YZ=             -2.2574

  Exact polarizability:  82.351  -1.667  79.048   0.398  -1.840  65.689
 Approx polarizability: 110.052  -1.470 111.078  -2.848  -0.017 104.687

                      1                      2                      3
                      A                      A                      A
 Frequencies --     58.2731               178.3833               192.8851
 Red. masses --      3.5280                 3.2901                 3.1070
 Frc consts  --      0.0071                 0.0617                 0.0681
 IR Inten    --      0.8056                 0.2786                 1.9987

                      4                      5                      6
                      A                      A                      A
 Frequencies --    234.1364               248.1422               315.5203
 Red. masses --      3.6045                 2.9545                 2.2536
 Frc consts  --      0.1164                 0.1072                 0.1322
 IR Inten    --     16.8249                 3.0534                 1.3471

                      7                      8                      9
                      A                      A                      A
 Frequencies --    409.8803               423.9430               471.4490
 Red. masses --      1.4745                 2.1237                 2.6859
 Frc consts  --      0.1459                 0.2249                 0.3517
 IR Inten    --     62.5049                10.7661                 1.1837

                     10                     11                     12
                      A                      A                      A
 Frequencies --    515.1394               578.7456               654.9199
 Red. masses --      4.0641                 3.0066                 3.4305
 Frc consts  --      0.6354                 0.5933                 0.8669
 IR Inten    --      4.8632                 2.9188                14.5288

                     13                     14                     15
                      A                      A                      A
 Frequencies --    766.9267               783.1598               829.2435
 Red. masses --      1.5996                 1.3066                 2.2774
 Frc consts  --      0.5543                 0.4722                 0.9227
 IR Inten    --      1.7649                 0.9980                17.6185

                     16                     17                     18
                      A                      A                      A
 Frequencies --    864.6372               875.9757               917.7196
 Red. masses --      3.2083                 1.8300                 1.7301
 Frc consts  --      1.4132                 0.8273                 0.8585
 IR Inten    --      8.5181                 4.7657                 0.4574

                     19                     20                     21
                      A                      A                      A
 Frequencies --    941.2743               968.1274               999.4401
 Red. masses --      3.0926                 2.5036                 2.8864
 Frc consts  --      1.6144                 1.3825                 1.6987
 IR Inten    --     30.8992                 2.6894                18.5481

                     22                     23                     24
                      A                      A                      A
 Frequencies --   1049.8421              1053.0155              1073.2149
 Red. masses --      2.2149                 1.7674                 1.4095
 Frc consts  --      1.4383                 1.1546                 0.9565
 IR Inten    --     19.7335                 2.7073                 2.6524

                     25                     26                     27
                      A                      A                      A
 Frequencies --   1114.5608              1117.0912              1141.5553
 Red. masses --      1.2258                 2.5002                 1.5071
 Frc consts  --      0.8972                 1.8382                 1.1571
 IR Inten    --      1.5237               100.1661                 0.6316

                     28                     29                     30
                      A                      A                      A
 Frequencies --   1161.2245              1170.2579              1188.2539
 Red. masses --      1.5405                 1.5583                 1.3062
 Frc consts  --      1.2239                 1.2574                 1.0866
 IR Inten    --     25.2960                20.4853                 0.1224

                     31                     32                     33
                      A                      A                      A
 Frequencies --   1192.8688              1239.0162              1259.9834
 Red. masses --      1.3937                 1.9735                 1.7121
 Frc consts  --      1.1684                 1.7850                 1.6014
 IR Inten    --      6.7637                 3.3643                 0.8691

                     34                     35                     36
                      A                      A                      A
 Frequencies --   1342.7582              1371.3877              1429.7123
 Red. masses --      1.6600                 2.4081                 1.3957
 Frc consts  --      1.7634                 2.6684                 1.6809
 IR Inten    --      6.2992                 1.0251                42.5716

                     37                     38                     39
                      A                      A                      A
 Frequencies --   1452.6155              1464.9659              1483.6635
 Red. masses --      1.5503                 1.0870                 1.1863
 Frc consts  --      1.9274                 1.3745                 1.5385
 IR Inten    --     47.6719                 1.7397                17.3218

                     40                     41                     42
                      A                      A                      A
 Frequencies --   1501.1916              1536.5232              3049.4994
 Red. masses --      1.4669                 1.8491                 1.0860
 Frc consts  --      1.9477                 2.5721                 5.9502
 IR Inten    --      0.3485                11.1487                27.8948

                     43                     44                     45
                      A                      A                      A
 Frequencies --   3056.6415              3081.1645              3115.4355
 Red. masses --      1.0580                 1.0505                 1.1084
 Frc consts  --      5.8239                 5.8760                 6.3387
 IR Inten    --     26.6477                22.6712                23.0892

                     46                     47                     48
                      A                      A                      A
 Frequencies --   3124.4680              3130.0134              3167.5177
 Red. masses --      1.0515                 1.0566                 1.1190
 Frc consts  --      6.0480                 6.0991                 6.6150
 IR Inten    --     17.3763                 9.8478                16.6646

                     49                     50                     51
                      A                      A                      A
 Frequencies --   3204.1134              3219.4641              3739.9521
 Red. masses --      1.1180                 1.1157                 1.0652
 Frc consts  --      6.7627                 6.8137                 8.7786
 IR Inten    --      0.7181                12.6640                39.7997

 - Thermochemistry -
 -------------------
 Temperature   298.150 Kelvin.  Pressure   1.00000 Atm.
 Atom     1 has atomic number  8 and mass  15.99491

 Molecular mass:   126.06808 amu.
 Principal axes and moments of inertia in atomic units:
                           1         2         3
     Eigenvalues --   701.031401162.835341554.95714
           X            0.99984  -0.01666   0.00628
           Y            0.01683   0.99947  -0.02773
           Z           -0.00582   0.02784   0.99960
 This molecule is an asymmetric top.
 Rotational symmetry number  1.
 Warning -- assumption of classical behavior for rotation
           may cause significant error
 Rotational temperatures (Kelvin)      0.12355     0.07449     0.05570
 Rotational constants (GHZ):           2.57441     1.55202     1.16064
 Zero-point vibrational energy     415462.4 (Joules/Mol)
                                   99.29790 (Kcal/Mol)
 Warning -- explicit consideration of  11 degrees of freedom as
           vibrations may cause significant error
 Vibrational temperatures:     83.84   256.65   277.52   336.87   357.02
          (Kelvin)            453.96   589.73   609.96   678.31   741.17
                              832.68   942.28  1103.44  1126.79  1193.09
                             1244.02  1260.33  1320.39  1354.28  1392.92
                             1437.97  1510.49  1515.05  1544.11  1603.60
                             1607.24  1642.44  1670.74  1683.74  1709.63
                             1716.27  1782.67  1812.83  1931.93  1973.12
                             2057.03  2089.99  2107.76  2134.66  2159.88
                             2210.71  4387.54  4397.82  4433.10  4482.41
                             4495.41  4503.39  4557.35  4610.00  4632.08
                             5380.95

 Zero-point correction=                           0.158241 (Hartree/Particle)
 Thermal correction to Energy=                    0.166654
 Thermal correction to Enthalpy=                  0.167598
 Thermal correction to Gibbs Free Energy=         0.125216
 Sum of electronic and zero-point Energies=           -422.973675
 Sum of electronic and thermal Energies=              -422.965262
 Sum of electronic and thermal Enthalpies=            -422.964318
 Sum of electronic and thermal Free Energies=         -423.006700

                     E (Thermal)             CV                S
                      KCal/Mol        Cal/Mol-Kelvin    Cal/Mol-Kelvin
 Total                  104.577             32.727             89.201
 Electronic               0.000              0.000              0.000
 Translational            0.889              2.981             40.409
 Rotational               0.889              2.981             28.629
 Vibrational            102.799             26.765             20.163
 Vibration     1          0.596              1.974              4.515
 Vibration     2          0.629              1.869              2.345
 Vibration     3          0.635              1.850              2.200
 Vibration     4          0.654              1.789              1.847
 Vibration     5          0.662              1.766              1.744
 Vibration     6          0.703              1.644              1.333
 Vibration     7          0.774              1.449              0.927
 Vibration     8          0.786              1.418              0.879
 Vibration     9          0.828              1.313              0.734
 Vibration    10          0.870              1.216              0.621
 Vibration    11          0.935              1.077              0.488

 Optimization completed.
    -- Stationary point found.
 Normal termination of Gaussian 09 at Tue Jan 28 04:43:02 2020.
