 Gaussian 09, Revision D.01,
 Gaussian 09:  ES64L-G09RevD.01 24-Apr-2013

 -----------------------------
 # b3lyp 6-31G(2df,p) opt Freq
 -----------------------------

 -----
 titel
 -----
 Symbolic Z-matrix:
 Charge =  0 Multiplicity = 1

 SCF Done:  E(RB3LYP) =  -423.206675115     A.U. after   14 cycles
 Optimization completed.
    -- Stationary point found.
 Normal termination of Gaussian 09 at Tue Jan 28 08:57:22 2020.

 ----------------------------------------------------------------------
 #N Geom=AllCheck Guess=TCheck SCRF=Check GenChk RB3LYP/6-31G(2df,p) Fr
 eq
 ----------------------------------------------------------------------

 Structure from the checkpoint file:  "/scratch/puck/g09_2739b35b-6eba-4a00-a6ae-cdf01c270db0/Gau-93468.chk"
 -----
 titel
 -----
 Charge =  0 Multiplicity = 1

                         Standard orientation:
 ---------------------------------------------------------------------
 Center     Atomic      Atomic             Coordinates (Angstroms)
 Number     Number       Type             X           Y           Z
 ---------------------------------------------------------------------
      1          6           0       -2.534777   -0.269097   -0.621811
      2          8           0       -1.237032    0.255839   -0.799490
      3          6           0       -0.293441   -0.013753    0.227876
      4          6           0       -0.750553    0.468578    1.607533
      5          6           0        0.192559   -1.488929    0.219935
      6          6           0        1.662456   -1.403829   -0.102645
      7          6           0        2.089869   -0.156638   -0.330717
      8          6           0        0.976009    0.799015   -0.180398
      9          8           0        1.001890    1.998128   -0.311362
     10          1           0       -3.077541    0.217013    0.199895
     11          1           0       -3.074530   -0.078074   -1.552569
     12          1           0       -2.529741   -1.354582   -0.440122
     13          1           0       -0.992105    1.533409    1.556593
     14          1           0       -1.621836   -0.086352    1.966496
     15          1           0        0.053314    0.332851    2.338246
     16          1           0        0.025324   -2.004860    1.173185
     17          1           0       -0.335696   -2.067134   -0.546978
     18          1           0        2.287039   -2.290743   -0.139300
     19          1           0        3.094178    0.154649   -0.587276
 ---------------------------------------------------------------------

 SCF Done:  E(RB3LYP) =  -423.206675115     A.U. after    1 cycles

 The electronic state is 1-A.
 Alpha  occ. eigenvalues --  -19.14163 -19.12245 -10.25719 -10.24313 -10.22613
 Alpha  occ. eigenvalues --  -10.21775 -10.19902 -10.19367 -10.18103  -1.04264
 Alpha  occ. eigenvalues --   -1.02281  -0.85121  -0.75916  -0.70285  -0.69524
 Alpha  occ. eigenvalues --   -0.63668  -0.56556  -0.53309  -0.49126  -0.48065
 Alpha  occ. eigenvalues --   -0.46039  -0.45078  -0.42747  -0.41559  -0.41450
 Alpha  occ. eigenvalues --   -0.39585  -0.38243  -0.37980  -0.36921  -0.35867
 Alpha  occ. eigenvalues --   -0.31407  -0.27591  -0.25720  -0.23560
 Alpha virt. eigenvalues --   -0.04799   0.05351   0.08426   0.11023   0.12909
 Alpha virt. eigenvalues --    0.13623   0.14272   0.14938   0.15560   0.16300
 Alpha virt. eigenvalues --    0.16744   0.17744   0.19114   0.20028   0.21487

 Mulliken charges:
               1
     1  C   -0.244167
     2  O   -0.279254
     3  C    0.283074
     4  C   -0.451216
     5  C   -0.319864
     6  C   -0.052036
     7  C   -0.180784
     8  C    0.371562
     9  O   -0.336375
    10  H    0.113969
    11  H    0.132129
    12  H    0.100330
    13  H    0.146139
    14  H    0.115303
    15  H    0.122216
    16  H    0.114200
    17  H    0.128688
    18  H    0.116708
    19  H    0.119379
 Sum of Mulliken charges =   0.00000

 Dipole moment (field-independent basis, Debye):
    X=             -0.4374    Y=             -3.8404    Z=              1.2722  Tot=              4.0692
 Quadrupole moment (field-independent basis, Debye-Ang):
   XX=            -47.3924   YY=            -57.1241   ZZ=            -53.5094
   XY=             -2.8237   XZ=             -0.2986   YZ=              1.6423

  Exact polarizability:  86.370   0.103  86.039  -2.373  -1.711  60.478
 Approx polarizability: 112.130   4.313 152.764  -3.291  -8.644  90.412

                      1                      2                      3
                      A                      A                      A
 Frequencies --     48.6877               115.5461               176.3156
 Red. masses --      3.2613                 2.1739                 2.1979
 Frc consts  --      0.0046                 0.0171                 0.0403
 IR Inten    --      1.1503                 2.3522                 0.8986

                      4                      5                      6
                      A                      A                      A
 Frequencies --    202.2678               251.4975               285.0763
 Red. masses --      1.6666                 1.7814                 3.2289
 Frc consts  --      0.0402                 0.0664                 0.1546
 IR Inten    --      0.7845                 2.3548                 1.1668

                      7                      8                      9
                      A                      A                      A
 Frequencies --    304.3632               344.2623               365.1189
 Red. masses --      1.4240                 2.9070                 3.1506
 Frc consts  --      0.0777                 0.2030                 0.2475
 IR Inten    --      0.7788                 2.5683                 2.7017

                     10                     11                     12
                      A                      A                      A
 Frequencies --    412.8617               562.2072               591.4558
 Red. masses --      2.4568                 3.6013                 4.9023
 Frc consts  --      0.2467                 0.6707                 1.0104
 IR Inten    --      4.5467                 5.5834                 3.8111

                     13                     14                     15
                      A                      A                      A
 Frequencies --    683.2449               694.3840               757.6576
 Red. masses --      2.0659                 4.0304                 4.3090
 Frc consts  --      0.5682                 1.1450                 1.4574
 IR Inten    --      4.3863                 3.8177                 7.8843

                     16                     17                     18
                      A                      A                      A
 Frequencies --    835.1797               877.4043               922.6879
 Red. masses --      2.2887                 2.4133                 1.6592
 Frc consts  --      0.9406                 1.0946                 0.8323
 IR Inten    --     22.8633                17.2473                 4.3958

                     19                     20                     21
                      A                      A                      A
 Frequencies --    934.3403               967.8419              1002.7029
 Red. masses --      2.2159                 2.1910                 1.2757
 Frc consts  --      1.1398                 1.2092                 0.7557
 IR Inten    --      7.6344                 7.5539                 0.2445

                     22                     23                     24
                      A                      A                      A
 Frequencies --   1078.6983              1092.5256              1119.1860
 Red. masses --      2.1495                 2.0426                 1.7145
 Frc consts  --      1.4736                 1.4365                 1.2653
 IR Inten    --      5.4655                18.1276                39.4627

                     25                     26                     27
                      A                      A                      A
 Frequencies --   1144.4949              1178.0297              1185.6807
 Red. masses --      2.1778                 1.3876                 2.2726
 Frc consts  --      1.6807                 1.1346                 1.8824
 IR Inten    --     87.8342                 2.1233                38.8066

                     28                     29                     30
                      A                      A                      A
 Frequencies --   1203.4181              1231.3878              1245.1838
 Red. masses --      1.8068                 1.8494                 1.9901
 Frc consts  --      1.5417                 1.6522                 1.8180
 IR Inten    --      1.9202                31.0690                47.9176

                     31                     32                     33
                      A                      A                      A
 Frequencies --   1332.4822              1366.8392              1396.6027
 Red. masses --      2.0251                 1.7924                 1.2390
 Frc consts  --      2.1185                 1.9730                 1.4239
 IR Inten    --      7.4340                11.8565                11.3253

                     34                     35                     36
                      A                      A                      A
 Frequencies --   1459.9313              1473.7314              1485.8788
 Red. masses --      1.0977                 1.1148                 1.0549
 Frc consts  --      1.3785                 1.4266                 1.3722
 IR Inten    --      7.5571                 0.1841                 3.5839

                     37                     38                     39
                      A                      A                      A
 Frequencies --   1490.9579              1503.2574              1512.0940
 Red. masses --      1.0569                 1.0736                 1.0483
 Frc consts  --      1.3842                 1.4294                 1.4122
 IR Inten    --      0.9350                 5.4215                 7.0796

                     40                     41                     42
                      A                      A                      A
 Frequencies --   1652.4279              1824.0420              2986.1514
 Red. masses --      6.0369                12.4258                 1.0393
 Frc consts  --      9.7119                24.3581                 5.4600
 IR Inten    --     23.4519               219.1379                44.7412

                     43                     44                     45
                      A                      A                      A
 Frequencies --   3031.7767              3038.9249              3044.5696
 Red. masses --      1.0599                 1.0610                 1.0711
 Frc consts  --      5.7398                 5.7731                 5.8496
 IR Inten    --     12.1917                19.8442                47.0233

                     46                     47                     48
                      A                      A                      A
 Frequencies --   3066.3748              3108.3832              3113.8885
 Red. masses --      1.1010                 1.1002                 1.0976
 Frc consts  --      6.0997                 6.2632                 6.2703
 IR Inten    --     11.2742                30.9403                18.2776

                     49                     50                     51
                      A                      A                      A
 Frequencies --   3129.7328              3184.5358              3227.7199
 Red. masses --      1.1028                 1.0894                 1.1013
 Frc consts  --      6.3643                 6.5090                 6.7599
 IR Inten    --      8.4322                 9.8017                 6.3218

 - Thermochemistry -
 -------------------
 Temperature   298.150 Kelvin.  Pressure   1.00000 Atm.
 Atom     1 has atomic number  6 and mass  12.00000

 Molecular mass:   126.06808 amu.
 Principal axes and moments of inertia in atomic units:
                           1         2         3
     Eigenvalues --   754.531311191.448581468.82430
           X            0.99982  -0.01744  -0.00755
           Y            0.01768   0.99929   0.03321
           Z            0.00696  -0.03334   0.99942
 This molecule is an asymmetric top.
 Rotational symmetry number  1.
 Warning -- assumption of classical behavior for rotation
           may cause significant error
 Rotational temperatures (Kelvin)      0.11479     0.07270     0.05897
 Rotational constants (GHZ):           2.39187     1.51475     1.22870
 Zero-point vibrational energy     414171.2 (Joules/Mol)
                                   98.98928 (Kcal/Mol)
 Warning -- explicit consideration of  12 degrees of freedom as
           vibrations may cause significant error
 Vibrational temperatures:     70.05   166.24   253.68   291.02   361.85
          (Kelvin)            410.16   437.91   495.32   525.32   594.02
                              808.89   850.97   983.04   999.06  1090.10
                             1201.64  1262.39  1327.54  1344.31  1392.51
                             1442.66  1552.00  1571.90  1610.26  1646.67
                             1694.92  1705.93  1731.45  1771.69  1791.54
                             1917.14  1966.57  2009.40  2100.51  2120.37
                             2137.85  2145.15  2162.85  2175.56  2377.47
                             2624.39  4296.40  4362.05  4372.33  4380.45
                             4411.82  4472.26  4480.19  4502.98  4581.83
                             4643.96

 Zero-point correction=                           0.157749 (Hartree/Particle)
 Thermal correction to Energy=                    0.166843
 Thermal correction to Enthalpy=                  0.167787
 Thermal correction to Gibbs Free Energy=         0.123759
 Sum of electronic and zero-point Energies=           -423.048926
 Sum of electronic and thermal Energies=              -423.039832
 Sum of electronic and thermal Enthalpies=            -423.038888
 Sum of electronic and thermal Free Energies=         -423.082916

                     E (Thermal)             CV                S
                      KCal/Mol        Cal/Mol-Kelvin    Cal/Mol-Kelvin
 Total                  104.696             33.700             92.665
 Electronic               0.000              0.000              0.000
 Translational            0.889              2.981             40.409
 Rotational               0.889              2.981             28.670
 Vibrational            102.918             27.739             23.587
 Vibration     1          0.595              1.978              4.870
 Vibration     2          0.608              1.937              3.174
 Vibration     3          0.628              1.872              2.367
 Vibration     4          0.639              1.837              2.112
 Vibration     5          0.663              1.760              1.720
 Vibration     6          0.683              1.701              1.503
 Vibration     7          0.695              1.665              1.393
 Vibration     8          0.723              1.587              1.192
 Vibration     9          0.738              1.544              1.100
 Vibration    10          0.777              1.442              0.917
 Vibration    11          0.918              1.113              0.519
 Vibration    12          0.949              1.050              0.465

 Optimization completed.
    -- Stationary point found.
 Normal termination of Gaussian 09 at Tue Jan 28 09:41:01 2020.
