 Gaussian 09, Revision D.01,
 Gaussian 09:  ES64L-G09RevD.01 24-Apr-2013

 -----------------------------
 # b3lyp 6-31G(2df,p) opt Freq
 -----------------------------

 -----
 titel
 -----
 Symbolic Z-matrix:
 Charge =  0 Multiplicity = 1

 SCF Done:  E(RB3LYP) =  -423.147165680     A.U. after   13 cycles
 Optimization completed.
    -- Stationary point found.
 Normal termination of Gaussian 09 at Mon Jan 27 11:28:15 2020.

 ----------------------------------------------------------------------
 #N Geom=AllCheck Guess=TCheck SCRF=Check GenChk RB3LYP/6-31G(2df,p) Fr
 eq
 ----------------------------------------------------------------------

 Structure from the checkpoint file:  "/scratch/puck/g09_928e0d7f-c979-4b29-bc02-be26e41ce8da/Gau-61436.chk"
 -----
 titel
 -----
 Charge =  0 Multiplicity = 1

                         Standard orientation:
 ---------------------------------------------------------------------
 Center     Atomic      Atomic             Coordinates (Angstroms)
 Number     Number       Type             X           Y           Z
 ---------------------------------------------------------------------
      1          6           0        2.212557   -0.109792   -0.240489
      2          6           0        1.205133    0.829600    0.353613
      3          8           0        0.334729    1.399533   -0.564060
      4          6           0       -1.024472    1.553657   -0.188524
      5          6           0       -1.654719    0.416623    0.633947
      6          6           0       -1.372907   -0.999048    0.153868
      7          8           0       -0.640092   -1.181727   -1.064390
      8          6           0        0.006476   -1.514059    0.165554
      9          6           0        1.124047   -0.652321    0.663056
     10          1           0        2.089485   -0.290888   -1.302380
     11          1           0        3.235407   -0.095319    0.118075
     12          1           0        1.522484    1.488214    1.164438
     13          1           0       -1.161787    2.491857    0.372876
     14          1           0       -1.557198    1.657043   -1.138491
     15          1           0       -1.333226    0.489643    1.680368
     16          1           0       -2.735683    0.598943    0.636480
     17          1           0       -2.189774   -1.710412    0.280869
     18          1           0        0.159252   -2.586081    0.302693
     19          1           0        1.437252   -0.933418    1.666523
 ---------------------------------------------------------------------

 SCF Done:  E(RB3LYP) =  -423.147165680     A.U. after    1 cycles

 The electronic state is 1-A.
 Alpha  occ. eigenvalues --  -19.14556 -19.13707 -10.23498 -10.23431 -10.23406
 Alpha  occ. eigenvalues --  -10.22898 -10.19402 -10.19079 -10.18292  -1.06797
 Alpha  occ. eigenvalues --   -1.03261  -0.85131  -0.77210  -0.68445  -0.67443
 Alpha  occ. eigenvalues --   -0.60124  -0.57283  -0.55772  -0.51831  -0.49585
 Alpha  occ. eigenvalues --   -0.47180  -0.45705  -0.44147  -0.43353  -0.39672
 Alpha  occ. eigenvalues --   -0.38337  -0.37942  -0.35797  -0.33412  -0.32407
 Alpha  occ. eigenvalues --   -0.28346  -0.27048  -0.27003  -0.23533
 Alpha virt. eigenvalues --    0.08024   0.09152   0.10590   0.11091   0.12760
 Alpha virt. eigenvalues --    0.13288   0.15071   0.15214   0.16295   0.16693
 Alpha virt. eigenvalues --    0.17175   0.18309   0.18829   0.20891   0.23496

 Mulliken charges:
               1
     1  C   -0.320395
     2  C    0.096253
     3  O   -0.238163
     4  C   -0.050856
     5  C   -0.286247
     6  C    0.054064
     7  O   -0.244248
     8  C    0.037784
     9  C   -0.074983
    10  H    0.138787
    11  H    0.111233
    12  H    0.081756
    13  H    0.088229
    14  H    0.118392
    15  H    0.113860
    16  H    0.107831
    17  H    0.088874
    18  H    0.088996
    19  H    0.088832
 Sum of Mulliken charges =   0.00000

 Dipole moment (field-independent basis, Debye):
    X=             -0.5027    Y=             -0.2423    Z=              2.5675  Tot=              2.6274
 Quadrupole moment (field-independent basis, Debye-Ang):
   XX=            -48.5315   YY=            -53.1432   ZZ=            -54.6630
   XY=             -1.7594   XZ=              0.2518   YZ=             -0.5211

  Exact polarizability:  86.917  -3.136  74.381  -0.111   0.055  62.606
 Approx polarizability: 117.654  -4.399 103.731  -0.272  -0.973 103.289

                      1                      2                      3
                      A                      A                      A
 Frequencies --    145.6793               188.6755               221.2895
 Red. masses --      2.2843                 3.2468                 3.1218
 Frc consts  --      0.0286                 0.0681                 0.0901
 IR Inten    --      1.6142                 2.9991                 3.5045

                      4                      5                      6
                      A                      A                      A
 Frequencies --    279.5504               314.6896               418.3395
 Red. masses --      4.1361                 3.9916                 3.6155
 Frc consts  --      0.1904                 0.2329                 0.3728
 IR Inten    --      0.8949                 3.2599                 3.3336

                      7                      8                      9
                      A                      A                      A
 Frequencies --    470.7181               516.5685               632.2556
 Red. masses --      3.3067                 3.7009                 2.4430
 Frc consts  --      0.4317                 0.5819                 0.5754
 IR Inten    --      2.1531                 5.9782                 5.3583

                     10                     11                     12
                      A                      A                      A
 Frequencies --    707.9918               758.6023               778.1465
 Red. masses --      2.2925                 3.1769                 3.0252
 Frc consts  --      0.6770                 1.0771                 1.0793
 IR Inten    --      0.3584                 5.6445                12.0783

                     13                     14                     15
                      A                      A                      A
 Frequencies --    791.1526               834.2633               878.3554
 Red. masses --      2.3809                 1.7776                 2.1546
 Frc consts  --      0.8780                 0.7289                 0.9794
 IR Inten    --     10.1765                 2.0365                 4.0102

                     16                     17                     18
                      A                      A                      A
 Frequencies --    901.9461               935.3978               977.1571
 Red. masses --      2.9702                 3.9214                 2.7067
 Frc consts  --      1.4236                 2.0215                 1.5227
 IR Inten    --      7.7720                 8.4709                 7.4927

                     19                     20                     21
                      A                      A                      A
 Frequencies --    990.0605              1041.3358              1065.6472
 Red. masses --      2.0520                 1.6099                 1.4077
 Frc consts  --      1.1851                 1.0286                 0.9419
 IR Inten    --      8.6224                 5.3832                 7.7539

                     22                     23                     24
                      A                      A                      A
 Frequencies --   1090.7726              1100.3622              1116.3738
 Red. masses --      2.1014                 1.7622                 2.3997
 Frc consts  --      1.4731                 1.2571                 1.7621
 IR Inten    --     10.4809                 6.7247                37.9985

                     25                     26                     27
                      A                      A                      A
 Frequencies --   1127.4030              1142.9167              1146.6119
 Red. masses --      1.2223                 1.6600                 1.4225
 Frc consts  --      0.9153                 1.2776                 1.1019
 IR Inten    --      0.4238                19.4566                 2.6157

                     28                     29                     30
                      A                      A                      A
 Frequencies --   1185.8611              1229.2152              1270.7759
 Red. masses --      1.9015                 1.6375                 1.4310
 Frc consts  --      1.5755                 1.4578                 1.3615
 IR Inten    --     36.0742                26.0158                28.0080

                     31                     32                     33
                      A                      A                      A
 Frequencies --   1279.9508              1299.8211              1355.8986
 Red. masses --      1.2069                 1.3364                 1.2269
 Frc consts  --      1.1649                 1.3303                 1.3290
 IR Inten    --      8.1277                17.4287                 4.6475

                     34                     35                     36
                      A                      A                      A
 Frequencies --   1377.4574              1396.4861              1404.8832
 Red. masses --      1.4647                 1.3135                 1.6680
 Frc consts  --      1.6374                 1.5092                 1.9396
 IR Inten    --      2.0914                32.9591                 1.7549

                     37                     38                     39
                      A                      A                      A
 Frequencies --   1429.9498              1464.7430              1477.7668
 Red. masses --      1.3390                 2.5661                 1.2272
 Frc consts  --      1.6132                 3.2438                 1.5790
 IR Inten    --      8.4523                20.6667                 5.4596

                     40                     41                     42
                      A                      A                      A
 Frequencies --   1488.6600              1507.4732              2974.7122
 Red. masses --      1.4556                 1.1206                 1.0717
 Frc consts  --      1.9005                 1.5004                 5.5876
 IR Inten    --      6.4446                 2.9891                76.8416

                     43                     44                     45
                      A                      A                      A
 Frequencies --   3030.3987              3060.5411              3075.2709
 Red. masses --      1.0617                 1.0975                 1.0869
 Frc consts  --      5.7447                 6.0567                 6.0562
 IR Inten    --     24.1727                 5.9928                44.7163

                     46                     47                     48
                      A                      A                      A
 Frequencies --   3084.6251              3086.0567              3103.3881
 Red. masses --      1.0915                 1.0868                 1.0908
 Frc consts  --      6.1189                 6.0985                 6.1895
 IR Inten    --     22.2091                40.9011                60.5416

                     49                     50                     51
                      A                      A                      A
 Frequencies --   3129.1889              3139.5514              3233.6926
 Red. masses --      1.0857                 1.0562                 1.1174
 Frc consts  --      6.2635                 6.1337                 6.8842
 IR Inten    --     19.8086                11.8338                 6.2142

 - Thermochemistry -
 -------------------
 Temperature   298.150 Kelvin.  Pressure   1.00000 Atm.
 Atom     1 has atomic number  6 and mass  12.00000

 Molecular mass:   126.06808 amu.
 Principal axes and moments of inertia in atomic units:
                           1         2         3
     Eigenvalues --   739.12838 902.514551304.68304
           X            0.99530  -0.09648  -0.00866
           Y            0.09645   0.99533  -0.00349
           Z            0.00895   0.00264   0.99996
 This molecule is an asymmetric top.
 Rotational symmetry number  1.
 Warning -- assumption of classical behavior for rotation
           may cause significant error
 Rotational temperatures (Kelvin)      0.11718     0.09597     0.06639
 Rotational constants (GHZ):           2.44172     1.99968     1.38328
 Zero-point vibrational energy     422632.5 (Joules/Mol)
                                  101.01158 (Kcal/Mol)
 Warning -- explicit consideration of   8 degrees of freedom as
           vibrations may cause significant error
 Vibrational temperatures:    209.60   271.46   318.39   402.21   452.77
          (Kelvin)            601.90   677.26   743.23   909.67  1018.64
                             1091.46  1119.58  1138.29  1200.32  1263.76
                             1297.70  1345.83  1405.91  1424.47  1498.25
                             1533.23  1569.38  1583.17  1606.21  1622.08
                             1644.40  1649.72  1706.19  1768.56  1828.36
                             1841.56  1870.15  1950.83  1981.85  2009.23
                             2021.31  2057.38  2107.44  2126.17  2141.85
                             2168.92  4279.94  4360.06  4403.43  4424.62
                             4438.08  4440.14  4465.08  4502.20  4517.11
                             4652.56

 Zero-point correction=                           0.160972 (Hartree/Particle)
 Thermal correction to Energy=                    0.168305
 Thermal correction to Enthalpy=                  0.169249
 Thermal correction to Gibbs Free Energy=         0.129487
 Sum of electronic and zero-point Energies=           -422.986193
 Sum of electronic and thermal Energies=              -422.978861
 Sum of electronic and thermal Enthalpies=            -422.977917
 Sum of electronic and thermal Free Energies=         -423.017679

                     E (Thermal)             CV                S
                      KCal/Mol        Cal/Mol-Kelvin    Cal/Mol-Kelvin
 Total                  105.613             29.525             83.685
 Electronic               0.000              0.000              0.000
 Translational            0.889              2.981             40.409
 Rotational               0.889              2.981             28.256
 Vibrational            103.835             23.564             15.021
 Vibration     1          0.617              1.907              2.728
 Vibration     2          0.633              1.855              2.241
 Vibration     3          0.648              1.809              1.949
 Vibration     4          0.680              1.711              1.536
 Vibration     5          0.702              1.646              1.338
 Vibration     6          0.781              1.430              0.898
 Vibration     7          0.828              1.315              0.736
 Vibration     8          0.872              1.213              0.618

 Normal termination of Gaussian 09 at Mon Jan 27 13:50:37 2020.
