 Gaussian 09, Revision D.01,
 Gaussian 09:  ES64L-G09RevD.01 24-Apr-2013

 -----------------------------
 # b3lyp 6-31G(2df,p) opt Freq
 -----------------------------

 -----
 titel
 -----
 Symbolic Z-matrix:
 Charge =  0 Multiplicity = 1

 SCF Done:  E(RB3LYP) =  -423.210147251     A.U. after   14 cycles
 Optimization completed.
    -- Stationary point found.
 Normal termination of Gaussian 09 at Tue Jan 28 00:37:50 2020.

 ----------------------------------------------------------------------
 #N Geom=AllCheck Guess=TCheck SCRF=Check GenChk RB3LYP/6-31G(2df,p) Fr
 eq
 ----------------------------------------------------------------------

 Structure from the checkpoint file:  "/scratch/puck/g09_b0b9f7c6-8aa4-4e3d-8599-9728a746138d/Gau-107564.chk"
 -----
 titel
 -----
 Charge =  0 Multiplicity = 1

                         Standard orientation:
 ---------------------------------------------------------------------
 Center     Atomic      Atomic             Coordinates (Angstroms)
 Number     Number       Type             X           Y           Z
 ---------------------------------------------------------------------
      1          6           0        2.437356    0.581563   -0.039490
      2          6           0        1.395367   -0.363093    0.566676
      3          6           0        0.215438    0.299669    1.350754
      4          6           0       -0.809234   -0.127052    0.260683
      5          6           0       -1.994959   -1.012956    0.648263
      6          6           0       -1.252153    1.006761   -0.643385
      7          8           0       -0.839580    2.137946   -0.591304
      8          6           0        0.364324   -0.907524   -0.428795
      9          8           0        0.393068   -1.682152   -1.337847
     10          1           0        1.956108    1.413398   -0.561973
     11          1           0        3.072765    0.999770    0.747204
     12          1           0        3.075418    0.047904   -0.749848
     13          1           0        1.895975   -1.175972    1.104440
     14          1           0        0.019763   -0.155054    2.323309
     15          1           0        0.297998    1.382058    1.457684
     16          1           0       -2.710089   -0.464479    1.270003
     17          1           0       -2.516648   -1.370817   -0.244963
     18          1           0       -1.658326   -1.889024    1.209615
     19          1           0       -1.997701    0.701658   -1.410497
 ---------------------------------------------------------------------

 SCF Done:  E(RB3LYP) =  -423.210147251     A.U. after    1 cycles

 The electronic state is 1-A.
 Alpha  occ. eigenvalues --  -19.15175 -19.15048 -10.28030 -10.27943 -10.21288
 Alpha  occ. eigenvalues --  -10.20559 -10.19946 -10.19377 -10.18814  -1.06155
 Alpha  occ. eigenvalues --   -1.05584  -0.86501  -0.77560  -0.70692  -0.66059
 Alpha  occ. eigenvalues --   -0.63260  -0.58226  -0.50903  -0.49584  -0.47445
 Alpha  occ. eigenvalues --   -0.47028  -0.45424  -0.42302  -0.41632  -0.41231
 Alpha  occ. eigenvalues --   -0.40152  -0.39815  -0.38261  -0.37868  -0.34599
 Alpha  occ. eigenvalues --   -0.34443  -0.32776  -0.26961  -0.24268
 Alpha virt. eigenvalues --   -0.04880  -0.01148   0.08774   0.10601   0.11805
 Alpha virt. eigenvalues --    0.12805   0.13426   0.14965   0.15289   0.15997
 Alpha virt. eigenvalues --    0.16352   0.17324   0.17947   0.18793   0.21268

 Mulliken charges:
               1
     1  C   -0.409087
     2  C   -0.096451
     3  C   -0.302410
     4  C    0.092474
     5  C   -0.464107
     6  C    0.123304
     7  O   -0.250649
     8  C    0.360107
     9  O   -0.293903
    10  H    0.144257
    11  H    0.125440
    12  H    0.133907
    13  H    0.103217
    14  H    0.106908
    15  H    0.131808
    16  H    0.131663
    17  H    0.140545
    18  H    0.130083
    19  H    0.092895
 Sum of Mulliken charges =   0.00000

 Dipole moment (field-independent basis, Debye):
    X=             -0.3142    Y=             -0.7703    Z=              2.1675  Tot=              2.3216
 Quadrupole moment (field-independent basis, Debye-Ang):
   XX=            -48.5252   YY=            -62.0416   ZZ=            -54.3954
   XY=              2.3552   XZ=              1.1083   YZ=             -2.7363

  Exact polarizability:  84.924   1.236  76.576   2.709   1.561  70.099
 Approx polarizability: 111.243  -1.047 127.346   3.736   8.264 108.499

                      1                      2                      3
                      A                      A                      A
 Frequencies --     46.7912                86.4611               164.1125
 Red. masses --      3.7740                 6.6304                 2.8868
 Frc consts  --      0.0049                 0.0292                 0.0458
 IR Inten    --      2.3952                 6.1844                 0.6548

                      4                      5                      6
                      A                      A                      A
 Frequencies --    177.1994               206.3158               225.3058
 Red. masses --      1.1219                 2.6788                 1.0613
 Frc consts  --      0.0208                 0.0672                 0.0317
 IR Inten    --      0.2258                 1.7842                 0.0207

                      7                      8                      9
                      A                      A                      A
 Frequencies --    241.0549               250.0991               291.4527
 Red. masses --      3.4594                 3.3188                 2.6128
 Frc consts  --      0.1184                 0.1223                 0.1308
 IR Inten    --      7.8292                 2.0595                 2.9875

                     10                     11                     12
                      A                      A                      A
 Frequencies --    377.3102               487.7685               564.8509
 Red. masses --      2.0351                 3.0032                 4.9579
 Frc consts  --      0.1707                 0.4210                 0.9320
 IR Inten    --      0.6541                 2.6230                 1.3889

                     13                     14                     15
                      A                      A                      A
 Frequencies --    622.5451               700.8915               744.4923
 Red. masses --      4.6932                 2.8771                 4.0034
 Frc consts  --      1.0717                 0.8327                 1.3074
 IR Inten    --     12.2869                 0.8768                 6.4382

                     16                     17                     18
                      A                      A                      A
 Frequencies --    804.3418               847.6120               903.5107
 Red. masses --      2.9747                 2.4881                 1.9164
 Frc consts  --      1.1339                 1.0532                 0.9217
 IR Inten    --     10.7738                38.8513                 3.0087

                     19                     20                     21
                      A                      A                      A
 Frequencies --    938.5443               951.2236               994.4499
 Red. masses --      1.6645                 1.9657                 1.4759
 Frc consts  --      0.8639                 1.0479                 0.8600
 IR Inten    --     56.5780                41.9601                 2.8581

                     22                     23                     24
                      A                      A                      A
 Frequencies --   1014.7151              1085.8652              1090.4309
 Red. masses --      1.6801                 1.9264                 2.0564
 Frc consts  --      1.0192                 1.3383                 1.4407
 IR Inten    --     10.0793                 5.1297                48.7832

                     25                     26                     27
                      A                      A                      A
 Frequencies --   1133.9608              1187.0408              1203.5529
 Red. masses --      2.0308                 2.0255                 3.0587
 Frc consts  --      1.5386                 1.6815                 2.6105
 IR Inten    --     11.3726                 1.2708                12.9153

                     28                     29                     30
                      A                      A                      A
 Frequencies --   1235.2288              1245.2430              1274.7855
 Red. masses --      1.4415                 2.0130                 1.7207
 Frc consts  --      1.2959                 1.8391                 1.6475
 IR Inten    --      0.5262                10.0004                14.1685

                     31                     32                     33
                      A                      A                      A
 Frequencies --   1317.5599              1399.8276              1406.1423
 Red. masses --      1.5771                 1.2068                 1.2049
 Frc consts  --      1.6131                 1.3933                 1.4036
 IR Inten    --      1.0479                 3.2470                 2.0774

                     34                     35                     36
                      A                      A                      A
 Frequencies --   1424.0001              1474.3358              1489.5815
 Red. masses --      1.1895                 1.0943                 1.0539
 Frc consts  --      1.4211                 1.4014                 1.3777
 IR Inten    --      2.7849                 7.2576                11.0234

                     37                     38                     39
                      A                      A                      A
 Frequencies --   1493.9023              1496.4747              1501.8898
 Red. masses --      1.0454                 1.0504                 1.0495
 Frc consts  --      1.3746                 1.3860                 1.3948
 IR Inten    --      3.5799                 3.4858                 2.3334

                     40                     41                     42
                      A                      A                      A
 Frequencies --   1803.2548              1884.8426              2891.4954
 Red. masses --     10.7818                12.5751                 1.0836
 Frc consts  --     20.6565                26.3215                 5.3381
 IR Inten    --    234.2711               177.8816               100.2870

                     43                     44                     45
                      A                      A                      A
 Frequencies --   3035.7355              3040.5108              3049.1453
 Red. masses --      1.0345                 1.0341                 1.0837
 Frc consts  --      5.6168                 5.6326                 5.9363
 IR Inten    --     21.7325                20.1244                10.5318

                     46                     47                     48
                      A                      A                      A
 Frequencies --   3081.4375              3107.6648              3112.5873
 Red. masses --      1.0594                 1.1021                 1.1021
 Frc consts  --      5.9268                 6.2712                 6.2907
 IR Inten    --     16.8605                11.8206                14.2673

                     49                     50                     51
                      A                      A                      A
 Frequencies --   3114.1197              3121.0759              3141.9510
 Red. masses --      1.1015                 1.1027                 1.1079
 Frc consts  --      6.2937                 6.3288                 6.4438
 IR Inten    --     15.5281                13.8738                 7.3723

 - Thermochemistry -
 -------------------
 Temperature   298.150 Kelvin.  Pressure   1.00000 Atm.
 Atom     1 has atomic number  6 and mass  12.00000

 Molecular mass:   126.06808 amu.
 Principal axes and moments of inertia in atomic units:
                           1         2         3
     Eigenvalues --   923.689891150.072111444.49172
           X            0.98584   0.16760  -0.00625
           Y           -0.16772   0.98505  -0.03935
           Z           -0.00044   0.03984   0.99921
 This molecule is an asymmetric top.
 Rotational symmetry number  1.
 Warning -- assumption of classical behavior for rotation
           may cause significant error
 Rotational temperatures (Kelvin)      0.09377     0.07531     0.05996
 Rotational constants (GHZ):           1.95384     1.56924     1.24940
 Zero-point vibrational energy     409629.4 (Joules/Mol)
                                   97.90378 (Kcal/Mol)
 Warning -- explicit consideration of  12 degrees of freedom as
           vibrations may cause significant error
 Vibrational temperatures:     67.32   124.40   236.12   254.95   296.84
          (Kelvin)            324.16   346.82   359.84   419.33   542.86
                              701.79   812.69   895.70  1008.43  1071.16
                             1157.27  1219.52  1299.95  1350.35  1368.60
                             1430.79  1459.95  1562.32  1568.88  1631.51
                             1707.88  1731.64  1777.22  1791.62  1834.13
                             1895.67  2014.04  2023.12  2048.82  2121.24
                             2143.17  2149.39  2153.09  2160.88  2594.48
                             2711.86  4160.21  4367.74  4374.61  4387.03
                             4433.50  4471.23  4478.31  4480.52  4490.53
                             4520.56

 Zero-point correction=                           0.156020 (Hartree/Particle)
 Thermal correction to Energy=                    0.165831
 Thermal correction to Enthalpy=                  0.166775
 Thermal correction to Gibbs Free Energy=         0.120958
 Sum of electronic and zero-point Energies=           -423.054128
 Sum of electronic and thermal Energies=              -423.044316
 Sum of electronic and thermal Enthalpies=            -423.043372
 Sum of electronic and thermal Free Energies=         -423.089189

                     E (Thermal)             CV                S
                      KCal/Mol        Cal/Mol-Kelvin    Cal/Mol-Kelvin
 Total                  104.061             34.971             96.430
 Electronic               0.000              0.000              0.000
 Translational            0.889              2.981             40.409
 Rotational               0.889              2.981             28.819
 Vibrational            102.283             29.009             27.202
 Vibration     1          0.595              1.979              4.949
 Vibration     2          0.601              1.959              3.739
 Vibration     3          0.623              1.887              2.502
 Vibration     4          0.628              1.870              2.358
 Vibration     5          0.641              1.831              2.076
 Vibration     6          0.650              1.802              1.916
 Vibration     7          0.658              1.778              1.795
 Vibration     8          0.663              1.763              1.730
 Vibration     9          0.687              1.690              1.466
 Vibration    10          0.748              1.518              1.050
 Vibration    11          0.844              1.277              0.689
 Vibration    12          0.921              1.107              0.514

 Optimization completed.
    -- Stationary point found.
 Normal termination of Gaussian 09 at Tue Jan 28 01:20:41 2020.
