 Gaussian 09, Revision D.01,
 Gaussian 09:  ES64L-G09RevD.01 24-Apr-2013

 -----------------------------
 # b3lyp 6-31G(2df,p) opt Freq
 -----------------------------

 -----
 titel
 -----
 Symbolic Z-matrix:
 Charge =  0 Multiplicity = 1

 SCF Done:  E(RB3LYP) =  -423.133237150     A.U. after   14 cycles
 SCF Done:  E(RB3LYP) =  -423.133237358     A.U. after    7 cycles
 Optimization completed.
    -- Stationary point found.
 Normal termination of Gaussian 09 at Tue Jan 28 12:44:35 2020.

 ----------------------------------------------------------------------
 #N Geom=AllCheck Guess=TCheck SCRF=Check GenChk RB3LYP/6-31G(2df,p) Fr
 eq
 ----------------------------------------------------------------------

 Structure from the checkpoint file:  "/scratch/puck/g09_0b88d95f-0da0-4c04-9cdc-fbb13b6cbdad/Gau-116114.chk"
 -----
 titel
 -----
 Charge =  0 Multiplicity = 1

                         Standard orientation:
 ---------------------------------------------------------------------
 Center     Atomic      Atomic             Coordinates (Angstroms)
 Number     Number       Type             X           Y           Z
 ---------------------------------------------------------------------
      1          6           0       -2.768108   -0.901711   -0.356698
      2          6           0       -1.454630   -0.188011   -0.629387
      3          6           0       -1.140010    1.071167    0.254522
      4          8           0       -0.778868    0.151028    1.339412
      5          6           0       -0.221706   -0.634665    0.233950
      6          6           0        0.881100    0.306189   -0.292809
      7          6           0        2.267383   -0.090625   -0.662461
      8          8           0        2.911145   -0.815446    0.382613
      9          6           0        0.243115    1.482280   -0.270913
     10          1           0       -3.608864   -0.346638   -0.787355
     11          1           0       -2.768832   -1.899122   -0.809932
     12          1           0       -2.935333   -1.008143    0.717442
     13          1           0       -1.265624   -0.071130   -1.700391
     14          1           0       -1.877790    1.826151    0.525356
     15          1           0        0.016046   -1.668750    0.479943
     16          1           0        2.261671   -0.775469   -1.519710
     17          1           0        2.846984    0.796321   -0.960450
     18          1           0        2.855475   -0.275654    1.178712
     19          1           0        0.575194    2.470029   -0.557036
 ---------------------------------------------------------------------

 SCF Done:  E(RB3LYP) =  -423.133237358     A.U. after    1 cycles

 The electronic state is 1-A.
 Alpha  occ. eigenvalues --  -19.13761 -19.12881 -10.24086 -10.23764 -10.23610
 Alpha  occ. eigenvalues --  -10.19833 -10.18888 -10.18614 -10.17444  -1.04559
 Alpha  occ. eigenvalues --   -1.01720  -0.81266  -0.75986  -0.71031  -0.67621
 Alpha  occ. eigenvalues --   -0.64006  -0.54519  -0.53719  -0.52309  -0.49250
 Alpha  occ. eigenvalues --   -0.46278  -0.43923  -0.42664  -0.42193  -0.39156
 Alpha  occ. eigenvalues --   -0.38745  -0.37896  -0.35777  -0.33631  -0.31957
 Alpha  occ. eigenvalues --   -0.30872  -0.27763  -0.24943  -0.23534
 Alpha virt. eigenvalues --   -0.00519   0.09177   0.10136   0.10896   0.12179
 Alpha virt. eigenvalues --    0.12990   0.14322   0.14682   0.15959   0.16597
 Alpha virt. eigenvalues --    0.16923   0.18220   0.18483   0.19344   0.21410

 Mulliken charges:
               1
     1  C   -0.426087
     2  C    0.036715
     3  C    0.012660
     4  O   -0.290781
     5  C   -0.045147
     6  C    0.330282
     7  C   -0.200443
     8  O   -0.412295
     9  C   -0.219006
    10  H    0.114701
    11  H    0.116046
    12  H    0.136890
    13  H    0.070014
    14  H    0.077694
    15  H    0.086945
    16  H    0.117128
    17  H    0.097226
    18  H    0.287189
    19  H    0.110268
 Sum of Mulliken charges =   0.00000

 Dipole moment (field-independent basis, Debye):
    X=             -0.5909    Y=              1.2542    Z=             -1.5078  Tot=              2.0483
 Quadrupole moment (field-independent basis, Debye-Ang):
   XX=            -54.8602   YY=            -51.1560   ZZ=            -54.3553
   XY=              3.1789   XZ=              1.9869   YZ=              0.3622

  Exact polarizability:  91.466  -2.033  77.378  -1.324  -0.363  62.276
 Approx polarizability: 117.464 -13.108 125.857  -1.989  -0.912 100.271

                      1                      2                      3
                      A                      A                      A
 Frequencies --     75.4582               115.9676               196.1581
 Red. masses --      3.8571                 3.9004                 2.5507
 Frc consts  --      0.0129                 0.0309                 0.0578
 IR Inten    --      2.9701                 0.1957                 2.8381

                      4                      5                      6
                      A                      A                      A
 Frequencies --    228.2010               270.6288               317.0174
 Red. masses --      1.0423                 2.8590                 2.2057
 Frc consts  --      0.0320                 0.1234                 0.1306
 IR Inten    --      0.1266                 4.2297                27.5972

                      7                      8                      9
                      A                      A                      A
 Frequencies --    351.6962               425.4806               500.1140
 Red. masses --      1.4483                 2.6126                 3.1263
 Frc consts  --      0.1055                 0.2787                 0.4607
 IR Inten    --     64.4705                43.2552                 0.5084

                     10                     11                     12
                      A                      A                      A
 Frequencies --    574.4083               608.9582               705.4188
 Red. masses --      5.4954                 3.3478                 4.3103
 Frc consts  --      1.0683                 0.7314                 1.2637
 IR Inten    --     13.9650                 1.3559                 7.6605

                     13                     14                     15
                      A                      A                      A
 Frequencies --    771.6126               811.9286               816.1117
 Red. masses --      2.0679                 1.8723                 3.0087
 Frc consts  --      0.7254                 0.7272                 1.1807
 IR Inten    --      2.1241                19.1891                 2.0924

                     16                     17                     18
                      A                      A                      A
 Frequencies --    845.1638               876.7323               903.0344
 Red. masses --      3.3366                 2.9988                 2.2713
 Frc consts  --      1.4042                 1.3581                 1.0913
 IR Inten    --     12.2410                38.8650                 5.8396

                     19                     20                     21
                      A                      A                      A
 Frequencies --    921.4308               980.0837              1017.0298
 Red. masses --      3.6545                 1.7409                 2.9213
 Frc consts  --      1.8281                 0.9852                 1.7803
 IR Inten    --     21.8041                21.0613                 8.4018

                     22                     23                     24
                      A                      A                      A
 Frequencies --   1048.4694              1059.5667              1076.1329
 Red. masses --      1.8592                 2.3941                 2.4753
 Frc consts  --      1.2042                 1.5836                 1.6889
 IR Inten    --     34.5109                33.2540                 6.4121

                     25                     26                     27
                      A                      A                      A
 Frequencies --   1113.2127              1149.8905              1176.8022
 Red. masses --      2.1476                 1.4355                 1.3670
 Frc consts  --      1.5681                 1.1183                 1.1154
 IR Inten    --      2.9736                 1.6233                16.4154

                     28                     29                     30
                      A                      A                      A
 Frequencies --   1204.4164              1214.9974              1232.7431
 Red. masses --      1.5860                 1.5311                 1.5050
 Frc consts  --      1.3556                 1.3317                 1.3475
 IR Inten    --      3.8464                 5.7554                 1.6574

                     31                     32                     33
                      A                      A                      A
 Frequencies --   1245.3450              1295.7016              1298.9196
 Red. masses --      1.3379                 2.2689                 1.4139
 Frc consts  --      1.2225                 2.2443                 1.4055
 IR Inten    --      4.8385                 4.7782                 7.6801

                     34                     35                     36
                      A                      A                      A
 Frequencies --   1365.8662              1373.8441              1402.4464
 Red. masses --      1.2525                 1.4360                 1.3019
 Frc consts  --      1.3767                 1.5969                 1.5087
 IR Inten    --      0.2761                 5.5746                 5.1457

                     37                     38                     39
                      A                      A                      A
 Frequencies --   1416.5936              1491.3591              1497.9134
 Red. masses --      1.2380                 1.0459                 1.0871
 Frc consts  --      1.4637                 1.3706                 1.4372
 IR Inten    --     80.9511                 4.7185                 0.7494

                     40                     41                     42
                      A                      A                      A
 Frequencies --   1503.6953              1678.1245              2989.1682
 Red. masses --      1.0486                 7.6787                 1.0660
 Frc consts  --      1.3969                12.7404                 5.6120
 IR Inten    --      3.6554                 1.4626                59.0852

                     43                     44                     45
                      A                      A                      A
 Frequencies --   3033.4271              3045.3563              3067.2336
 Red. masses --      1.0376                 1.0954                 1.0850
 Frc consts  --      5.6251                 5.9853                 6.0142
 IR Inten    --     27.0527                23.8932                31.4191

                     46                     47                     48
                      A                      A                      A
 Frequencies --   3091.2743              3127.1121              3130.5914
 Red. masses --      1.1005                 1.0906                 1.0995
 Frc consts  --      6.1962                 6.2837                 6.3487
 IR Inten    --     20.0679                48.5671                16.4378

                     49                     50                     51
                      A                      A                      A
 Frequencies --   3137.2483              3235.5117              3805.9246
 Red. masses --      1.0920                 1.0985                 1.0663
 Frc consts  --      6.3327                 6.7754                 9.0999
 IR Inten    --     16.3506                 5.0202                19.0395

 - Thermochemistry -
 -------------------
 Temperature   298.150 Kelvin.  Pressure   1.00000 Atm.
 Atom     1 has atomic number  6 and mass  12.00000

 Molecular mass:   126.06808 amu.
 Principal axes and moments of inertia in atomic units:
                           1         2         3
     Eigenvalues --   505.874431653.961121759.65809
           X            0.99974   0.02241   0.00328
           Y           -0.02243   0.99974   0.00431
           Z           -0.00319  -0.00438   0.99999
 This molecule is an asymmetric top.
 Rotational symmetry number  1.
 Warning -- assumption of classical behavior for rotation
           may cause significant error
 Rotational temperatures (Kelvin)      0.17122     0.05237     0.04922
 Rotational constants (GHZ):           3.56757     1.09116     1.02562
 Zero-point vibrational energy     417625.4 (Joules/Mol)
                                   99.81488 (Kcal/Mol)
 Warning -- explicit consideration of  11 degrees of freedom as
           vibrations may cause significant error
 Vibrational temperatures:    108.57   166.85   282.23   328.33   389.37
          (Kelvin)            456.12   506.01   612.17   719.55   826.44
                              876.15  1014.94  1110.18  1168.18  1174.20
                             1216.00  1261.42  1299.26  1325.73  1410.12
                             1463.28  1508.51  1524.48  1548.31  1601.66
                             1654.43  1693.15  1732.88  1748.11  1773.64
                             1791.77  1864.22  1868.85  1965.17  1976.65
                             2017.81  2038.16  2145.73  2155.16  2163.48
                             2414.44  4300.74  4364.42  4381.58  4413.06
                             4447.65  4499.21  4504.22  4513.79  4655.17
                             5475.87

 Zero-point correction=                           0.159065 (Hartree/Particle)
 Thermal correction to Energy=                    0.167456
 Thermal correction to Enthalpy=                  0.168400
 Thermal correction to Gibbs Free Energy=         0.125943
 Sum of electronic and zero-point Energies=           -422.974172
 Sum of electronic and thermal Energies=              -422.965781
 Sum of electronic and thermal Enthalpies=            -422.964837
 Sum of electronic and thermal Free Energies=         -423.007295

                     E (Thermal)             CV                S
                      KCal/Mol        Cal/Mol-Kelvin    Cal/Mol-Kelvin
 Total                  105.080             32.260             89.360
 Electronic               0.000              0.000              0.000
 Translational            0.889              2.981             40.409
 Rotational               0.889              2.981             28.778
 Vibrational            103.303             26.298             20.174
 Vibration     1          0.599              1.965              4.006
 Vibration     2          0.608              1.936              3.166
 Vibration     3          0.636              1.845              2.169
 Vibration     4          0.651              1.798              1.893
 Vibration     5          0.674              1.727              1.592
 Vibration     6          0.704              1.641              1.325
 Vibration     7          0.728              1.572              1.159
 Vibration     8          0.787              1.415              0.874
 Vibration     9          0.856              1.250              0.658
 Vibration    10          0.931              1.087              0.496
 Vibration    11          0.968              1.013              0.435

 Optimization completed.
    -- Stationary point found.
 Normal termination of Gaussian 09 at Tue Jan 28 13:26:05 2020.
