 Gaussian 09, Revision D.01,
 Gaussian 09:  ES64L-G09RevD.01 24-Apr-2013

 -----------------------------
 # b3lyp 6-31G(2df,p) opt Freq
 -----------------------------

 -----
 titel
 -----
 Symbolic Z-matrix:
 Charge =  0 Multiplicity = 1

 SCF Done:  E(RB3LYP) =  -423.161709283     A.U. after   14 cycles
 Optimization completed.
    -- Stationary point found.
 Normal termination of Gaussian 09 at Tue Jan 28 03:18:03 2020.

 ----------------------------------------------------------------------
 #N Geom=AllCheck Guess=TCheck SCRF=Check GenChk RB3LYP/6-31G(2df,p) Fr
 eq
 ----------------------------------------------------------------------

 Structure from the checkpoint file:  "/scratch/puck/g09_5032b71e-a700-41e9-930d-90a46ce1bbfe/Gau-173824.chk"
 -----
 titel
 -----
 Charge =  0 Multiplicity = 1

                         Standard orientation:
 ---------------------------------------------------------------------
 Center     Atomic      Atomic             Coordinates (Angstroms)
 Number     Number       Type             X           Y           Z
 ---------------------------------------------------------------------
      1          8           0        1.180449    1.938907   -0.189088
      2          6           0        0.172948    0.979664   -0.439032
      3          6           0       -1.186648    1.277802    0.252331
      4          6           0       -1.816341   -0.084048    0.454080
      5          8           0       -1.786519   -0.910708   -0.718504
      6          6           0       -0.785761   -1.119792    0.295628
      7          6           0        0.521382   -0.464011   -0.015707
      8          6           0        1.686683   -1.204155   -0.605713
      9          6           0        1.732745   -0.765173    0.836067
     10          1           0        1.277132    2.022467    0.765957
     11          1           0        0.035308    0.999562   -1.522898
     12          1           0       -1.013655    1.742178    1.233114
     13          1           0       -1.806237    1.963448   -0.332003
     14          1           0       -2.687603   -0.209387    1.092164
     15          1           0       -0.822322   -2.083897    0.797711
     16          1           0        1.569879   -2.260551   -0.823164
     17          1           0        2.310699   -0.663305   -1.309979
     18          1           0        1.641113   -1.516590    1.613836
     19          1           0        2.394206    0.058764    1.080067
 ---------------------------------------------------------------------

 SCF Done:  E(RB3LYP) =  -423.161709283     A.U. after    1 cycles

 The electronic state is 1-A.
 Alpha  occ. eigenvalues --  -19.14653 -19.14236 -10.23533 -10.23499 -10.23492
 Alpha  occ. eigenvalues --  -10.19740 -10.19134 -10.18834 -10.18655  -1.06881
 Alpha  occ. eigenvalues --   -1.02452  -0.86483  -0.77934  -0.68043  -0.66605
 Alpha  occ. eigenvalues --   -0.60414  -0.58644  -0.56019  -0.52099  -0.49342
 Alpha  occ. eigenvalues --   -0.46778  -0.45942  -0.44986  -0.40990  -0.40025
 Alpha  occ. eigenvalues --   -0.37869  -0.37597  -0.36284  -0.33951  -0.31694
 Alpha  occ. eigenvalues --   -0.30133  -0.27178  -0.26564  -0.26015
 Alpha virt. eigenvalues --    0.07108   0.09708   0.10004   0.10610   0.11366
 Alpha virt. eigenvalues --    0.11938   0.12850   0.15249   0.15912   0.17168
 Alpha virt. eigenvalues --    0.18971   0.19132   0.20955   0.21165   0.22140

 Mulliken charges:
               1
     1  O   -0.430628
     2  C    0.043242
     3  C   -0.284506
     4  C    0.037720
     5  O   -0.266667
     6  C   -0.038787
     7  C    0.330949
     8  C   -0.313682
     9  C   -0.327801
    10  H    0.277404
    11  H    0.112767
    12  H    0.093619
    13  H    0.117639
    14  H    0.094699
    15  H    0.092623
    16  H    0.114937
    17  H    0.124115
    18  H    0.111632
    19  H    0.110724
 Sum of Mulliken charges =   0.00000

 Dipole moment (field-independent basis, Debye):
    X=              0.2103    Y=             -0.0484    Z=              2.4691  Tot=              2.4785
 Quadrupole moment (field-independent basis, Debye-Ang):
   XX=            -55.1744   YY=            -53.4575   ZZ=            -51.9706
   XY=             -3.2388   XZ=             -1.4818   YZ=              0.8715

  Exact polarizability:  81.874  -5.040  75.951  -0.821   0.673  65.455
 Approx polarizability: 112.759  -4.673 107.783   3.128   3.161 106.142

                      1                      2                      3
                      A                      A                      A
 Frequencies --     88.6774               198.8516               244.3851
 Red. masses --      3.3695                 3.3693                 2.9361
 Frc consts  --      0.0156                 0.0785                 0.1033
 IR Inten    --      0.9157                 1.3121                 2.5124

                      4                      5                      6
                      A                      A                      A
 Frequencies --    261.3590               329.5710               356.5586
 Red. masses --      2.7723                 1.7472                 1.7457
 Frc consts  --      0.1116                 0.1118                 0.1308
 IR Inten    --      2.3840                22.8637                51.5014

                      7                      8                      9
                      A                      A                      A
 Frequencies --    400.8052               446.5624               523.8086
 Red. masses --      2.5774                 3.7541                 4.0828
 Frc consts  --      0.2440                 0.4411                 0.6600
 IR Inten    --     40.6424                 6.9067                 6.2577

                     10                     11                     12
                      A                      A                      A
 Frequencies --    585.3752               671.2258               736.2990
 Red. masses --      3.0073                 4.6781                 3.7135
 Frc consts  --      0.6072                 1.2418                 1.1861
 IR Inten    --      1.9589                11.7373                 5.6742

                     13                     14                     15
                      A                      A                      A
 Frequencies --    785.5077               821.3122               861.8855
 Red. masses --      1.0564                 3.9994                 1.9188
 Frc consts  --      0.3841                 1.5895                 0.8398
 IR Inten    --      0.2821                 9.3430                13.9370

                     16                     17                     18
                      A                      A                      A
 Frequencies --    873.8194               923.3650               939.3310
 Red. masses --      2.2266                 3.3676                 1.7415
 Frc consts  --      1.0017                 1.6917                 0.9053
 IR Inten    --     11.6704                15.2136                 2.0368

                     19                     20                     21
                      A                      A                      A
 Frequencies --    968.3260               974.3932              1008.8313
 Red. masses --      1.8881                 2.2615                 1.6706
 Frc consts  --      1.0431                 1.2651                 1.0017
 IR Inten    --     10.0145                 9.3231                12.1205

                     22                     23                     24
                      A                      A                      A
 Frequencies --   1038.9489              1053.7036              1062.4574
 Red. masses --      2.4113                 1.9404                 1.4882
 Frc consts  --      1.5335                 1.2693                 0.9898
 IR Inten    --     12.4648                15.7326                 2.9543

                     25                     26                     27
                      A                      A                      A
 Frequencies --   1086.9384              1103.7559              1114.5438
 Red. masses --      1.3916                 1.2534                 3.5845
 Frc consts  --      0.9687                 0.8997                 2.6235
 IR Inten    --      0.5883                 8.9104                71.8985

                     28                     29                     30
                      A                      A                      A
 Frequencies --   1179.8044              1193.9379              1250.6040
 Red. masses --      1.3553                 1.2705                 1.3800
 Frc consts  --      1.1115                 1.0671                 1.2717
 IR Inten    --      2.1806                 0.0895                 3.8259

                     31                     32                     33
                      A                      A                      A
 Frequencies --   1269.4132              1283.5222              1292.2854
 Red. masses --      1.5484                 1.5804                 2.3477
 Frc consts  --      1.4701                 1.5340                 2.3100
 IR Inten    --     21.9109                 0.5646                15.3064

                     34                     35                     36
                      A                      A                      A
 Frequencies --   1324.2250              1334.0946              1378.5361
 Red. masses --      1.2984                 1.8575                 2.0447
 Frc consts  --      1.3415                 1.9478                 2.2894
 IR Inten    --      1.5216                 2.6338                15.0679

                     37                     38                     39
                      A                      A                      A
 Frequencies --   1429.6568              1441.8885              1456.1657
 Red. masses --      1.2763                 2.4684                 1.1151
 Frc consts  --      1.5370                 3.0236                 1.3931
 IR Inten    --     51.0720                12.6261                 1.1833

                     40                     41                     42
                      A                      A                      A
 Frequencies --   1475.9221              1499.5967              3021.4865
 Red. masses --      1.0994                 1.5360                 1.0675
 Frc consts  --      1.4110                 2.0351                 5.7421
 IR Inten    --      2.3379                 1.5210                24.8283

                     43                     44                     45
                      A                      A                      A
 Frequencies --   3078.9694              3097.8418              3127.3541
 Red. masses --      1.0861                 1.0947                 1.0500
 Frc consts  --      6.0665                 6.1899                 6.0506
 IR Inten    --      6.8269                30.1404                17.0941

                     46                     47                     48
                      A                      A                      A
 Frequencies --   3129.2098              3136.5369              3149.1937
 Red. masses --      1.0585                 1.0865                 1.0952
 Frc consts  --      6.1067                 6.2977                 6.3992
 IR Inten    --      9.0284                19.1159                37.6303

                     49                     50                     51
                      A                      A                      A
 Frequencies --   3207.3174              3220.9917              3800.5992
 Red. masses --      1.1176                 1.1158                 1.0657
 Frc consts  --      6.7739                 6.8203                 9.0696
 IR Inten    --      0.1103                12.8194                11.3360

 - Thermochemistry -
 -------------------
 Temperature   298.150 Kelvin.  Pressure   1.00000 Atm.
 Atom     1 has atomic number  8 and mass  15.99491

 Molecular mass:   126.06808 amu.
 Principal axes and moments of inertia in atomic units:
                           1         2         3
     Eigenvalues --   753.428801010.222881472.45052
           X            0.99402  -0.10861  -0.01159
           Y            0.10862   0.99408   0.00054
           Z            0.01146  -0.00180   0.99993
 This molecule is an asymmetric top.
 Rotational symmetry number  1.
 Warning -- assumption of classical behavior for rotation
           may cause significant error
 Rotational temperatures (Kelvin)      0.11496     0.08574     0.05882
 Rotational constants (GHZ):           2.39537     1.78648     1.22567
 Zero-point vibrational energy     420127.0 (Joules/Mol)
                                  100.41276 (Kcal/Mol)
 Warning -- explicit consideration of  10 degrees of freedom as
           vibrations may cause significant error
 Vibrational temperatures:    127.59   286.10   351.62   376.04   474.18
          (Kelvin)            513.01   576.67   642.50   753.64   842.22
                              965.74  1059.37  1130.17  1181.68  1240.06
                             1257.23  1328.51  1351.49  1393.20  1401.93
                             1451.48  1494.81  1516.04  1528.64  1563.86
                             1588.06  1603.58  1697.47  1717.81  1799.34
                             1826.40  1846.70  1859.31  1905.26  1919.46
                             1983.40  2056.95  2074.55  2095.10  2123.52
                             2157.58  4347.24  4429.94  4457.10  4499.56
                             4502.23  4512.77  4530.98  4614.61  4634.28
                             5468.21

 Zero-point correction=                           0.160018 (Hartree/Particle)
 Thermal correction to Energy=                    0.167846
 Thermal correction to Enthalpy=                  0.168790
 Thermal correction to Gibbs Free Energy=         0.127901
 Sum of electronic and zero-point Energies=           -423.001691
 Sum of electronic and thermal Energies=              -422.993864
 Sum of electronic and thermal Enthalpies=            -422.992920
 Sum of electronic and thermal Free Energies=         -423.033808

                     E (Thermal)             CV                S
                      KCal/Mol        Cal/Mol-Kelvin    Cal/Mol-Kelvin
 Total                  105.325             31.380             86.057
 Electronic               0.000              0.000              0.000
 Translational            0.889              2.981             40.409
 Rotational               0.889              2.981             28.507
 Vibrational            103.547             25.419             17.141
 Vibration     1          0.601              1.957              3.689
 Vibration     2          0.637              1.841              2.144
 Vibration     3          0.660              1.772              1.771
 Vibration     4          0.669              1.743              1.653
 Vibration     5          0.712              1.616              1.262
 Vibration     6          0.732              1.562              1.137
 Vibration     7          0.767              1.468              0.960
 Vibration     8          0.806              1.368              0.806
 Vibration     9          0.879              1.197              0.601
 Vibration    10          0.942              1.063              0.476

 Optimization completed.
    -- Stationary point found.
 Normal termination of Gaussian 09 at Tue Jan 28 03:54:06 2020.
