 Gaussian 09, Revision D.01,
 Gaussian 09:  ES64L-G09RevD.01 24-Apr-2013

 -----------------------------
 # b3lyp 6-31G(2df,p) opt Freq
 -----------------------------

 -----
 titel
 -----
 Symbolic Z-matrix:
 Charge =  0 Multiplicity = 1

 SCF Done:  E(RB3LYP) =  -423.188616396     A.U. after   14 cycles
 Optimization completed.
    -- Stationary point found.
 Normal termination of Gaussian 09 at Tue Jan 28 03:04:24 2020.

 ----------------------------------------------------------------------
 #N Geom=AllCheck Guess=TCheck SCRF=Check GenChk RB3LYP/6-31G(2df,p) Fr
 eq
 ----------------------------------------------------------------------

 Structure from the checkpoint file:  "/scratch/puck/g09_7cece660-d29a-4280-b10a-3486c4f22b3c/Gau-114362.chk"
 -----
 titel
 -----
 Charge =  0 Multiplicity = 1

                         Standard orientation:
 ---------------------------------------------------------------------
 Center     Atomic      Atomic             Coordinates (Angstroms)
 Number     Number       Type             X           Y           Z
 ---------------------------------------------------------------------
      1          8           0        0.559862    1.913342    0.306958
      2          6           0       -0.061382    0.942178   -0.506021
      3          6           0       -1.604749    0.957531   -0.303035
      4          6           0       -1.806765   -0.481241    0.214415
      5          6           0       -0.644317   -0.624765    1.236903
      6          6           0        0.230280   -0.511409   -0.061603
      7          6           0       -0.914716   -1.305376   -0.761024
      8          6           0        1.654873   -0.942432   -0.048734
      9          8           0        2.590515   -0.173017   -0.097079
     10          1           0        1.508539    1.735119    0.250529
     11          1           0        0.219394    1.080911   -1.560052
     12          1           0       -1.877198    1.718418    0.432223
     13          1           0       -2.152309    1.153391   -1.228714
     14          1           0       -2.822814   -0.790742    0.458864
     15          1           0       -0.499206    0.158722    1.982586
     16          1           0       -0.593433   -1.617150    1.690647
     17          1           0       -1.046251   -1.157536   -1.837422
     18          1           0       -0.892379   -2.372359   -0.525499
     19          1           0        1.833285   -2.038293    0.032401
 ---------------------------------------------------------------------

 SCF Done:  E(RB3LYP) =  -423.188616396     A.U. after    1 cycles

 The electronic state is 1-A.
 Alpha  occ. eigenvalues --  -19.15166 -19.12730 -10.27854 -10.23288 -10.20552
 Alpha  occ. eigenvalues --  -10.20294 -10.19960 -10.19757 -10.18243  -1.05625
 Alpha  occ. eigenvalues --   -1.01331  -0.89698  -0.73401  -0.70934  -0.67391
 Alpha  occ. eigenvalues --   -0.62223  -0.56182  -0.54696  -0.51950  -0.49781
 Alpha  occ. eigenvalues --   -0.48112  -0.44978  -0.42405  -0.41584  -0.38939
 Alpha  occ. eigenvalues --   -0.38126  -0.37857  -0.37066  -0.33798  -0.32512
 Alpha  occ. eigenvalues --   -0.32055  -0.30413  -0.26549  -0.25470
 Alpha virt. eigenvalues --   -0.03834   0.08927   0.10180   0.11043   0.12446
 Alpha virt. eigenvalues --    0.13912   0.14572   0.15440   0.16113   0.16591
 Alpha virt. eigenvalues --    0.17066   0.18144   0.19970   0.21085   0.21574

 Mulliken charges:
               1
     1  O   -0.451673
     2  C    0.106566
     3  C   -0.238530
     4  C   -0.023595
     5  C   -0.260453
     6  C    0.229406
     7  C   -0.285255
     8  C    0.037263
     9  O   -0.267757
    10  H    0.291625
    11  H    0.068752
    12  H    0.116994
    13  H    0.098924
    14  H    0.067829
    15  H    0.122038
    16  H    0.101043
    17  H    0.100385
    18  H    0.103746
    19  H    0.082691
 Sum of Mulliken charges =   0.00000

 Dipole moment (field-independent basis, Debye):
    X=             -1.7878    Y=             -2.2264    Z=             -0.3778  Tot=              2.8803
 Quadrupole moment (field-independent basis, Debye-Ang):
   XX=            -57.5805   YY=            -54.2855   ZZ=            -51.9943
   XY=             -0.4689   XZ=              0.3820   YZ=             -1.2261

  Exact polarizability:  83.756   0.925  76.945   0.162  -0.563  65.633
 Approx polarizability: 122.470   7.401 113.771  -1.076   0.842 101.649

                      1                      2                      3
                      A                      A                      A
 Frequencies --     92.0361               171.0339               194.2022
 Red. masses --      4.3234                 3.0155                 6.4353
 Frc consts  --      0.0216                 0.0520                 0.1430
 IR Inten    --      4.0504                 2.3359                 7.4743

                      4                      5                      6
                      A                      A                      A
 Frequencies --    287.7830               346.8399               432.4908
 Red. masses --      2.3749                 2.9885                 2.7612
 Frc consts  --      0.1159                 0.2118                 0.3043
 IR Inten    --      1.2564                 4.2969                 5.3297

                      7                      8                      9
                      A                      A                      A
 Frequencies --    437.4747               477.3906               529.1063
 Red. masses --      3.2397                 2.2107                 1.4129
 Frc consts  --      0.3653                 0.2968                 0.2330
 IR Inten    --      2.5613                 5.1949                52.1109

                     10                     11                     12
                      A                      A                      A
 Frequencies --    559.0937               638.6262               759.3620
 Red. masses --      1.8258                 3.4362                 3.6445
 Frc consts  --      0.3363                 0.8257                 1.2382
 IR Inten    --     70.0321                 6.7615                11.5050

                     13                     14                     15
                      A                      A                      A
 Frequencies --    819.6472               838.7770               861.2447
 Red. masses --      4.0745                 2.2714                 2.2581
 Frc consts  --      1.6128                 0.9415                 0.9868
 IR Inten    --      8.4193                 4.3777                 0.2517

                     16                     17                     18
                      A                      A                      A
 Frequencies --    889.7773               923.4033               951.0137
 Red. masses --      2.5118                 2.2756                 1.6393
 Frc consts  --      1.1717                 1.1432                 0.8735
 IR Inten    --      0.3045                11.2172                 4.5137

                     19                     20                     21
                      A                      A                      A
 Frequencies --    964.5764              1003.8550              1015.5833
 Red. masses --      1.8637                 2.1609                 1.5858
 Frc consts  --      1.0216                 1.2830                 0.9637
 IR Inten    --      2.5650                12.4702                 7.2755

                     22                     23                     24
                      A                      A                      A
 Frequencies --   1050.5276              1069.0001              1099.9128
 Red. masses --      1.4157                 1.6205                 1.5947
 Frc consts  --      0.9205                 1.0911                 1.1367
 IR Inten    --     24.3455                 8.9381                 6.6220

                     25                     26                     27
                      A                      A                      A
 Frequencies --   1123.5017              1147.2279              1171.3257
 Red. masses --      1.5247                 2.5063                 1.9358
 Frc consts  --      1.1339                 1.9435                 1.5648
 IR Inten    --     14.2034                 7.4583                 8.0391

                     28                     29                     30
                      A                      A                      A
 Frequencies --   1203.2138              1235.2592              1251.2088
 Red. masses --      1.4087                 1.6068                 1.3925
 Frc consts  --      1.2016                 1.4445                 1.2844
 IR Inten    --      0.6038                 3.5731                27.4769

                     31                     32                     33
                      A                      A                      A
 Frequencies --   1262.3843              1287.7781              1299.7821
 Red. masses --      1.4742                 2.0366                 1.7662
 Frc consts  --      1.3842                 1.9900                 1.7580
 IR Inten    --      6.8368                 9.6263                43.4762

                     34                     35                     36
                      A                      A                      A
 Frequencies --   1317.7469              1370.5712              1416.9452
 Red. masses --      1.5366                 1.4859                 1.2691
 Frc consts  --      1.5721                 1.6445                 1.5013
 IR Inten    --      1.3598                46.0419                 6.9458

                     37                     38                     39
                      A                      A                      A
 Frequencies --   1435.1843              1480.3402              1488.8267
 Red. masses --      1.4224                 1.0909                 1.0971
 Frc consts  --      1.7261                 1.4085                 1.4328
 IR Inten    --     25.1370                 2.1827                 3.6378

                     40                     41                     42
                      A                      A                      A
 Frequencies --   1519.0182              1788.7869              2880.2047
 Red. masses --      1.1283                10.4107                 1.0832
 Frc consts  --      1.5340                19.6268                 5.2945
 IR Inten    --      2.3671               170.3951               114.9518

                     43                     44                     45
                      A                      A                      A
 Frequencies --   2992.3837              3049.6651              3064.3655
 Red. masses --      1.0846                 1.0570                 1.0597
 Frc consts  --      5.7223                 5.7923                 5.8630
 IR Inten    --     46.0907                39.5308                34.8755

                     46                     47                     48
                      A                      A                      A
 Frequencies --   3070.5511              3111.8939              3115.8927
 Red. masses --      1.0561                 1.1061                 1.1016
 Frc consts  --      5.8669                 6.3108                 6.3014
 IR Inten    --     13.6033                22.1456                29.1204

                     49                     50                     51
                      A                      A                      A
 Frequencies --   3117.3563              3137.9886              3757.1411
 Red. masses --      1.0965                 1.1103                 1.0652
 Frc consts  --      6.2781                 6.4415                 8.8592
 IR Inten    --     46.8957                19.0369                60.7084

 - Thermochemistry -
 -------------------
 Temperature   298.150 Kelvin.  Pressure   1.00000 Atm.
 Atom     1 has atomic number  8 and mass  15.99491

 Molecular mass:   126.06808 amu.
 Principal axes and moments of inertia in atomic units:
                           1         2         3
     Eigenvalues --   686.053171078.049991430.53675
           X            0.99999  -0.00024   0.00498
           Y            0.00031   0.99990  -0.01400
           Z           -0.00498   0.01400   0.99989
 This molecule is an asymmetric top.
 Rotational symmetry number  1.
 Warning -- assumption of classical behavior for rotation
           may cause significant error
 Rotational temperatures (Kelvin)      0.12625     0.08034     0.06055
 Rotational constants (GHZ):           2.63061     1.67408     1.26158
 Zero-point vibrational energy     421739.3 (Joules/Mol)
                                  100.79811 (Kcal/Mol)
 Warning -- explicit consideration of  10 degrees of freedom as
           vibrations may cause significant error
 Vibrational temperatures:    132.42   246.08   279.41   414.06   499.02
          (Kelvin)            622.26   629.43   686.86   761.26   804.41
                              918.84  1092.55  1179.29  1206.81  1239.14
                             1280.19  1328.57  1368.29  1387.81  1444.32
                             1461.20  1511.47  1538.05  1582.53  1616.47
                             1650.60  1685.27  1731.15  1777.26  1800.21
                             1816.29  1852.82  1870.09  1895.94  1971.94
                             2038.67  2064.91  2129.88  2142.09  2185.53
                             2573.66  4143.97  4305.37  4387.78  4408.93
                             4417.83  4477.32  4483.07  4485.17  4514.86
                             5405.68

 Zero-point correction=                           0.160632 (Hartree/Particle)
 Thermal correction to Energy=                    0.168347
 Thermal correction to Enthalpy=                  0.169291
 Thermal correction to Gibbs Free Energy=         0.128531
 Sum of electronic and zero-point Energies=           -423.027984
 Sum of electronic and thermal Energies=              -423.020269
 Sum of electronic and thermal Enthalpies=            -423.019325
 Sum of electronic and thermal Free Energies=         -423.060085

                     E (Thermal)             CV                S
                      KCal/Mol        Cal/Mol-Kelvin    Cal/Mol-Kelvin
 Total                  105.640             30.692             85.788
 Electronic               0.000              0.000              0.000
 Translational            0.889              2.981             40.409
 Rotational               0.889              2.981             28.450
 Vibrational            103.862             24.730             16.930
 Vibration     1          0.602              1.955              3.616
 Vibration     2          0.626              1.878              2.424
 Vibration     3          0.635              1.848              2.187
 Vibration     4          0.685              1.696              1.487
 Vibration     5          0.725              1.582              1.181
 Vibration     6          0.793              1.399              0.851
 Vibration     7          0.798              1.388              0.835
 Vibration     8          0.834              1.300              0.717
 Vibration     9          0.884              1.186              0.589
 Vibration    10          0.915              1.120              0.526

 Optimization completed.
    -- Stationary point found.
 Normal termination of Gaussian 09 at Tue Jan 28 03:50:58 2020.
