 Gaussian 09, Revision D.01,
 Gaussian 09:  ES64L-G09RevD.01 24-Apr-2013

 -----------------------------
 # b3lyp 6-31G(2df,p) opt Freq
 -----------------------------

 -----
 titel
 -----
 Symbolic Z-matrix:
 Charge =  0 Multiplicity = 1

 SCF Done:  E(RB3LYP) =  -423.132264770     A.U. after   13 cycles
 Optimization completed.
    -- Stationary point found.
 Normal termination of Gaussian 09 at Mon Jan 27 17:26:46 2020.

 ----------------------------------------------------------------------
 #N Geom=AllCheck Guess=TCheck SCRF=Check GenChk RB3LYP/6-31G(2df,p) Fr
 eq
 ----------------------------------------------------------------------

 Structure from the checkpoint file:  "/scratch/puck/g09_c8ce4caa-4672-46a4-a655-97c5a1a0b8c6/Gau-86198.chk"
 -----
 titel
 -----
 Charge =  0 Multiplicity = 1

                         Standard orientation:
 ---------------------------------------------------------------------
 Center     Atomic      Atomic             Coordinates (Angstroms)
 Number     Number       Type             X           Y           Z
 ---------------------------------------------------------------------
      1          6           0       -2.888479    0.598550   -0.181429
      2          6           0       -1.516468    0.071300    0.081149
      3          6           0       -0.438499    0.610690    1.040140
      4          6           0        0.638880    0.062283    0.045117
      5          6           0        1.672281    1.007785   -0.602824
      6          6           0        2.707354   -0.002893   -0.070880
      7          8           0        1.670735   -0.810694    0.524677
      8          6           0       -0.491664   -0.513474   -0.811166
      9          8           0       -1.299386   -1.344957    0.032921
     10          1           0       -3.531997    0.456917    0.694238
     11          1           0       -2.857646    1.670005   -0.404245
     12          1           0       -3.343849    0.075111   -1.026232
     13          1           0       -0.407896    1.699526    1.136368
     14          1           0       -0.440475    0.143038    2.026919
     15          1           0        1.609381    1.093360   -1.689895
     16          1           0        1.722834    2.006918   -0.166628
     17          1           0        3.267195   -0.554563   -0.835292
     18          1           0        3.410596    0.378105    0.678786
     19          1           0       -0.499361   -0.728657   -1.875444
 ---------------------------------------------------------------------

 SCF Done:  E(RB3LYP) =  -423.132264770     A.U. after    1 cycles

 The electronic state is 1-A.
 Alpha  occ. eigenvalues --  -19.14583 -19.13046 -10.24310 -10.24227 -10.23153
 Alpha  occ. eigenvalues --  -10.22824 -10.19269 -10.18842 -10.18369  -1.07585
 Alpha  occ. eigenvalues --   -1.03588  -0.79759  -0.74542  -0.73485  -0.66126
 Alpha  occ. eigenvalues --   -0.63478  -0.55789  -0.53441  -0.49945  -0.49165
 Alpha  occ. eigenvalues --   -0.46182  -0.45125  -0.43963  -0.43238  -0.40344
 Alpha  occ. eigenvalues --   -0.37990  -0.37773  -0.36218  -0.36081  -0.31607
 Alpha  occ. eigenvalues --   -0.30177  -0.29339  -0.26127  -0.23229
 Alpha virt. eigenvalues --    0.07209   0.09371   0.09594   0.11112   0.11307
 Alpha virt. eigenvalues --    0.12541   0.13657   0.14586   0.15577   0.16375
 Alpha virt. eigenvalues --    0.16809   0.17761   0.18935   0.19584   0.20590

 Mulliken charges:
               1
     1  C   -0.502033
     2  C    0.421519
     3  C   -0.381890
     4  C    0.464550
     5  C   -0.361207
     6  C   -0.070826
     7  O   -0.310009
     8  C   -0.120801
     9  O   -0.281155
    10  H    0.133382
    11  H    0.123507
    12  H    0.135229
    13  H    0.101633
    14  H    0.118509
    15  H    0.112009
    16  H    0.113269
    17  H    0.105257
    18  H    0.105161
    19  H    0.093896
 Sum of Mulliken charges =   0.00000

 Dipole moment (field-independent basis, Debye):
    X=              0.1346    Y=              3.0675    Z=             -1.3480  Tot=              3.3533
 Quadrupole moment (field-independent basis, Debye-Ang):
   XX=            -49.3252   YY=            -56.5921   ZZ=            -51.2728
   XY=             -0.3713   XZ=             -1.4204   YZ=              2.0137

  Exact polarizability:  93.691  -1.286  65.647  -2.530   3.555  68.184
 Approx polarizability: 115.338  -0.681 105.370  -5.532   3.368 103.321

                      1                      2                      3
                      A                      A                      A
 Frequencies --     73.6954                93.2757               196.2926
 Red. masses --      2.2089                 3.4233                 1.1339
 Frc consts  --      0.0071                 0.0175                 0.0257
 IR Inten    --      0.9047                 0.1691                 0.1850

                      4                      5                      6
                      A                      A                      A
 Frequencies --    222.0125               285.5650               323.3671
 Red. masses --      3.1069                 2.2705                 3.4012
 Frc consts  --      0.0902                 0.1091                 0.2095
 IR Inten    --      0.1848                 0.2296                 1.0222

                      7                      8                      9
                      A                      A                      A
 Frequencies --    395.7410               422.7208               449.9528
 Red. masses --      2.9720                 2.3106                 3.3439
 Frc consts  --      0.2742                 0.2433                 0.3989
 IR Inten    --      1.3680                 2.9718                 0.9993

                     10                     11                     12
                      A                      A                      A
 Frequencies --    567.2819               676.6267               772.2416
 Red. masses --      5.1884                 3.3854                 2.7066
 Frc consts  --      0.9837                 0.9132                 0.9510
 IR Inten    --     19.4174                 1.4953                 2.5291

                     13                     14                     15
                      A                      A                      A
 Frequencies --    786.5517               844.2165               862.6684
 Red. masses --      1.3997                 2.6696                 3.8018
 Frc consts  --      0.5102                 1.1210                 1.6670
 IR Inten    --      1.5631                17.5918                 8.6056

                     16                     17                     18
                      A                      A                      A
 Frequencies --    883.8781               916.5727               926.1466
 Red. masses --      2.1613                 1.8607                 2.4796
 Frc consts  --      0.9949                 0.9210                 1.2531
 IR Inten    --     12.9773                 1.3542                 6.6535

                     19                     20                     21
                      A                      A                      A
 Frequencies --    971.3830              1001.3789              1005.2277
 Red. masses --      2.6335                 1.5847                 1.9774
 Frc consts  --      1.4641                 0.9363                 1.1772
 IR Inten    --      3.6981                 3.7484                 8.0523

                     22                     23                     24
                      A                      A                      A
 Frequencies --   1026.4627              1050.4999              1128.3027
 Red. masses --      6.6025                 2.0121                 2.4459
 Frc consts  --      4.0987                 1.3083                 1.8346
 IR Inten    --    134.4863                16.1519                43.3061

                     25                     26                     27
                      A                      A                      A
 Frequencies --   1139.4628              1152.7595              1171.3672
 Red. masses --      1.8524                 1.8680                 1.3600
 Frc consts  --      1.4170                 1.4625                 1.0994
 IR Inten    --     16.4304                 4.0120                 2.0282

                     28                     29                     30
                      A                      A                      A
 Frequencies --   1184.6799              1210.8788              1217.6012
 Red. masses --      1.6448                 1.5149                 1.3300
 Frc consts  --      1.3601                 1.3087                 1.1618
 IR Inten    --      1.9238                10.6652                 8.3681

                     31                     32                     33
                      A                      A                      A
 Frequencies --   1255.8132              1260.9721              1316.1724
 Red. masses --      1.4945                 2.5980                 2.5986
 Frc consts  --      1.3887                 2.4339                 2.6522
 IR Inten    --      3.8361                22.7957                21.6178

                     34                     35                     36
                      A                      A                      A
 Frequencies --   1353.1645              1402.1860              1447.2524
 Red. masses --      1.4328                 1.3247                 1.6572
 Frc consts  --      1.5458                 1.5345                 2.0451
 IR Inten    --      3.3537                 3.8363                14.6870

                     37                     38                     39
                      A                      A                      A
 Frequencies --   1470.8461              1483.9509              1487.6796
 Red. masses --      1.4307                 1.1968                 1.1094
 Frc consts  --      1.8237                 1.5527                 1.4467
 IR Inten    --      1.7897                 7.7557                 4.7014

                     40                     41                     42
                      A                      A                      A
 Frequencies --   1495.6228              1532.8197              3021.4945
 Red. masses --      1.1640                 1.1115                 1.0551
 Frc consts  --      1.5341                 1.5387                 5.6752
 IR Inten    --      2.7877                 1.7060                94.6133

                     43                     44                     45
                      A                      A                      A
 Frequencies --   3034.2667              3061.4968              3061.5318
 Red. masses --      1.0363                 1.0878                 1.0807
 Frc consts  --      5.6211                 6.0069                 5.9683
 IR Inten    --     21.7582                 2.1017                50.8923

                     46                     47                     48
                      A                      A                      A
 Frequencies --   3072.3377              3095.9325              3121.1735
 Red. masses --      1.0596                 1.0998                 1.1012
 Frc consts  --      5.8927                 6.2108                 6.3204
 IR Inten    --     23.2138                15.1751                12.5730

                     49                     50                     51
                      A                      A                      A
 Frequencies --   3125.0849              3128.1801              3163.9239
 Red. masses --      1.1079                 1.1083                 1.0939
 Frc consts  --      6.3749                 6.3901                 6.4518
 IR Inten    --     14.3147                19.6148                18.6998

 - Thermochemistry -
 -------------------
 Temperature   298.150 Kelvin.  Pressure   1.00000 Atm.
 Atom     1 has atomic number  6 and mass  12.00000

 Molecular mass:   126.06808 amu.
 Principal axes and moments of inertia in atomic units:
                           1         2         3
     Eigenvalues --   430.442901559.333301669.22977
           X            0.99996  -0.00720  -0.00518
           Y            0.00746   0.99859   0.05256
           Z            0.00480  -0.05260   0.99860
 This molecule is an asymmetric top.
 Rotational symmetry number  1.
 Rotational temperatures (Kelvin)      0.20122     0.05555     0.05189
 Rotational constants (GHZ):           4.19275     1.15738     1.08118
 Zero-point vibrational energy     414809.4 (Joules/Mol)
                                   99.14182 (Kcal/Mol)
 Warning -- explicit consideration of  10 degrees of freedom as
           vibrations may cause significant error
 Vibrational temperatures:    106.03   134.20   282.42   319.43   410.86
          (Kelvin)            465.25   569.38   608.20   647.38   816.19
                              973.51  1111.08  1131.67  1214.64  1241.19
                             1271.70  1318.74  1332.52  1397.60  1440.76
                             1446.30  1476.85  1511.43  1623.37  1639.43
                             1658.56  1685.33  1704.49  1742.18  1751.85
                             1806.83  1814.26  1893.68  1946.90  2017.43
                             2082.27  2116.22  2135.07  2140.44  2151.86
                             2205.38  4347.25  4365.63  4404.81  4404.86
                             4420.40  4454.35  4490.67  4496.29  4500.75
                             4552.18

 Zero-point correction=                           0.157993 (Hartree/Particle)
 Thermal correction to Energy=                    0.166299
 Thermal correction to Enthalpy=                  0.167243
 Thermal correction to Gibbs Free Energy=         0.124891
 Sum of electronic and zero-point Energies=           -422.974272
 Sum of electronic and thermal Energies=              -422.965966
 Sum of electronic and thermal Enthalpies=            -422.965022
 Sum of electronic and thermal Free Energies=         -423.007374

                     E (Thermal)             CV                S
                      KCal/Mol        Cal/Mol-Kelvin    Cal/Mol-Kelvin
 Total                  104.354             31.659             89.136
 Electronic               0.000              0.000              0.000
 Translational            0.889              2.981             40.409
 Rotational               0.889              2.981             28.507
 Vibrational            102.576             25.698             20.221
 Vibration     1          0.599              1.966              4.052
 Vibration     2          0.602              1.954              3.590
 Vibration     3          0.636              1.845              2.168
 Vibration     4          0.648              1.808              1.943
 Vibration     5          0.683              1.700              1.500
 Vibration     6          0.708              1.629              1.293
 Vibration     7          0.762              1.479              0.978
 Vibration     8          0.785              1.421              0.883
 Vibration     9          0.809              1.361              0.796
 Vibration    10          0.923              1.102              0.509

 Normal termination of Gaussian 09 at Mon Jan 27 18:06:10 2020.
