 Gaussian 09, Revision D.01,
 Gaussian 09:  ES64L-G09RevD.01 24-Apr-2013

 -----------------------------
 # b3lyp 6-31G(2df,p) opt Freq
 -----------------------------

 -----
 titel
 -----
 Symbolic Z-matrix:
 Charge =  0 Multiplicity = 1

 SCF Done:  E(RB3LYP) =  -423.153221232     A.U. after   14 cycles
 Optimization completed.
    -- Stationary point found.
 Normal termination of Gaussian 09 at Mon Jan 27 15:40:37 2020.

 ----------------------------------------------------------------------
 #N Geom=AllCheck Guess=TCheck SCRF=Check GenChk RB3LYP/6-31G(2df,p) Fr
 eq
 ----------------------------------------------------------------------

 Structure from the checkpoint file:  "/scratch/puck/g09_f73c7b1c-c3e0-482a-af98-36b59eb7fe1a/Gau-175696.chk"
 -----
 titel
 -----
 Charge =  0 Multiplicity = 1

                         Standard orientation:
 ---------------------------------------------------------------------
 Center     Atomic      Atomic             Coordinates (Angstroms)
 Number     Number       Type             X           Y           Z
 ---------------------------------------------------------------------
      1          8           0       -1.733185    1.765727    0.156609
      2          6           0       -1.232369    0.501840   -0.246502
      3          6           0       -2.209347   -0.538986    0.290622
      4          8           0       -2.298273   -1.657384   -0.142092
      5          6           0        0.159315    0.233518    0.292899
      6          6           0        1.320449    0.705781   -0.552716
      7          6           0        2.638708    0.503297    0.205041
      8          6           0        2.307329   -1.022072    0.333308
      9          6           0        0.996597   -0.784920   -0.427164
     10          1           0       -1.028043    2.410292    0.039885
     11          1           0       -1.217559    0.399302   -1.343487
     12          1           0       -2.826673   -0.173485    1.141123
     13          1           0        0.231359    0.312234    1.378621
     14          1           0        1.169259    1.367545   -1.398934
     15          1           0        3.519031    0.682393   -0.415716
     16          1           0        2.748614    1.068925    1.136088
     17          1           0        3.013848   -1.643266   -0.220672
     18          1           0        2.206558   -1.426200    1.345570
     19          1           0        0.551178   -1.455233   -1.151543
 ---------------------------------------------------------------------

 SCF Done:  E(RB3LYP) =  -423.153221232     A.U. after    1 cycles

 The electronic state is 1-A.
 Alpha  occ. eigenvalues --  -19.14815 -19.14201 -10.26928 -10.24568 -10.20340
 Alpha  occ. eigenvalues --  -10.20244 -10.19864 -10.19274 -10.19092  -1.05111
 Alpha  occ. eigenvalues --   -1.03035  -0.90482  -0.76493  -0.70426  -0.66023
 Alpha  occ. eigenvalues --   -0.59977  -0.57574  -0.54108  -0.52579  -0.49916
 Alpha  occ. eigenvalues --   -0.47301  -0.45884  -0.43718  -0.42999  -0.41541
 Alpha  occ. eigenvalues --   -0.38438  -0.37432  -0.35930  -0.34145  -0.33267
 Alpha  occ. eigenvalues --   -0.29595  -0.28194  -0.26911  -0.24819
 Alpha virt. eigenvalues --   -0.02617   0.07374   0.09509   0.09924   0.10396
 Alpha virt. eigenvalues --    0.11824   0.13712   0.14039   0.14741   0.16120
 Alpha virt. eigenvalues --    0.17413   0.19055   0.19660   0.21704   0.23043

 Mulliken charges:
               1
     1  O   -0.443726
     2  C    0.011513
     3  C    0.157256
     4  O   -0.245152
     5  C   -0.042917
     6  C   -0.076959
     7  C   -0.243220
     8  C   -0.239196
     9  C   -0.044534
    10  H    0.288920
    11  H    0.090537
    12  H    0.091221
    13  H    0.084818
    14  H    0.085826
    15  H    0.109458
    16  H    0.098230
    17  H    0.109743
    18  H    0.101544
    19  H    0.106638
 Sum of Mulliken charges =   0.00000

 Dipole moment (field-independent basis, Debye):
    X=              2.5031    Y=              1.8738    Z=             -0.0363  Tot=              3.1270
 Quadrupole moment (field-independent basis, Debye-Ang):
   XX=            -57.1861   YY=            -55.7886   ZZ=            -51.6667
   XY=             -2.3255   XZ=             -0.9330   YZ=             -1.3613

  Exact polarizability:  88.799   0.908  75.935  -2.583   1.482  64.075
 Approx polarizability: 111.758   2.796 120.053  -4.704   5.989 100.428

                      1                      2                      3
                      A                      A                      A
 Frequencies --     61.3165                70.5688               134.3703
 Red. masses --      4.0200                 3.5992                 2.8289
 Frc consts  --      0.0089                 0.0106                 0.0301
 IR Inten    --     10.9946                 2.1348                 2.2717

                      4                      5                      6
                      A                      A                      A
 Frequencies --    183.0732               236.5469               265.7681
 Red. masses --      3.5031                 2.6482                 1.5204
 Frc consts  --      0.0692                 0.0873                 0.0633
 IR Inten    --      1.2308                30.3331                25.1337

                      7                      8                      9
                      A                      A                      A
 Frequencies --    296.4675               393.4302               421.3876
 Red. masses --      1.4292                 3.8251                 3.7168
 Frc consts  --      0.0740                 0.3488                 0.3889
 IR Inten    --     42.0403                 3.2218                14.9381

                     10                     11                     12
                      A                      A                      A
 Frequencies --    450.9872               581.4891               716.0283
 Red. masses --      3.5781                 4.9638                 3.6963
 Frc consts  --      0.4288                 0.9889                 1.1166
 IR Inten    --      8.2690                10.2489                 1.8189

                     13                     14                     15
                      A                      A                      A
 Frequencies --    778.7260               812.7071               875.3102
 Red. masses --      1.2275                 1.9648                 2.1600
 Frc consts  --      0.4386                 0.7646                 0.9751
 IR Inten    --      1.3263                10.9358                 2.5597

                     16                     17                     18
                      A                      A                      A
 Frequencies --    894.9640               941.7931               960.2168
 Red. masses --      2.0271                 2.6777                 1.8464
 Frc consts  --      0.9566                 1.3994                 1.0030
 IR Inten    --      6.2893                 2.4639                 1.6014

                     19                     20                     21
                      A                      A                      A
 Frequencies --    976.4548              1006.1510              1020.2519
 Red. masses --      1.9586                 1.7798                 2.1218
 Frc consts  --      1.1003                 1.0616                 1.3013
 IR Inten    --     18.7223                26.0495                 8.4833

                     22                     23                     24
                      A                      A                      A
 Frequencies --   1041.3743              1069.3564              1084.6451
 Red. masses --      1.6119                 2.3227                 1.8147
 Frc consts  --      1.0299                 1.5649                 1.2579
 IR Inten    --     21.0339                24.3804                 1.7663

                     25                     26                     27
                      A                      A                      A
 Frequencies --   1109.6019              1123.0596              1145.5436
 Red. masses --      3.1457                 1.6206                 1.5184
 Frc consts  --      2.2820                 1.2043                 1.1739
 IR Inten    --     51.5377                 0.4130                 8.4793

                     28                     29                     30
                      A                      A                      A
 Frequencies --   1187.5250              1224.0844              1238.9203
 Red. masses --      1.8153                 1.1577                 1.4766
 Frc consts  --      1.5083                 1.0221                 1.3354
 IR Inten    --      5.0077                 0.0052                 4.8503

                     31                     32                     33
                      A                      A                      A
 Frequencies --   1246.3380              1260.2186              1280.4862
 Red. masses --      1.2548                 1.3523                 1.3133
 Frc consts  --      1.1484                 1.2654                 1.2687
 IR Inten    --     40.0664                 2.0252                18.2768

                     34                     35                     36
                      A                      A                      A
 Frequencies --   1289.3035              1340.4597              1364.7389
 Red. masses --      1.6900                 1.3393                 1.3515
 Frc consts  --      1.6552                 1.4179                 1.4831
 IR Inten    --      7.3873                 8.3915                33.0904

                     37                     38                     39
                      A                      A                      A
 Frequencies --   1410.9980              1428.7735              1482.3987
 Red. masses --      1.5173                 2.1626                 1.0840
 Frc consts  --      1.7798                 2.6011                 1.4035
 IR Inten    --      3.4888                 8.9995                 0.1756

                     40                     41                     42
                      A                      A                      A
 Frequencies --   1502.5075              1839.6389              2894.3376
 Red. masses --      1.1200                10.7118                 1.0845
 Frc consts  --      1.4897                21.3588                 5.3527
 IR Inten    --      0.4525               123.3208                98.8327

                     43                     44                     45
                      A                      A                      A
 Frequencies --   2978.6191              3046.1696              3054.9963
 Red. masses --      1.0822                 1.0615                 1.0633
 Frc consts  --      5.6572                 5.8033                 5.8470
 IR Inten    --     28.1138                42.5796                55.7977

                     46                     47                     48
                      A                      A                      A
 Frequencies --   3092.2691              3101.0139              3119.1561
 Red. masses --      1.0877                 1.1036                 1.1034
 Frc consts  --      6.1280                 6.2525                 6.3251
 IR Inten    --     18.7279                 1.0798                39.9185

                     49                     50                     51
                      A                      A                      A
 Frequencies --   3165.0542              3196.3654              3822.8451
 Red. masses --      1.0903                 1.0938                 1.0662
 Frc consts  --      6.4352                 6.5841                 9.1802
 IR Inten    --     19.0492                 7.5607                19.8482

 - Thermochemistry -
 -------------------
 Temperature   298.150 Kelvin.  Pressure   1.00000 Atm.
 Atom     1 has atomic number  8 and mass  15.99491

 Molecular mass:   126.06808 amu.
 Principal axes and moments of inertia in atomic units:
                           1         2         3
     Eigenvalues --   604.487151638.463512079.57357
           X            0.99989  -0.01458   0.00109
           Y            0.01459   0.99986  -0.00856
           Z           -0.00096   0.00858   0.99996
 This molecule is an asymmetric top.
 Rotational symmetry number  1.
 Warning -- assumption of classical behavior for rotation
           may cause significant error
 Rotational temperatures (Kelvin)      0.14328     0.05286     0.04165
 Rotational constants (GHZ):           2.98557     1.10148     0.86784
 Zero-point vibrational energy     414020.4 (Joules/Mol)
                                   98.95325 (Kcal/Mol)
 Warning -- explicit consideration of  11 degrees of freedom as
           vibrations may cause significant error
 Vibrational temperatures:     88.22   101.53   193.33   263.40   340.34
          (Kelvin)            382.38   426.55   566.06   606.28   648.87
                              836.63  1030.20  1120.41  1169.30  1259.37
                             1287.65  1355.03  1381.54  1404.90  1447.63
                             1467.91  1498.30  1538.56  1560.56  1596.47
                             1615.83  1648.18  1708.58  1761.18  1782.53
                             1793.20  1813.17  1842.33  1855.02  1928.62
                             1963.55  2030.11  2055.68  2132.84  2161.77
                             2646.83  4164.30  4285.56  4382.75  4395.45
                             4449.08  4461.66  4487.76  4553.80  4598.85
                             5500.21

 Zero-point correction=                           0.157692 (Hartree/Particle)
 Thermal correction to Energy=                    0.166695
 Thermal correction to Enthalpy=                  0.167639
 Thermal correction to Gibbs Free Energy=         0.123198
 Sum of electronic and zero-point Energies=           -422.995529
 Sum of electronic and thermal Energies=              -422.986526
 Sum of electronic and thermal Enthalpies=            -422.985582
 Sum of electronic and thermal Free Energies=         -423.030023

                     E (Thermal)             CV                S
                      KCal/Mol        Cal/Mol-Kelvin    Cal/Mol-Kelvin
 Total                  104.603             32.953             93.534
 Electronic               0.000              0.000              0.000
 Translational            0.889              2.981             40.409
 Rotational               0.889              2.981             29.112
 Vibrational            102.825             26.991             24.014
 Vibration     1          0.597              1.973              4.414
 Vibration     2          0.598              1.968              4.137
 Vibration     3          0.613              1.919              2.883
 Vibration     4          0.631              1.863              2.297
 Vibration     5          0.655              1.785              1.829
 Vibration     6          0.672              1.736              1.624
 Vibration     7          0.690              1.680              1.437
 Vibration     8          0.761              1.484              0.987
 Vibration     9          0.784              1.424              0.887
 Vibration    10          0.810              1.359              0.793
 Vibration    11          0.938              1.071              0.483

 Optimization completed.
    -- Stationary point found.
 Normal termination of Gaussian 09 at Mon Jan 27 16:20:31 2020.
