 Gaussian 09, Revision D.01,
 Gaussian 09:  ES64L-G09RevD.01 24-Apr-2013

 -----------------------------
 # b3lyp 6-31G(2df,p) opt Freq
 -----------------------------

 -----
 titel
 -----
 Symbolic Z-matrix:
 Charge =  0 Multiplicity = 1

 SCF Done:  E(RB3LYP) =  -423.167974844     A.U. after   14 cycles
 SCF Done:  E(RB3LYP) =  -423.167974107     A.U. after    8 cycles
 SCF Done:  E(RB3LYP) =  -423.167974883     A.U. after    8 cycles
 Optimization completed.
    -- Stationary point found.
 Normal termination of Gaussian 09 at Tue Jan 28 08:27:28 2020.

 ----------------------------------------------------------------------
 #N Geom=AllCheck Guess=TCheck SCRF=Check GenChk RB3LYP/6-31G(2df,p) Fr
 eq
 ----------------------------------------------------------------------

 Structure from the checkpoint file:  "/scratch/puck/g09_a51bf302-6677-4e49-ab05-6b1af8ea6741/Gau-14787.chk"
 -----
 titel
 -----
 Charge =  0 Multiplicity = 1

                         Standard orientation:
 ---------------------------------------------------------------------
 Center     Atomic      Atomic             Coordinates (Angstroms)
 Number     Number       Type             X           Y           Z
 ---------------------------------------------------------------------
      1          6           0       -3.543702   -0.349635   -0.308104
      2          6           0       -2.190683   -0.919714    0.123576
      3          6           0       -1.029410    0.031590   -0.163243
      4          8           0       -1.245779    1.215944    0.584084
      5          6           0        0.324039   -0.602207    0.196524
      6          6           0        1.505888    0.305320   -0.089904
      7          8           0        1.393192    1.489873   -0.347244
      8          6           0        2.812323   -0.324618   -0.033844
      9          6           0        3.883405   -0.871399    0.018879
     10          1           0       -4.357513   -1.037160   -0.059012
     11          1           0       -3.731584    0.604647    0.189147
     12          1           0       -3.571575   -0.176497   -1.389827
     13          1           0       -2.200993   -1.131033    1.200442
     14          1           0       -2.000151   -1.872175   -0.386428
     15          1           0       -1.019520    0.260199   -1.243007
     16          1           0       -0.535429    1.820377    0.331767
     17          1           0        0.350258   -0.841819    1.269354
     18          1           0        0.478040   -1.551329   -0.331682
     19          1           0        4.837995   -1.337781    0.061218
 ---------------------------------------------------------------------

 SCF Done:  E(RB3LYP) =  -423.167974883     A.U. after    1 cycles

 The electronic state is 1-A.
 Alpha  occ. eigenvalues --  -19.15640 -19.12190 -10.30589 -10.23343 -10.21721
 Alpha  occ. eigenvalues --  -10.20929 -10.20098 -10.17986 -10.16709  -1.06564
 Alpha  occ. eigenvalues --   -1.00803  -0.80396  -0.78076  -0.74818  -0.67165
 Alpha  occ. eigenvalues --   -0.62379  -0.57430  -0.54397  -0.51617  -0.49705
 Alpha  occ. eigenvalues --   -0.46276  -0.45295  -0.43868  -0.41668  -0.39942
 Alpha  occ. eigenvalues --   -0.38133  -0.35701  -0.34863  -0.33849  -0.32493
 Alpha  occ. eigenvalues --   -0.30740  -0.30188  -0.27498  -0.26010
 Alpha virt. eigenvalues --   -0.06937   0.02494   0.08323   0.08974   0.10214
 Alpha virt. eigenvalues --    0.11765   0.13019   0.14199   0.15906   0.16193
 Alpha virt. eigenvalues --    0.17893   0.18525   0.20593   0.21340   0.23441

 Mulliken charges:
               1
     1  C   -0.386215
     2  C   -0.173676
     3  C    0.133242
     4  O   -0.443230
     5  C   -0.324615
     6  C    0.225458
     7  O   -0.311200
     8  C    0.250176
     9  C   -0.373551
    10  H    0.107624
    11  H    0.140644
    12  H    0.109918
    13  H    0.101569
    14  H    0.089013
    15  H    0.069703
    16  H    0.295323
    17  H    0.144560
    18  H    0.126331
    19  H    0.218927
 Sum of Mulliken charges =   0.00000

 Dipole moment (field-independent basis, Debye):
    X=              1.7005    Y=             -2.9050    Z=             -0.2280  Tot=              3.3739
 Quadrupole moment (field-independent basis, Debye-Ang):
   XX=            -46.7516   YY=            -54.8564   ZZ=            -53.9010
   XY=             -4.2038   XZ=              2.1999   YZ=             -0.0678

  Exact polarizability: 110.876 -10.569  73.180   1.063  -1.905  56.804
 Approx polarizability: 141.538 -25.653 123.832   1.041  -4.776  88.811

                      1                      2                      3
                      A                      A                      A
 Frequencies --     43.9864                85.2130               110.9269
 Red. masses --      3.7310                 4.3765                 3.9362
 Frc consts  --      0.0043                 0.0187                 0.0285
 IR Inten    --      0.5250                 1.0694                 1.6499

                      4                      5                      6
                      A                      A                      A
 Frequencies --    123.0659               190.7951               229.1649
 Red. masses --      1.7895                 3.6780                 1.2584
 Frc consts  --      0.0160                 0.0789                 0.0389
 IR Inten    --      1.5668                 3.8530                 1.5240

                      7                      8                      9
                      A                      A                      A
 Frequencies --    240.9973               284.7671               337.0426
 Red. masses --      4.1978                 4.3837                 3.7525
 Frc consts  --      0.1436                 0.2094                 0.2512
 IR Inten    --      2.5318                 4.9029                 3.3871

                     10                     11                     12
                      A                      A                      A
 Frequencies --    380.3749               454.8195               525.3206
 Red. masses --      5.5954                 2.0130                 2.4628
 Frc consts  --      0.4770                 0.2453                 0.4004
 IR Inten    --      4.5702                 4.9559                 4.8670

                     13                     14                     15
                      A                      A                      A
 Frequencies --    562.4355               612.9812               622.6681
 Red. masses --      1.0717                 4.5661                 5.3210
 Frc consts  --      0.1997                 1.0109                 1.2155
 IR Inten    --    128.3802                17.6752                 1.5997

                     16                     17                     18
                      A                      A                      A
 Frequencies --    647.5093               713.1805               783.3536
 Red. masses --      1.2490                 1.2644                 1.3220
 Frc consts  --      0.3085                 0.3789                 0.4780
 IR Inten    --     42.5023                29.8452                 2.9830

                     19                     20                     21
                      A                      A                      A
 Frequencies --    821.1728               879.5722               921.5805
 Red. masses --      3.8334                 3.4372                 1.7591
 Frc consts  --      1.5230                 1.5667                 0.8803
 IR Inten    --      5.5016                 1.3905                 8.3742

                     22                     23                     24
                      A                      A                      A
 Frequencies --    997.4704              1024.7202              1066.0297
 Red. masses --      1.9270                 2.5543                 2.5017
 Frc consts  --      1.1296                 1.5803                 1.6750
 IR Inten    --     27.4227                 3.3841                39.1208

                     25                     26                     27
                      A                      A                      A
 Frequencies --   1098.4087              1112.3138              1160.3003
 Red. masses --      2.5179                 1.7651                 2.8006
 Frc consts  --      1.7898                 1.2867                 2.2215
 IR Inten    --     74.2951                73.5569                74.7005

                     28                     29                     30
                      A                      A                      A
 Frequencies --   1212.8348              1274.3525              1312.2390
 Red. masses --      1.2958                 1.2170                 1.3684
 Frc consts  --      1.1230                 1.1645                 1.3883
 IR Inten    --      2.2629                28.5648                 8.5838

                     31                     32                     33
                      A                      A                      A
 Frequencies --   1341.9135              1366.8593              1391.5227
 Red. masses --      1.2781                 1.5309                 1.2739
 Frc consts  --      1.3560                 1.6851                 1.4533
 IR Inten    --     40.7355                46.3482                 9.2358

                     34                     35                     36
                      A                      A                      A
 Frequencies --   1409.1687              1424.5149              1451.3815
 Red. masses --      1.2765                 1.1118                 1.5469
 Frc consts  --      1.4935                 1.3292                 1.9199
 IR Inten    --      1.1863                19.3155                56.7548

                     37                     38                     39
                      A                      A                      A
 Frequencies --   1476.7271              1496.3819              1510.2140
 Red. masses --      1.0809                 1.0411                 1.0628
 Frc consts  --      1.3888                 1.3734                 1.4281
 IR Inten    --      1.4343                 4.6641                 4.8012

                     40                     41                     42
                      A                      A                      A
 Frequencies --   1746.1185              2212.5086              2953.5210
 Red. masses --     11.2068                 5.9120                 1.0816
 Frc consts  --     20.1316                17.0511                 5.5591
 IR Inten    --    151.5410                72.9261                39.5715

                     43                     44                     45
                      A                      A                      A
 Frequencies --   3018.9249              3025.0554              3037.6274
 Red. masses --      1.0611                 1.0602                 1.0392
 Frc consts  --      5.6980                 5.7162                 5.6497
 IR Inten    --      2.3663                31.2977                28.5182

                     46                     47                     48
                      A                      A                      A
 Frequencies --   3059.5748              3067.2649              3101.5583
 Red. masses --      1.0993                 1.0980                 1.1004
 Frc consts  --      6.0631                 6.0865                 6.2369
 IR Inten    --      7.1454                25.7771                40.4802

                     49                     50                     51
                      A                      A                      A
 Frequencies --   3130.8405              3493.5920              3762.6109
 Red. masses --      1.1004                 1.1622                 1.0651
 Frc consts  --      6.3551                 8.3572                 8.8844
 IR Inten    --     19.1935                57.4603               104.7253

 - Thermochemistry -
 -------------------
 Temperature   298.150 Kelvin.  Pressure   1.00000 Atm.
 Atom     1 has atomic number  6 and mass  12.00000

 Molecular mass:   126.06808 amu.
 Principal axes and moments of inertia in atomic units:
                           1         2         3
     Eigenvalues --   420.106852417.474392719.24757
           X            0.99998   0.00159   0.00669
           Y           -0.00154   0.99998  -0.00643
           Z           -0.00670   0.00642   0.99996
 This molecule is an asymmetric top.
 Rotational symmetry number  1.
 Rotational temperatures (Kelvin)      0.20617     0.03583     0.03185
 Rotational constants (GHZ):           4.29591     0.74654     0.66369
 Zero-point vibrational energy     408569.4 (Joules/Mol)
                                   97.65044 (Kcal/Mol)
 Warning -- explicit consideration of  14 degrees of freedom as
           vibrations may cause significant error
 Vibrational temperatures:     63.29   122.60   159.60   177.06   274.51
          (Kelvin)            329.72   346.74   409.72   484.93   547.27
                              654.38   755.82   809.22   881.94   895.88
                              931.62  1026.11  1127.07  1181.48  1265.51
                             1325.95  1435.14  1474.34  1533.78  1580.36
                             1600.37  1669.41  1745.00  1833.51  1888.02
                             1930.71  1966.60  2002.09  2027.48  2049.56
                             2088.21  2124.68  2152.96  2172.86  2512.27
                             3183.30  4249.45  4343.55  4352.37  4370.46
                             4402.04  4413.10  4462.45  4504.58  5026.49
                             5413.55

 Zero-point correction=                           0.155616 (Hartree/Particle)
 Thermal correction to Energy=                    0.165925
 Thermal correction to Enthalpy=                  0.166869
 Thermal correction to Gibbs Free Energy=         0.119647
 Sum of electronic and zero-point Energies=           -423.012359
 Sum of electronic and thermal Energies=              -423.002050
 Sum of electronic and thermal Enthalpies=            -423.001106
 Sum of electronic and thermal Free Energies=         -423.048328

                     E (Thermal)             CV                S
                      KCal/Mol        Cal/Mol-Kelvin    Cal/Mol-Kelvin
 Total                  104.119             36.926             99.387
 Electronic               0.000              0.000              0.000
 Translational            0.889              2.981             40.409
 Rotational               0.889              2.981             29.403
 Vibrational            102.342             30.965             29.576
 Vibration     1          0.595              1.980              5.071
 Vibration     2          0.601              1.959              3.767
 Vibration     3          0.607              1.940              3.253
 Vibration     4          0.610              1.930              3.052
 Vibration     5          0.634              1.853              2.220
 Vibration     6          0.652              1.796              1.885
 Vibration     7          0.658              1.778              1.796
 Vibration     8          0.683              1.702              1.505
 Vibration     9          0.718              1.602              1.226
 Vibration    10          0.750              1.512              1.038
 Vibration    11          0.813              1.350              0.781
 Vibration    12          0.880              1.194              0.598
 Vibration    13          0.918              1.113              0.519
 Vibration    14          0.972              1.004              0.428

 Optimization completed.
    -- Stationary point found.
 Normal termination of Gaussian 09 at Tue Jan 28 09:05:17 2020.
