 Gaussian 09, Revision D.01,
 Gaussian 09:  ES64L-G09RevD.01 24-Apr-2013

 -----------------------------
 # b3lyp 6-31G(2df,p) opt Freq
 -----------------------------

 -----
 titel
 -----
 Symbolic Z-matrix:
 Charge =  0 Multiplicity = 1

 SCF Done:  E(RB3LYP) =  -423.156883544     A.U. after   14 cycles
 Optimization completed.
    -- Stationary point found.
 Normal termination of Gaussian 09 at Mon Jan 27 11:18:56 2020.

 ----------------------------------------------------------------------
 #N Geom=AllCheck Guess=TCheck SCRF=Check GenChk RB3LYP/6-31G(2df,p) Fr
 eq
 ----------------------------------------------------------------------

 Structure from the checkpoint file:  "/scratch/puck/g09_2e364ccc-8fcb-44f6-8db4-b77171d6ec96/Gau-32184.chk"
 -----
 titel
 -----
 Charge =  0 Multiplicity = 1

                         Standard orientation:
 ---------------------------------------------------------------------
 Center     Atomic      Atomic             Coordinates (Angstroms)
 Number     Number       Type             X           Y           Z
 ---------------------------------------------------------------------
      1          6           0       -1.646192   -0.457209    0.879531
      2          8           0       -2.560842   -0.133815   -0.188379
      3          6           0       -1.519966    0.508989   -0.945796
      4          6           0       -0.438156    0.083249    0.081834
      5          6           0        0.459397    1.161642    0.723694
      6          6           0        1.797383    1.124030   -0.054910
      7          6           0        1.881867   -0.308610   -0.544801
      8          8           0        1.584084   -1.277060    0.472185
      9          6           0        0.552106   -0.925139   -0.461011
     10          1           0       -1.873288    0.101760    1.797404
     11          1           0       -1.636948   -1.529524    1.108456
     12          1           0       -1.426469    0.090294   -1.956626
     13          1           0       -1.673911    1.593964   -1.025026
     14          1           0       -0.009315    2.149056    0.713988
     15          1           0        0.637628    0.893624    1.768481
     16          1           0        1.778143    1.794174   -0.923187
     17          1           0        2.652183    1.413106    0.563753
     18          1           0        2.629038   -0.614053   -1.272856
     19          1           0        0.218368   -1.727110   -1.116080
 ---------------------------------------------------------------------

 SCF Done:  E(RB3LYP) =  -423.156883544     A.U. after    1 cycles

 The electronic state is 1-A.
 Alpha  occ. eigenvalues --  -19.15136 -19.13191 -10.23823 -10.23627 -10.23197
 Alpha  occ. eigenvalues --  -10.22881 -10.20288 -10.19286 -10.18943  -1.07377
 Alpha  occ. eigenvalues --   -1.03760  -0.81782  -0.74324  -0.69416  -0.67414
 Alpha  occ. eigenvalues --   -0.63079  -0.58253  -0.54787  -0.52388  -0.48977
 Alpha  occ. eigenvalues --   -0.46794  -0.46262  -0.43920  -0.40911  -0.40317
 Alpha  occ. eigenvalues --   -0.39753  -0.37501  -0.35939  -0.35412  -0.33008
 Alpha  occ. eigenvalues --   -0.30039  -0.28813  -0.26596  -0.24762
 Alpha virt. eigenvalues --    0.07234   0.08962   0.09490   0.10859   0.11961
 Alpha virt. eigenvalues --    0.12357   0.12715   0.13982   0.15367   0.16927
 Alpha virt. eigenvalues --    0.17986   0.18503   0.19055   0.19749   0.20639

 Mulliken charges:
               1
     1  C   -0.128633
     2  O   -0.272903
     3  C   -0.121453
     4  C    0.283830
     5  C   -0.309539
     6  C   -0.248781
     7  C    0.046235
     8  O   -0.268891
     9  C   -0.017444
    10  H    0.097312
    11  H    0.108540
    12  H    0.098512
    13  H    0.095273
    14  H    0.102432
    15  H    0.122188
    16  H    0.105875
    17  H    0.112990
    18  H    0.095603
    19  H    0.098854
 Sum of Mulliken charges =   0.00000

 Dipole moment (field-independent basis, Debye):
    X=              1.2731    Y=              1.4030    Z=             -0.9294  Tot=              2.1103
 Quadrupole moment (field-independent basis, Debye-Ang):
   XX=            -60.1663   YY=            -53.0264   ZZ=            -50.9723
   XY=              2.0759   XZ=             -3.2211   YZ=              1.3604

  Exact polarizability:  80.812   2.809  71.017  -1.886  -0.242  69.229
 Approx polarizability: 110.419   3.211 104.938   0.764  -4.409 105.840

                      1                      2                      3
                      A                      A                      A
 Frequencies --     59.1501               111.8001               208.2828
 Red. masses --      3.9996                 3.1370                 2.4789
 Frc consts  --      0.0082                 0.0231                 0.0634
 IR Inten    --      4.9108                 2.1989                 1.6547

                      4                      5                      6
                      A                      A                      A
 Frequencies --    305.3119               345.9334               368.8816
 Red. masses --      1.9760                 2.5350                 2.8071
 Frc consts  --      0.1085                 0.1787                 0.2251
 IR Inten    --      0.9731                 0.5436                 3.4149

                      7                      8                      9
                      A                      A                      A
 Frequencies --    440.6576               513.8428               675.2348
 Red. masses --      3.9185                 3.9480                 2.9332
 Frc consts  --      0.4483                 0.6142                 0.7880
 IR Inten    --      2.6285                 7.0133                 2.2914

                     10                     11                     12
                      A                      A                      A
 Frequencies --    741.0955               827.7352               839.9430
 Red. masses --      2.6183                 2.7118                 2.8937
 Frc consts  --      0.8473                 1.0947                 1.2028
 IR Inten    --      3.4404                11.9473                 2.6788

                     13                     14                     15
                      A                      A                      A
 Frequencies --    853.1600               873.1755               909.5347
 Red. masses --      3.1427                 2.7036                 2.2343
 Frc consts  --      1.3478                 1.2145                 1.0890
 IR Inten    --      4.1964                25.5376                10.0850

                     16                     17                     18
                      A                      A                      A
 Frequencies --    936.1355               964.0144               982.8469
 Red. masses --      1.9083                 2.1551                 3.0359
 Frc consts  --      0.9853                 1.1800                 1.7279
 IR Inten    --      2.2418                 1.0453                22.5906

                     19                     20                     21
                      A                      A                      A
 Frequencies --    991.6306              1002.2603              1036.8395
 Red. masses --      1.7915                 2.2700                 1.4475
 Frc consts  --      1.0379                 1.3435                 0.9169
 IR Inten    --      1.2724                 1.3865                 5.2256

                     22                     23                     24
                      A                      A                      A
 Frequencies --   1042.5744              1098.1312              1132.4705
 Red. masses --      9.1171                 1.4327                 2.1142
 Frc consts  --      5.8388                 1.0179                 1.5975
 IR Inten    --     86.7360                 1.4460                 1.1882

                     25                     26                     27
                      A                      A                      A
 Frequencies --   1153.5958              1159.2319              1163.3418
 Red. masses --      1.3176                 1.2027                 1.8300
 Frc consts  --      1.0331                 0.9523                 1.4592
 IR Inten    --      0.8547                 0.8839                 3.7624

                     28                     29                     30
                      A                      A                      A
 Frequencies --   1211.2285              1223.7514              1263.1067
 Red. masses --      1.4438                 2.0408                 1.4329
 Frc consts  --      1.2480                 1.8007                 1.3469
 IR Inten    --      2.4954                 3.8173                 4.3042

                     31                     32                     33
                      A                      A                      A
 Frequencies --   1277.0607              1307.5161              1318.1954
 Red. masses --      1.7334                 1.2741                 1.3078
 Frc consts  --      1.6656                 1.2834                 1.3389
 IR Inten    --      2.1849                 0.8771                 0.2572

                     34                     35                     36
                      A                      A                      A
 Frequencies --   1325.5369              1367.1823              1381.9259
 Red. masses --      1.6849                 1.5987                 1.5918
 Frc consts  --      1.7443                 1.7606                 1.7911
 IR Inten    --      2.8149                 0.1605                 4.6532

                     37                     38                     39
                      A                      A                      A
 Frequencies --   1434.6575              1478.8609              1490.5061
 Red. masses --      3.1501                 1.1099                 1.1028
 Frc consts  --      3.8201                 1.4302                 1.4435
 IR Inten    --     12.7712                 1.2245                 3.7829

                     40                     41                     42
                      A                      A                      A
 Frequencies --   1511.7118              1536.2214              2993.6352
 Red. masses --      1.0790                 1.1095                 1.0535
 Frc consts  --      1.4528                 1.5427                 5.5628
 IR Inten    --      0.9868                 1.1536               103.5485

                     43                     44                     45
                      A                      A                      A
 Frequencies --   3007.7466              3036.7198              3038.7966
 Red. masses --      1.0599                 1.0656                 1.1077
 Frc consts  --      5.6494                 5.7895                 6.0269
 IR Inten    --     19.2357                30.3705                34.1932

                     46                     47                     48
                      A                      A                      A
 Frequencies --   3054.8406              3063.9045              3086.6477
 Red. masses --      1.1060                 1.0631                 1.0979
 Frc consts  --      6.0813                 5.8799                 6.1627
 IR Inten    --     30.5757                28.3234                21.4892

                     49                     50                     51
                      A                      A                      A
 Frequencies --   3109.2100              3136.2669              3152.4733
 Red. masses --      1.1055                 1.0877                 1.0948
 Frc consts  --      6.2969                 6.3034                 6.4105
 IR Inten    --     21.9479                16.5847                33.5431

 - Thermochemistry -
 -------------------
 Temperature   298.150 Kelvin.  Pressure   1.00000 Atm.
 Atom     1 has atomic number  6 and mass  12.00000

 Molecular mass:   126.06808 amu.
 Principal axes and moments of inertia in atomic units:
                           1         2         3
     Eigenvalues --   526.389351348.743751491.54043
           X            0.99969   0.02228  -0.01134
           Y           -0.02182   0.99901   0.03887
           Z            0.01220  -0.03861   0.99918
 This molecule is an asymmetric top.
 Rotational symmetry number  1.
 Warning -- assumption of classical behavior for rotation
           may cause significant error
 Rotational temperatures (Kelvin)      0.16454     0.06422     0.05807
 Rotational constants (GHZ):           3.42853     1.33809     1.20998
 Zero-point vibrational energy     421949.9 (Joules/Mol)
                                  100.84845 (Kcal/Mol)
 Warning -- explicit consideration of   8 degrees of freedom as
           vibrations may cause significant error
 Vibrational temperatures:     85.10   160.86   299.67   439.28   497.72
          (Kelvin)            530.74   634.01   739.30   971.51  1066.27
                             1190.92  1208.49  1227.51  1256.30  1308.62
                             1346.89  1387.00  1414.10  1426.73  1442.03
                             1491.78  1500.03  1579.96  1629.37  1659.76
                             1667.87  1673.79  1742.69  1760.70  1817.33
                             1837.40  1881.22  1896.59  1907.15  1967.07
                             1988.28  2064.15  2127.75  2144.50  2175.01
                             2210.28  4307.17  4327.47  4369.16  4372.15
                             4395.23  4408.27  4440.99  4473.45  4512.38
                             4535.70

 Zero-point correction=                           0.160712 (Hartree/Particle)
 Thermal correction to Energy=                    0.168265
 Thermal correction to Enthalpy=                  0.169209
 Thermal correction to Gibbs Free Energy=         0.128146
 Sum of electronic and zero-point Energies=           -422.996171
 Sum of electronic and thermal Energies=              -422.988619
 Sum of electronic and thermal Enthalpies=            -422.987675
 Sum of electronic and thermal Free Energies=         -423.028738

                     E (Thermal)             CV                S
                      KCal/Mol        Cal/Mol-Kelvin    Cal/Mol-Kelvin
 Total                  105.588             29.194             86.425
 Electronic               0.000              0.000              0.000
 Translational            0.889              2.981             40.409
 Rotational               0.889              2.981             28.451
 Vibrational            103.810             23.233             17.566
 Vibration     1          0.597              1.974              4.485
 Vibration     2          0.607              1.940              3.237
 Vibration     3          0.642              1.828              2.059
 Vibration     4          0.696              1.664              1.388
 Vibration     5          0.724              1.584              1.185
 Vibration     6          0.741              1.536              1.084
 Vibration     7          0.801              1.381              0.825
 Vibration     8          0.869              1.219              0.624

 Optimization completed.
    -- Stationary point found.
 Normal termination of Gaussian 09 at Mon Jan 27 12:05:17 2020.
