 Gaussian 09, Revision D.01,
 Gaussian 09:  ES64L-G09RevD.01 24-Apr-2013

 -----------------------------
 # b3lyp 6-31G(2df,p) opt Freq
 -----------------------------

 -----
 titel
 -----
 Symbolic Z-matrix:
 Charge =  0 Multiplicity = 1

 SCF Done:  E(RB3LYP) =  -423.158317509     A.U. after   14 cycles
 Optimization completed.
    -- Stationary point found.
 Normal termination of Gaussian 09 at Tue Jan 28 14:12:37 2020.

 ----------------------------------------------------------------------
 #N Geom=AllCheck Guess=TCheck SCRF=Check GenChk RB3LYP/6-31G(2df,p) Fr
 eq
 ----------------------------------------------------------------------

 Structure from the checkpoint file:  "/scratch/puck/g09_d4ed98dd-066c-47da-8eea-346c37472a55/Gau-44158.chk"
 -----
 titel
 -----
 Charge =  0 Multiplicity = 1

                         Standard orientation:
 ---------------------------------------------------------------------
 Center     Atomic      Atomic             Coordinates (Angstroms)
 Number     Number       Type             X           Y           Z
 ---------------------------------------------------------------------
      1          6           0       -3.369610   -0.060944   -0.262642
      2          8           0       -2.001067   -0.380714   -0.190103
      3          6           0       -1.186324    0.743795    0.026653
      4          6           0        0.243698    0.312559    0.206686
      5          8           0        0.497847   -0.679408    1.227102
      6          6           0        0.799307   -1.009203   -0.134465
      7          6           0        2.266038   -0.829121   -0.509188
      8          6           0        2.490532    0.655761   -0.298792
      9          6           0        1.373561    1.288501    0.067742
     10          1           0       -3.586638    0.626543   -1.095979
     11          1           0       -3.913798   -0.994307   -0.424186
     12          1           0       -3.729388    0.404653    0.668351
     13          1           0       -1.245394    1.445021   -0.824891
     14          1           0       -1.517566    1.298088    0.922863
     15          1           0        0.195059   -1.802872   -0.561057
     16          1           0        2.923577   -1.440732    0.120584
     17          1           0        2.451413   -1.128201   -1.548911
     18          1           0        3.466130    1.117069   -0.404779
     19          1           0        1.279159    2.347621    0.276036
 ---------------------------------------------------------------------

 SCF Done:  E(RB3LYP) =  -423.158317509     A.U. after    1 cycles

 The electronic state is 1-A.
 Alpha  occ. eigenvalues --  -19.14332 -19.13630 -10.23407 -10.23363 -10.22613
 Alpha  occ. eigenvalues --  -10.22576 -10.18924 -10.18855 -10.18292  -1.06219
 Alpha  occ. eigenvalues --   -1.03444  -0.81639  -0.75269  -0.70647  -0.66152
 Alpha  occ. eigenvalues --   -0.62662  -0.56374  -0.54316  -0.51697  -0.48305
 Alpha  occ. eigenvalues --   -0.47713  -0.45118  -0.43841  -0.41172  -0.41091
 Alpha  occ. eigenvalues --   -0.39308  -0.37743  -0.36394  -0.35550  -0.32620
 Alpha  occ. eigenvalues --   -0.29601  -0.25782  -0.25368  -0.24194
 Alpha virt. eigenvalues --    0.00564   0.08523   0.11232   0.11571   0.13286
 Alpha virt. eigenvalues --    0.14088   0.14279   0.14986   0.15720   0.16659
 Alpha virt. eigenvalues --    0.17101   0.17831   0.19472   0.20135   0.21053

 Mulliken charges:
               1
     1  C   -0.222224
     2  O   -0.228772
     3  C   -0.173687
     4  C    0.387809
     5  O   -0.302270
     6  C   -0.015863
     7  C   -0.297965
     8  C   -0.073913
     9  C   -0.147453
    10  H    0.103045
    11  H    0.129618
    12  H    0.107669
    13  H    0.091779
    14  H    0.096694
    15  H    0.108649
    16  H    0.125752
    17  H    0.112340
    18  H    0.101345
    19  H    0.097446
 Sum of Mulliken charges =   0.00000

 Dipole moment (field-independent basis, Debye):
    X=             -0.2964    Y=              1.2616    Z=             -1.6361  Tot=              2.0872
 Quadrupole moment (field-independent basis, Debye-Ang):
   XX=            -45.2310   YY=            -50.8559   ZZ=            -56.3443
   XY=             -1.7175   XZ=             -1.3471   YZ=              2.3102

  Exact polarizability:  97.070  -3.484  76.207  -5.247   3.826  58.438
 Approx polarizability: 123.623 -10.679 116.819 -10.724   5.266  95.609

                      1                      2                      3
                      A                      A                      A
 Frequencies --     73.2893                79.7233               141.3497
 Red. masses --      2.8854                 2.4929                 3.3510
 Frc consts  --      0.0091                 0.0093                 0.0394
 IR Inten    --      3.1769                 1.9464                 0.6373

                      4                      5                      6
                      A                      A                      A
 Frequencies --    225.9670               244.2065               291.9909
 Red. masses --      1.7293                 1.5216                 2.9953
 Frc consts  --      0.0520                 0.0535                 0.1505
 IR Inten    --      0.3051                 3.6183                 1.1362

                      7                      8                      9
                      A                      A                      A
 Frequencies --    348.6515               403.8518               452.7554
 Red. masses --      3.2672                 3.2409                 3.7209
 Frc consts  --      0.2340                 0.3114                 0.4494
 IR Inten    --      1.2541                 1.4636                 8.0489

                     10                     11                     12
                      A                      A                      A
 Frequencies --    525.5308               683.3602               726.9625
 Red. masses --      2.4051                 4.1299                 2.6579
 Frc consts  --      0.3914                 1.1363                 0.8276
 IR Inten    --     10.4212                 3.3551                 6.9011

                     13                     14                     15
                      A                      A                      A
 Frequencies --    740.4024               799.8086               847.3971
 Red. masses --      2.1623                 4.1808                 2.8147
 Frc consts  --      0.6984                 1.5757                 1.1908
 IR Inten    --     10.8421                 9.0304                35.6331

                     16                     17                     18
                      A                      A                      A
 Frequencies --    908.9576               928.3769               952.6244
 Red. masses --      3.0584                 2.1031                 1.2774
 Frc consts  --      1.4888                 1.0680                 0.6830
 IR Inten    --      7.3732                19.4876                 0.6826

                     19                     20                     21
                      A                      A                      A
 Frequencies --    976.1679               999.5512              1011.4599
 Red. masses --      2.6508                 2.1862                 3.2145
 Frc consts  --      1.4883                 1.2869                 1.9376
 IR Inten    --     12.1178                 6.8719                 5.1672

                     22                     23                     24
                      A                      A                      A
 Frequencies --   1059.2635              1079.9467              1133.2202
 Red. masses --      2.0014                 1.5748                 1.1699
 Frc consts  --      1.3231                 1.0821                 0.8852
 IR Inten    --      2.5618                 5.0600                 2.0693

                     25                     26                     27
                      A                      A                      A
 Frequencies --   1164.7941              1180.8163              1185.3882
 Red. masses --      4.5775                 1.5169                 1.2495
 Frc consts  --      3.6591                 1.2462                 1.0345
 IR Inten    --    173.3353                 5.9551                 3.9308

                     28                     29                     30
                      A                      A                      A
 Frequencies --   1191.3211              1237.1017              1265.2026
 Red. masses --      1.6243                 1.9724                 1.1441
 Frc consts  --      1.3582                 1.7785                 1.0790
 IR Inten    --     14.6035                32.6610                 7.5189

                     31                     32                     33
                      A                      A                      A
 Frequencies --   1296.6956              1311.3192              1359.5519
 Red. masses --      1.3760                 1.6656                 1.9250
 Frc consts  --      1.3632                 1.6875                 2.0964
 IR Inten    --      7.7678                 1.3676                13.6298

                     34                     35                     36
                      A                      A                      A
 Frequencies --   1428.3526              1449.9485              1460.0916
 Red. masses --      1.5504                 2.5372                 1.2728
 Frc consts  --      1.8637                 3.1428                 1.5987
 IR Inten    --     20.5855                 8.4680                 4.3841

                     37                     38                     39
                      A                      A                      A
 Frequencies --   1481.2393              1486.2335              1498.5757
 Red. masses --      1.1712                 1.0511                 1.0626
 Frc consts  --      1.5140                 1.3679                 1.4059
 IR Inten    --      2.3715                 5.1638                 9.9316

                     40                     41                     42
                      A                      A                      A
 Frequencies --   1521.6859              1664.6249              2941.1131
 Red. masses --      1.0985                 6.4027                 1.0533
 Frc consts  --      1.4986                10.4531                 5.3680
 IR Inten    --      1.5145                 5.7473                36.7785

                     43                     44                     45
                      A                      A                      A
 Frequencies --   2966.2477              2970.9164              3014.7112
 Red. masses --      1.1038                 1.0383                 1.1027
 Frc consts  --      5.7221                 5.3996                 5.9049
 IR Inten    --     56.3077                76.9268                55.2642

                     46                     47                     48
                      A                      A                      A
 Frequencies --   3027.7169              3062.8580              3117.4910
 Red. masses --      1.0609                 1.1003                 1.0958
 Frc consts  --      5.7301                 6.0813                 6.2749
 IR Inten    --     26.9561                13.0932                26.6642

                     49                     50                     51
                      A                      A                      A
 Frequencies --   3175.5911              3187.0971              3212.7770
 Red. masses --      1.0911                 1.0852                 1.1039
 Frc consts  --      6.4831                 6.4943                 6.7132
 IR Inten    --     14.0758                 6.3099                17.3946

 - Thermochemistry -
 -------------------
 Temperature   298.150 Kelvin.  Pressure   1.00000 Atm.
 Atom     1 has atomic number  6 and mass  12.00000

 Molecular mass:   126.06808 amu.
 Principal axes and moments of inertia in atomic units:
                           1         2         3
     Eigenvalues --   423.654051783.908591946.11341
           X            0.99993  -0.01048  -0.00474
           Y            0.01075   0.99811   0.06048
           Z            0.00410  -0.06052   0.99816
 This molecule is an asymmetric top.
 Rotational symmetry number  1.
 Rotational temperatures (Kelvin)      0.20444     0.04855     0.04451
 Rotational constants (GHZ):           4.25994     1.01168     0.92736
 Zero-point vibrational energy     415668.1 (Joules/Mol)
                                   99.34706 (Kcal/Mol)
 Warning -- explicit consideration of  10 degrees of freedom as
           vibrations may cause significant error
 Vibrational temperatures:    105.45   114.70   203.37   325.12   351.36
          (Kelvin)            420.11   501.63   581.05   651.41   756.12
                              983.20  1045.94  1065.27  1150.74  1219.21
                             1307.79  1335.73  1370.61  1404.49  1438.13
                             1455.26  1524.04  1553.80  1630.45  1675.88
                             1698.93  1705.51  1714.04  1779.91  1820.34
                             1865.65  1886.69  1956.09  2055.08  2086.15
                             2100.74  2131.17  2138.36  2156.11  2189.36
                             2395.02  4231.60  4267.76  4274.48  4337.49
                             4356.20  4406.76  4485.37  4568.96  4585.52
                             4622.46

 Zero-point correction=                           0.158320 (Hartree/Particle)
 Thermal correction to Energy=                    0.166924
 Thermal correction to Enthalpy=                  0.167869
 Thermal correction to Gibbs Free Energy=         0.124584
 Sum of electronic and zero-point Energies=           -422.999998
 Sum of electronic and thermal Energies=              -422.991393
 Sum of electronic and thermal Enthalpies=            -422.990449
 Sum of electronic and thermal Free Energies=         -423.033733

                     E (Thermal)             CV                S
                      KCal/Mol        Cal/Mol-Kelvin    Cal/Mol-Kelvin
 Total                  104.747             31.922             91.100
 Electronic               0.000              0.000              0.000
 Translational            0.889              2.981             40.409
 Rotational               0.889              2.981             28.777
 Vibrational            102.969             25.960             21.914
 Vibration     1          0.599              1.967              4.063
 Vibration     2          0.600              1.963              3.898
 Vibration     3          0.615              1.912              2.786
 Vibration     4          0.650              1.801              1.911
 Vibration     5          0.660              1.772              1.772
 Vibration     6          0.687              1.689              1.462
 Vibration     7          0.726              1.578              1.172
 Vibration     8          0.769              1.462              0.949
 Vibration     9          0.811              1.355              0.787
 Vibration    10          0.880              1.193              0.597

 Optimization completed.
    -- Stationary point found.
 Normal termination of Gaussian 09 at Tue Jan 28 14:56:48 2020.
