 Gaussian 09, Revision D.01,
 Gaussian 09:  ES64L-G09RevD.01 24-Apr-2013

 -----------------------------
 # b3lyp 6-31G(2df,p) opt Freq
 -----------------------------

 -----
 titel
 -----
 Symbolic Z-matrix:
 Charge =  0 Multiplicity = 1

 SCF Done:  E(RB3LYP) =  -423.204130422     A.U. after   14 cycles
 Optimization completed.
    -- Stationary point found.
 Normal termination of Gaussian 09 at Mon Jan 27 16:38:05 2020.

 ----------------------------------------------------------------------
 #N Geom=AllCheck Guess=TCheck SCRF=Check GenChk RB3LYP/6-31G(2df,p) Fr
 eq
 ----------------------------------------------------------------------

 Structure from the checkpoint file:  "/scratch/puck/g09_225839a6-cf9b-4b7f-b1c3-b9c817f7a1ce/Gau-110833.chk"
 -----
 titel
 -----
 Charge =  0 Multiplicity = 1

                         Standard orientation:
 ---------------------------------------------------------------------
 Center     Atomic      Atomic             Coordinates (Angstroms)
 Number     Number       Type             X           Y           Z
 ---------------------------------------------------------------------
      1          8           0       -0.037028   -1.221326    1.223605
      2          6           0        0.172635   -0.381034    0.074524
      3          6           0       -1.142365   -0.474558   -0.719165
      4          6           0       -2.349399   -0.015059    0.072006
      5          8           0       -3.131818    0.818627   -0.311751
      6          6           0        1.410616   -0.825206   -0.759850
      7          6           0        2.552676    0.161652   -0.411148
      8          6           0        1.831847    1.294131    0.278927
      9          6           0        0.548382    1.021558    0.508594
     10          1           0        0.654229   -1.015008    1.861753
     11          1           0       -1.084264    0.109008   -1.640793
     12          1           0       -1.297539   -1.531433   -0.978194
     13          1           0       -2.470638   -0.511792    1.056736
     14          1           0        1.649908   -1.867660   -0.538022
     15          1           0        1.179088   -0.760881   -1.826912
     16          1           0        3.310596   -0.280994    0.248923
     17          1           0        3.093211    0.499783   -1.302235
     18          1           0        2.331727    2.215742    0.558356
     19          1           0       -0.161899    1.675920    1.002236
 ---------------------------------------------------------------------

 SCF Done:  E(RB3LYP) =  -423.204130422     A.U. after    1 cycles

 The electronic state is 1-A.
 Alpha  occ. eigenvalues --  -19.14278 -19.13182 -10.26247 -10.25112 -10.19674
 Alpha  occ. eigenvalues --  -10.19586 -10.18952 -10.18682 -10.18667  -1.03812
 Alpha  occ. eigenvalues --   -1.02509  -0.84603  -0.76949  -0.72159  -0.67754
 Alpha  occ. eigenvalues --   -0.58275  -0.57390  -0.55391  -0.51765  -0.47891
 Alpha  occ. eigenvalues --   -0.46353  -0.45428  -0.42973  -0.41737  -0.38613
 Alpha  occ. eigenvalues --   -0.38329  -0.37908  -0.36874  -0.35738  -0.35682
 Alpha  occ. eigenvalues --   -0.32694  -0.28028  -0.26158  -0.23926
 Alpha virt. eigenvalues --   -0.01676   0.00499   0.07322   0.11179   0.11266
 Alpha virt. eigenvalues --    0.12563   0.13777   0.14565   0.15510   0.16584
 Alpha virt. eigenvalues --    0.17207   0.17935   0.19545   0.20911   0.22908

 Mulliken charges:
               1
     1  O   -0.469700
     2  C    0.335543
     3  C   -0.305616
     4  C    0.151155
     5  O   -0.251342
     6  C   -0.266564
     7  C   -0.270073
     8  C   -0.070341
     9  C   -0.127029
    10  H    0.277345
    11  H    0.118257
    12  H    0.125672
    13  H    0.095666
    14  H    0.110645
    15  H    0.108279
    16  H    0.110625
    17  H    0.114595
    18  H    0.103403
    19  H    0.109480
 Sum of Mulliken charges =   0.00000

 Dipole moment (field-independent basis, Debye):
    X=              3.6039    Y=             -0.6748    Z=              0.3538  Tot=              3.6835
 Quadrupole moment (field-independent basis, Debye-Ang):
   XX=            -59.4945   YY=            -54.5870   ZZ=            -50.9621
   XY=              4.6165   XZ=             -0.1668   YZ=              2.0462

  Exact polarizability:  95.760   0.350  71.143  -3.648   0.782  65.345
 Approx polarizability: 135.057  -1.822 109.409  -4.793  -4.052  99.604

                      1                      2                      3
                      A                      A                      A
 Frequencies --     35.3903                65.6671                97.7410
 Red. masses --      4.3629                 3.0396                 2.5383
 Frc consts  --      0.0032                 0.0077                 0.0143
 IR Inten    --      7.3103                 0.5483                 1.8706

                      4                      5                      6
                      A                      A                      A
 Frequencies --    187.5439               252.9406               312.6888
 Red. masses --      3.0155                 2.2946                 1.2355
 Frc consts  --      0.0625                 0.0865                 0.0712
 IR Inten    --      2.6385                 0.5049                63.8684

                      7                      8                      9
                      A                      A                      A
 Frequencies --    324.8243               363.1074               433.1354
 Red. masses --      2.8577                 2.7318                 3.5291
 Frc consts  --      0.1776                 0.2122                 0.3901
 IR Inten    --      4.1063                 9.3741                 3.2751

                     10                     11                     12
                      A                      A                      A
 Frequencies --    473.1844               522.1922               643.8939
 Red. masses --      2.7642                 2.3312                 2.5558
 Frc consts  --      0.3647                 0.3745                 0.6243
 IR Inten    --     13.8452                10.0291                 4.5528

                     13                     14                     15
                      A                      A                      A
 Frequencies --    731.5632               771.8581               791.9264
 Red. masses --      2.2282                 2.0727                 2.5625
 Frc consts  --      0.7026                 0.7275                 0.9469
 IR Inten    --      5.9010                12.5138                 2.6943

                     16                     17                     18
                      A                      A                      A
 Frequencies --    818.0108               852.5052               923.6704
 Red. masses --      1.8834                 1.9080                 2.4604
 Frc consts  --      0.7425                 0.8170                 1.2368
 IR Inten    --     26.1328                 2.2348                 1.6549

                     19                     20                     21
                      A                      A                      A
 Frequencies --    956.9978               969.7391               982.3873
 Red. masses --      2.2847                 1.9795                 1.4702
 Frc consts  --      1.2329                 1.0968                 0.8359
 IR Inten    --     14.7403                 1.0793                 0.8203

                     22                     23                     24
                      A                      A                      A
 Frequencies --    998.4009              1040.4891              1070.9027
 Red. masses --      1.9986                 2.3457                 1.7332
 Frc consts  --      1.1738                 1.4962                 1.1711
 IR Inten    --     16.8959                15.4613                30.4910

                     25                     26                     27
                      A                      A                      A
 Frequencies --   1111.4385              1128.4873              1169.1262
 Red. masses --      1.9418                 1.6549                 1.8643
 Frc consts  --      1.4133                 1.2417                 1.5013
 IR Inten    --     62.9120                 1.3195                 7.1439

                     28                     29                     30
                      A                      A                      A
 Frequencies --   1178.0454              1220.2048              1261.1829
 Red. masses --      1.3750                 1.2358                 1.4525
 Frc consts  --      1.1243                 1.0841                 1.3612
 IR Inten    --     35.4355                 5.7848                 2.0966

                     31                     32                     33
                      A                      A                      A
 Frequencies --   1286.6790              1308.8016              1324.6851
 Red. masses --      1.3246                 1.3565                 1.6350
 Frc consts  --      1.2921                 1.3690                 1.6904
 IR Inten    --     20.2244                 0.4006                 4.4595

                     34                     35                     36
                      A                      A                      A
 Frequencies --   1352.0079              1403.1482              1418.3232
 Red. masses --      1.6309                 1.8674                 1.2065
 Frc consts  --      1.7564                 2.1662                 1.4300
 IR Inten    --     23.6847                53.8620                 9.0178

                     37                     38                     39
                      A                      A                      A
 Frequencies --   1448.9328              1475.6685              1495.9762
 Red. masses --      1.0950                 1.0793                 1.0973
 Frc consts  --      1.3544                 1.3847                 1.4468
 IR Inten    --      5.6317                 1.6582                 3.6986

                     40                     41                     42
                      A                      A                      A
 Frequencies --   1681.9178              1824.7137              2924.5020
 Red. masses --      6.4313                 9.8315                 1.0837
 Frc consts  --     10.7190                19.2867                 5.4609
 IR Inten    --      5.8017               172.0921                71.4582

                     43                     44                     45
                      A                      A                      A
 Frequencies --   3020.7502              3021.1075              3054.5332
 Red. masses --      1.0672                 1.0649                 1.0842
 Frc consts  --      5.7378                 5.7267                 5.9602
 IR Inten    --     36.6988                 5.3043                11.4578

                     46                     47                     48
                      A                      A                      A
 Frequencies --   3066.4602              3111.6652              3116.2399
 Red. masses --      1.0722                 1.1002                 1.0997
 Frc consts  --      5.9404                 6.2761                 6.2921
 IR Inten    --     26.9404                 3.2485                23.9618

                     49                     50                     51
                      A                      A                      A
 Frequencies --   3181.0007              3206.2186              3810.4718
 Red. masses --      1.0847                 1.1040                 1.0662
 Frc consts  --      6.4670                 6.6866                 9.1212
 IR Inten    --      7.2648                12.0584                16.5076

 - Thermochemistry -
 -------------------
 Temperature   298.150 Kelvin.  Pressure   1.00000 Atm.
 Atom     1 has atomic number  8 and mass  15.99491

 Molecular mass:   126.06808 amu.
 Principal axes and moments of inertia in atomic units:
                           1         2         3
     Eigenvalues --   556.311951728.735931860.03574
           X            0.99988   0.01275  -0.00857
           Y           -0.01189   0.99555   0.09352
           Z            0.00972  -0.09341   0.99558
 This molecule is an asymmetric top.
 Rotational symmetry number  1.
 Warning -- assumption of classical behavior for rotation
           may cause significant error
 Rotational temperatures (Kelvin)      0.15569     0.05010     0.04657
 Rotational constants (GHZ):           3.24412     1.04397     0.97027
 Zero-point vibrational energy     414045.8 (Joules/Mol)
                                   98.95932 (Kcal/Mol)
 Warning -- explicit consideration of  11 degrees of freedom as
           vibrations may cause significant error
 Vibrational temperatures:     50.92    94.48   140.63   269.83   363.92
          (Kelvin)            449.89   467.35   522.43   623.18   680.81
                              751.32   926.42  1052.55  1110.53  1139.40
                             1176.93  1226.56  1328.95  1376.90  1395.24
                             1413.43  1436.47  1497.03  1540.79  1599.11
                             1623.64  1682.11  1694.94  1755.60  1814.56
                             1851.24  1883.07  1905.92  1945.24  2018.81
                             2040.65  2084.69  2123.16  2152.37  2419.90
                             2625.35  4207.70  4346.18  4346.69  4394.79
                             4411.95  4476.99  4483.57  4576.74  4613.03
                             5482.41

 Zero-point correction=                           0.157702 (Hartree/Particle)
 Thermal correction to Energy=                    0.166879
 Thermal correction to Enthalpy=                  0.167823
 Thermal correction to Gibbs Free Energy=         0.122613
 Sum of electronic and zero-point Energies=           -423.046429
 Sum of electronic and thermal Energies=              -423.037251
 Sum of electronic and thermal Enthalpies=            -423.036307
 Sum of electronic and thermal Free Energies=         -423.081518

                     E (Thermal)             CV                S
                      KCal/Mol        Cal/Mol-Kelvin    Cal/Mol-Kelvin
 Total                  104.718             33.605             95.154
 Electronic               0.000              0.000              0.000
 Translational            0.889              2.981             40.409
 Rotational               0.889              2.981             28.971
 Vibrational            102.941             27.643             25.774
 Vibration     1          0.594              1.982              5.502
 Vibration     2          0.597              1.971              4.279
 Vibration     3          0.603              1.951              3.499
 Vibration     4          0.632              1.857              2.252
 Vibration     5          0.664              1.758              1.710
 Vibration     6          0.701              1.649              1.348
 Vibration     7          0.709              1.626              1.286
 Vibration     8          0.737              1.548              1.109
 Vibration     9          0.794              1.398              0.848
 Vibration    10          0.830              1.310              0.729
 Vibration    11          0.877              1.201              0.605

 Optimization completed.
    -- Stationary point found.
 Normal termination of Gaussian 09 at Mon Jan 27 17:17:20 2020.
