 Gaussian 09, Revision D.01,
 Gaussian 09:  ES64L-G09RevD.01 24-Apr-2013

 -----------------------------
 # b3lyp 6-31G(2df,p) opt Freq
 -----------------------------

 -----
 titel
 -----
 Symbolic Z-matrix:
 Charge =  0 Multiplicity = 1

 SCF Done:  E(RB3LYP) =  -423.120035103     A.U. after   13 cycles
 Optimization completed.
    -- Stationary point found.
 Normal termination of Gaussian 09 at Mon Jan 27 11:16:47 2020.

 ----------------------------------------------------------------------
 #N Geom=AllCheck Guess=TCheck SCRF=Check GenChk RB3LYP/6-31G(2df,p) Fr
 eq
 ----------------------------------------------------------------------

 Structure from the checkpoint file:  "/scratch/puck/g09_5f084e4a-b551-453a-972e-8b196a64a9a1/Gau-46398.chk"
 -----
 titel
 -----
 Charge =  0 Multiplicity = 1

                         Standard orientation:
 ---------------------------------------------------------------------
 Center     Atomic      Atomic             Coordinates (Angstroms)
 Number     Number       Type             X           Y           Z
 ---------------------------------------------------------------------
      1          6           0        2.866742   -0.333583    0.183136
      2          6           0        2.091466    0.997664    0.119006
      3          6           0        0.926097    0.125509   -0.404352
      4          8           0        1.701566   -1.084850   -0.217054
      5          6           0       -0.363193    0.103101    0.385929
      6          6           0       -1.343691    1.282286    0.026650
      7          6           0       -2.330327    0.234890   -0.507842
      8          8           0       -2.627099   -0.654701    0.573106
      9          6           0       -1.421255   -0.871785   -0.165175
     10          1           0        3.683827   -0.431553   -0.542894
     11          1           0        3.232831   -0.640033    1.169791
     12          1           0        1.900187    1.463055    1.088014
     13          1           0        2.478741    1.748215   -0.571035
     14          1           0        0.708728    0.277349   -1.472742
     15          1           0       -0.151926   -0.034855    1.450318
     16          1           0       -1.713440    1.887624    0.856920
     17          1           0       -0.939902    1.936364   -0.751749
     18          1           0       -3.075741    0.330285   -1.288795
     19          1           0       -1.274080   -1.848537   -0.610353
 ---------------------------------------------------------------------

 SCF Done:  E(RB3LYP) =  -423.120035103     A.U. after    1 cycles

 The electronic state is 1-A.
 Alpha  occ. eigenvalues --  -19.14806 -19.13083 -10.23752 -10.23647 -10.23352
 Alpha  occ. eigenvalues --  -10.23226 -10.19335 -10.19262 -10.19185  -1.07546
 Alpha  occ. eigenvalues --   -1.03631  -0.81391  -0.74396  -0.70602  -0.65311
 Alpha  occ. eigenvalues --   -0.62310  -0.56819  -0.55030  -0.52554  -0.49117
 Alpha  occ. eigenvalues --   -0.47438  -0.45791  -0.44358  -0.41975  -0.39939
 Alpha  occ. eigenvalues --   -0.38081  -0.37204  -0.35392  -0.34536  -0.31513
 Alpha  occ. eigenvalues --   -0.30733  -0.28904  -0.25339  -0.24706
 Alpha virt. eigenvalues --    0.07666   0.08909   0.09576   0.09935   0.11039
 Alpha virt. eigenvalues --    0.12561   0.13513   0.14380   0.15491   0.16490
 Alpha virt. eigenvalues --    0.16878   0.17726   0.18456   0.19007   0.20976

 Mulliken charges:
               1
     1  C   -0.061013
     2  C   -0.299834
     3  C    0.145564
     4  O   -0.298808
     5  C   -0.025662
     6  C   -0.286370
     7  C    0.038170
     8  O   -0.249020
     9  C    0.021938
    10  H    0.101894
    11  H    0.106671
    12  H    0.112433
    13  H    0.110559
    14  H    0.068415
    15  H    0.080895
    16  H    0.112370
    17  H    0.105891
    18  H    0.102806
    19  H    0.113099
 Sum of Mulliken charges =   0.00000

 Dipole moment (field-independent basis, Debye):
    X=              1.4360    Y=              2.1433    Z=             -0.9971  Tot=              2.7658
 Quadrupole moment (field-independent basis, Debye-Ang):
   XX=            -54.1836   YY=            -54.1407   ZZ=            -52.1733
   XY=              0.1032   XZ=              4.5827   YZ=              0.2071

  Exact polarizability:  91.027  -2.401  70.735   3.470  -0.899  63.501
 Approx polarizability: 115.041  -3.611 107.963   1.696  -3.885  99.693

                      1                      2                      3
                      A                      A                      A
 Frequencies --     64.5367                75.0720               132.6529
 Red. masses --      2.5765                 3.1644                 2.9835
 Frc consts  --      0.0063                 0.0105                 0.0309
 IR Inten    --      0.8019                 0.9463                 1.6199

                      4                      5                      6
                      A                      A                      A
 Frequencies --    162.9926               320.3107               381.7400
 Red. masses --      4.6630                 4.3547                 1.9171
 Frc consts  --      0.0730                 0.2632                 0.1646
 IR Inten    --      2.8747                 0.3944                 0.6926

                      7                      8                      9
                      A                      A                      A
 Frequencies --    433.8828               497.1476               748.9706
 Red. masses --      4.2284                 3.9239                 1.8467
 Frc consts  --      0.4690                 0.5714                 0.6103
 IR Inten    --      5.0381                12.4612                 2.3895

                     10                     11                     12
                      A                      A                      A
 Frequencies --    767.1491               810.4681               840.3168
 Red. masses --      2.9102                 1.5628                 2.1154
 Frc consts  --      1.0091                 0.6048                 0.8801
 IR Inten    --      0.9896                 1.9337                18.1239

                     13                     14                     15
                      A                      A                      A
 Frequencies --    851.0220               863.2916               914.7429
 Red. masses --      3.3145                 2.6525                 1.8498
 Frc consts  --      1.4143                 1.1647                 0.9119
 IR Inten    --      7.8836                19.0658                 4.4638

                     16                     17                     18
                      A                      A                      A
 Frequencies --    927.1077               947.5354               967.9671
 Red. masses --      2.5171                 2.6243                 2.1582
 Frc consts  --      1.2747                 1.3882                 1.1914
 IR Inten    --      0.9847                14.7601                16.3323

                     19                     20                     21
                      A                      A                      A
 Frequencies --    989.6481              1001.9393              1029.1865
 Red. masses --      2.4982                 2.4279                 6.5475
 Frc consts  --      1.4416                 1.4360                 4.0862
 IR Inten    --      7.0180                 9.1498               126.9776

                     22                     23                     24
                      A                      A                      A
 Frequencies --   1042.8389              1054.4391              1100.3098
 Red. masses --      1.9991                 1.9169                 2.0218
 Frc consts  --      1.2809                 1.2557                 1.4422
 IR Inten    --     20.7733                 3.9205                 1.8984

                     25                     26                     27
                      A                      A                      A
 Frequencies --   1134.2083              1163.9246              1193.4719
 Red. masses --      1.6556                 1.2022                 1.6024
 Frc consts  --      1.2548                 0.9596                 1.3447
 IR Inten    --      6.0595                 1.0331                 5.3294

                     28                     29                     30
                      A                      A                      A
 Frequencies --   1212.6031              1222.0076              1228.5161
 Red. masses --      1.3035                 1.4445                 1.3748
 Frc consts  --      1.1292                 1.2709                 1.2225
 IR Inten    --      0.1132                 5.4454                 9.0513

                     31                     32                     33
                      A                      A                      A
 Frequencies --   1240.4701              1256.8190              1270.1694
 Red. masses --      1.4363                 1.4773                 1.4798
 Frc consts  --      1.3022                 1.3749                 1.4066
 IR Inten    --      3.2023                 3.4998                 1.4296

                     34                     35                     36
                      A                      A                      A
 Frequencies --   1287.1756              1296.6985              1359.7449
 Red. masses --      1.2785                 1.4213                 1.4176
 Frc consts  --      1.2480                 1.4081                 1.5442
 IR Inten    --      3.8889                 6.3161                 4.2772

                     37                     38                     39
                      A                      A                      A
 Frequencies --   1384.5892              1411.3577              1468.7594
 Red. masses --      3.3824                 1.5849                 1.1196
 Frc consts  --      3.8205                 1.8600                 1.4231
 IR Inten    --     24.2327                14.0386                 1.6425

                     40                     41                     42
                      A                      A                      A
 Frequencies --   1490.3601              1531.8950              2980.7232
 Red. masses --      1.1064                 1.1120                 1.0833
 Frc consts  --      1.4479                 1.5375                 5.6709
 IR Inten    --      3.6065                 0.9668                50.5127

                     43                     44                     45
                      A                      A                      A
 Frequencies --   3015.8708              3057.4228              3060.0519
 Red. masses --      1.0576                 1.1085                 1.0589
 Frc consts  --      5.6678                 6.1050                 5.8418
 IR Inten    --     86.0851                31.4946                26.8163

                     46                     47                     48
                      A                      A                      A
 Frequencies --   3070.0397              3078.5304              3119.7146
 Red. masses --      1.0856                 1.0606                 1.1070
 Frc consts  --      6.0286                 5.9223                 6.3478
 IR Inten    --     21.5604                27.1083                19.0050

                     49                     50                     51
                      A                      A                      A
 Frequencies --   3134.5665              3181.9463              3198.6853
 Red. masses --      1.1085                 1.0877                 1.1007
 Frc consts  --      6.4169                 6.4888                 6.6351
 IR Inten    --     26.8118                18.0703                15.8664

 - Thermochemistry -
 -------------------
 Temperature   298.150 Kelvin.  Pressure   1.00000 Atm.
 Atom     1 has atomic number  6 and mass  12.00000

 Molecular mass:   126.06808 amu.
 Principal axes and moments of inertia in atomic units:
                           1         2         3
     Eigenvalues --   392.892861802.596752020.08736
           X            0.99994   0.00020   0.01114
           Y           -0.00029   0.99997   0.00750
           Z           -0.01114  -0.00750   0.99991
 This molecule is an asymmetric top.
 Rotational symmetry number  1.
 Rotational temperatures (Kelvin)      0.22045     0.04805     0.04288
 Rotational constants (GHZ):           4.59347     1.00119     0.89340
 Zero-point vibrational energy     418547.0 (Joules/Mol)
                                  100.03513 (Kcal/Mol)
 Warning -- explicit consideration of   8 degrees of freedom as
           vibrations may cause significant error
 Vibrational temperatures:     92.85   108.01   190.86   234.51   460.86
          (Kelvin)            549.24   624.26   715.28  1077.60  1103.76
                             1166.08  1209.03  1224.43  1242.08  1316.11
                             1333.90  1363.29  1392.69  1423.88  1441.57
                             1480.77  1500.41  1517.10  1583.10  1631.87
                             1674.63  1717.14  1744.66  1758.19  1767.56
                             1784.76  1808.28  1827.49  1851.96  1865.66
                             1956.37  1992.11  2030.63  2113.21  2144.29
                             2204.05  4288.59  4339.16  4398.94  4402.73
                             4417.10  4429.31  4488.57  4509.94  4578.11
                             4602.19

 Zero-point correction=                           0.159416 (Hartree/Particle)
 Thermal correction to Energy=                    0.167399
 Thermal correction to Enthalpy=                  0.168343
 Thermal correction to Gibbs Free Energy=         0.125851
 Sum of electronic and zero-point Energies=           -422.960619
 Sum of electronic and thermal Energies=              -422.952636
 Sum of electronic and thermal Enthalpies=            -422.951692
 Sum of electronic and thermal Free Energies=         -422.994185

                     E (Thermal)             CV                S
                      KCal/Mol        Cal/Mol-Kelvin    Cal/Mol-Kelvin
 Total                  105.044             29.778             89.433
 Electronic               0.000              0.000              0.000
 Translational            0.889              2.981             40.409
 Rotational               0.889              2.981             28.749
 Vibrational            103.267             23.817             20.275
 Vibration     1          0.597              1.971              4.313
 Vibration     2          0.599              1.966              4.016
 Vibration     3          0.613              1.921              2.907
 Vibration     4          0.623              1.888              2.515
 Vibration     5          0.706              1.635              1.309
 Vibration     6          0.751              1.509              1.032
 Vibration     7          0.795              1.396              0.846
 Vibration     8          0.853              1.256              0.665

 Optimization completed.
    -- Stationary point found.
 Normal termination of Gaussian 09 at Mon Jan 27 11:55:32 2020.
