 Gaussian 09, Revision D.01,
 Gaussian 09:  ES64L-G09RevD.01 24-Apr-2013

 -----------------------------
 # b3lyp 6-31G(2df,p) opt Freq
 -----------------------------

 -----
 titel
 -----
 Symbolic Z-matrix:
 Charge =  0 Multiplicity = 1

 SCF Done:  E(RB3LYP) =  -423.185448358     A.U. after   14 cycles
 Optimization completed.
    -- Stationary point found.
 Normal termination of Gaussian 09 at Tue Jan 28 00:05:34 2020.

 ----------------------------------------------------------------------
 #N Geom=AllCheck Guess=TCheck SCRF=Check GenChk RB3LYP/6-31G(2df,p) Fr
 eq
 ----------------------------------------------------------------------

 Structure from the checkpoint file:  "/scratch/puck/g09_ece8ae4b-6111-4b87-9042-39742efbc97b/Gau-71697.chk"
 -----
 titel
 -----
 Charge =  0 Multiplicity = 1

                         Standard orientation:
 ---------------------------------------------------------------------
 Center     Atomic      Atomic             Coordinates (Angstroms)
 Number     Number       Type             X           Y           Z
 ---------------------------------------------------------------------
      1          6           0       -2.244292   -1.120935    0.055238
      2          6           0       -0.725205   -0.982519    0.057670
      3          6           0       -0.175761    0.065413    1.087687
      4          6           0        1.361208   -0.084508    1.211712
      5          6           0        1.939720   -0.596091   -0.125197
      6          8           0        1.213851   -0.142481   -1.269397
      7          6           0       -0.193231   -0.026285   -1.058673
      8          6           0       -0.416389    1.106209   -0.022582
      9          8           0       -0.727284    2.259677   -0.057195
     10          1           0       -2.582548   -1.718175   -0.797566
     11          1           0       -2.592670   -1.610320    0.970394
     12          1           0       -2.739289   -0.144757   -0.004445
     13          1           0       -0.249061   -1.964935    0.087741
     14          1           0       -0.671109    0.194400    2.052321
     15          1           0        1.797888    0.880854    1.487930
     16          1           0        1.613208   -0.794144    2.007978
     17          1           0        2.968397   -0.254729   -0.268696
     18          1           0        1.960799   -1.694277   -0.120053
     19          1           0       -0.674457    0.000802   -2.037996
 ---------------------------------------------------------------------

 SCF Done:  E(RB3LYP) =  -423.185448358     A.U. after    1 cycles

 The electronic state is 1-A.
 Alpha  occ. eigenvalues --  -19.15034 -19.13967 -10.26480 -10.23976 -10.23860
 Alpha  occ. eigenvalues --  -10.20450 -10.20285 -10.20245 -10.18904  -1.05317
 Alpha  occ. eigenvalues --   -1.03629  -0.85789  -0.77923  -0.72645  -0.63958
 Alpha  occ. eigenvalues --   -0.63680  -0.60138  -0.52451  -0.49503  -0.47352
 Alpha  occ. eigenvalues --   -0.45811  -0.45725  -0.44430  -0.41639  -0.40413
 Alpha  occ. eigenvalues --   -0.39419  -0.38957  -0.38341  -0.36745  -0.35017
 Alpha  occ. eigenvalues --   -0.32907  -0.29896  -0.27677  -0.22256
 Alpha virt. eigenvalues --   -0.01906   0.07669   0.10478   0.10980   0.11393
 Alpha virt. eigenvalues --    0.13257   0.13939   0.14810   0.15206   0.16391
 Alpha virt. eigenvalues --    0.17195   0.18295   0.19626   0.20713   0.21661

 Mulliken charges:
               1
     1  C   -0.431368
     2  C   -0.028982
     3  C   -0.145669
     4  C   -0.252040
     5  C   -0.069525
     6  O   -0.282318
     7  C    0.014190
     8  C    0.418247
     9  O   -0.320110
    10  H    0.124042
    11  H    0.123280
    12  H    0.134128
    13  H    0.081427
    14  H    0.085307
    15  H    0.125384
    16  H    0.109383
    17  H    0.117254
    18  H    0.103475
    19  H    0.093896
 Sum of Mulliken charges =   0.00000

 Dipole moment (field-independent basis, Debye):
    X=              0.2824    Y=             -3.0155    Z=              1.4799  Tot=              3.3709
 Quadrupole moment (field-independent basis, Debye-Ang):
   XX=            -50.6794   YY=            -59.3923   ZZ=            -53.3642
   XY=              2.2819   XZ=              2.8771   YZ=              0.0899

  Exact polarizability:  80.840  -1.158  74.028   2.858  -0.277  69.777
 Approx polarizability: 108.147  -5.871 117.763   1.970  -1.987 105.466

                      1                      2                      3
                      A                      A                      A
 Frequencies --    120.4112               206.2413               211.1442
 Red. masses --      6.4479                 2.7425                 2.3681
 Frc consts  --      0.0551                 0.0687                 0.0622
 IR Inten    --      2.4082                 1.9938                 0.6058

                      4                      5                      6
                      A                      A                      A
 Frequencies --    228.1661               246.1982               275.2072
 Red. masses --      1.0658                 3.2064                 2.5716
 Frc consts  --      0.0327                 0.1145                 0.1148
 IR Inten    --      0.2442                 4.7028                 1.0281

                      7                      8                      9
                      A                      A                      A
 Frequencies --    433.2721               448.6126               468.3900
 Red. masses --      3.5332                 4.7934                 4.3436
 Frc consts  --      0.3908                 0.5684                 0.5615
 IR Inten    --      0.0830                 7.0881                 1.5997

                     10                     11                     12
                      A                      A                      A
 Frequencies --    539.7063               689.4248               773.0299
 Red. masses --      4.6552                 2.9945                 2.7738
 Frc consts  --      0.7989                 0.8386                 0.9766
 IR Inten    --      0.0847                 2.2644                 3.2727

                     13                     14                     15
                      A                      A                      A
 Frequencies --    790.9657               830.5238               840.7794
 Red. masses --      2.5508                 2.3514                 2.5707
 Frc consts  --      0.9402                 0.9556                 1.0707
 IR Inten    --      4.4605                 2.1881                 2.3028

                     16                     17                     18
                      A                      A                      A
 Frequencies --    906.5688               919.1014               993.5418
 Red. masses --      2.4861                 2.7723                 2.1605
 Frc consts  --      1.2039                 1.3798                 1.2565
 IR Inten    --     13.0197                21.3009                21.0002

                     19                     20                     21
                      A                      A                      A
 Frequencies --   1022.6024              1039.4003              1053.0287
 Red. masses --      1.7312                 2.7773                 1.6495
 Frc consts  --      1.0666                 1.7678                 1.0776
 IR Inten    --      5.9114                14.9974                11.0762

                     22                     23                     24
                      A                      A                      A
 Frequencies --   1062.2489              1083.2329              1115.0310
 Red. masses --      1.7872                 2.6090                 2.7357
 Frc consts  --      1.1882                 1.8037                 2.0040
 IR Inten    --      4.4719                15.6312                53.4602

                     25                     26                     27
                      A                      A                      A
 Frequencies --   1142.6485              1150.7822              1203.8512
 Red. masses --      1.8401                 2.1642                 1.6565
 Frc consts  --      1.4156                 1.6887                 1.4144
 IR Inten    --      6.1902                 1.3884                 4.4487

                     28                     29                     30
                      A                      A                      A
 Frequencies --   1225.9948              1246.2234              1275.0355
 Red. masses --      1.4156                 1.7102                 1.3428
 Frc consts  --      1.2536                 1.5649                 1.2862
 IR Inten    --      3.3521                 5.6578                 1.0039

                     31                     32                     33
                      A                      A                      A
 Frequencies --   1288.5652              1322.0393              1347.8832
 Red. masses --      1.2855                 1.2721                 1.4196
 Frc consts  --      1.2576                 1.3100                 1.5195
 IR Inten    --      7.5738                 2.9146                 0.8580

                     34                     35                     36
                      A                      A                      A
 Frequencies --   1376.8230              1404.4136              1419.7364
 Red. masses --      1.4837                 1.2666                 1.2277
 Frc consts  --      1.6571                 1.4719                 1.4580
 IR Inten    --      2.4470                 3.3611                 2.0488

                     37                     38                     39
                      A                      A                      A
 Frequencies --   1495.2085              1497.8748              1500.0971
 Red. masses --      1.0830                 1.0483                 1.0445
 Frc consts  --      1.4266                 1.3857                 1.3848
 IR Inten    --      2.4050                 2.7602                 4.2510

                     40                     41                     42
                      A                      A                      A
 Frequencies --   1523.5758              1897.6635              3004.9899
 Red. masses --      1.0827                12.1015                 1.0718
 Frc consts  --      1.4808                25.6761                 5.7021
 IR Inten    --      0.5305               250.1101                40.2574

                     43                     44                     45
                      A                      A                      A
 Frequencies --   3030.5632              3037.5260              3077.0132
 Red. masses --      1.0355                 1.0603                 1.0978
 Frc consts  --      5.6034                 5.7641                 6.1237
 IR Inten    --     21.3271                30.1691                23.3099

                     46                     47                     48
                      A                      A                      A
 Frequencies --   3081.4105              3093.1991              3093.9888
 Red. masses --      1.0885                 1.0965                 1.0904
 Frc consts  --      6.0896                 6.1813                 6.1501
 IR Inten    --      9.6325                24.9318                26.5481

                     49                     50                     51
                      A                      A                      A
 Frequencies --   3101.9541              3103.2299              3104.8942
 Red. masses --      1.0961                 1.0961                 1.0977
 Frc consts  --      6.2138                 6.2192                 6.2348
 IR Inten    --     43.6212                 4.1657                37.9063

 - Thermochemistry -
 -------------------
 Temperature   298.150 Kelvin.  Pressure   1.00000 Atm.
 Atom     1 has atomic number  6 and mass  12.00000

 Molecular mass:   126.06808 amu.
 Principal axes and moments of inertia in atomic units:
                           1         2         3
     Eigenvalues --   815.451601063.687581253.98889
           X            0.99609   0.08083   0.03552
           Y           -0.08090   0.99672   0.00063
           Z           -0.03536  -0.00350   0.99937
 This molecule is an asymmetric top.
 Rotational symmetry number  1.
 Warning -- assumption of classical behavior for rotation
           may cause significant error
 Rotational temperatures (Kelvin)      0.10622     0.08143     0.06907
 Rotational constants (GHZ):           2.21318     1.69668     1.43920
 Zero-point vibrational energy     420750.6 (Joules/Mol)
                                  100.56182 (Kcal/Mol)
 Warning -- explicit consideration of  10 degrees of freedom as
           vibrations may cause significant error
 Vibrational temperatures:    173.24   296.73   303.79   328.28   354.22
          (Kelvin)            395.96   623.38   645.45   673.91   776.52
                              991.93  1112.22  1138.02  1194.94  1209.69
                             1304.35  1322.38  1429.48  1471.29  1495.46
                             1515.07  1528.34  1558.53  1604.28  1644.01
                             1655.72  1732.07  1763.93  1793.04  1834.49
                             1853.96  1902.12  1939.30  1980.94  2020.64
                             2042.68  2151.27  2155.11  2158.30  2192.08
                             2730.31  4323.50  4360.30  4370.32  4427.13
                             4433.46  4450.42  4451.55  4463.01  4464.85
                             4467.24

 Zero-point correction=                           0.160255 (Hartree/Particle)
 Thermal correction to Energy=                    0.168239
 Thermal correction to Enthalpy=                  0.169183
 Thermal correction to Gibbs Free Energy=         0.128033
 Sum of electronic and zero-point Energies=           -423.025193
 Sum of electronic and thermal Energies=              -423.017209
 Sum of electronic and thermal Enthalpies=            -423.016265
 Sum of electronic and thermal Free Energies=         -423.057416

                     E (Thermal)             CV                S
                      KCal/Mol        Cal/Mol-Kelvin    Cal/Mol-Kelvin
 Total                  105.572             30.979             86.609
 Electronic               0.000              0.000              0.000
 Translational            0.889              2.981             40.409
 Rotational               0.889              2.981             28.477
 Vibrational            103.794             25.017             17.723
 Vibration     1          0.609              1.932              3.094
 Vibration     2          0.641              1.831              2.077
 Vibration     3          0.643              1.824              2.034
 Vibration     4          0.651              1.798              1.893
 Vibration     5          0.661              1.769              1.758
 Vibration     6          0.677              1.719              1.563
 Vibration     7          0.794              1.398              0.848
 Vibration     8          0.808              1.364              0.800
 Vibration     9          0.826              1.320              0.742
 Vibration    10          0.895              1.162              0.566

 Optimization completed.
    -- Stationary point found.
 Normal termination of Gaussian 09 at Tue Jan 28 00:50:49 2020.
