 Gaussian 09, Revision D.01,
 Gaussian 09:  ES64L-G09RevD.01 24-Apr-2013

 -----------------------------
 # b3lyp 6-31G(2df,p) opt Freq
 -----------------------------

 -----
 titel
 -----
 Symbolic Z-matrix:
 Charge =  0 Multiplicity = 1

 SCF Done:  E(RB3LYP) =  -423.258469538     A.U. after   14 cycles
 Optimization completed.
    -- Stationary point found.
 Normal termination of Gaussian 09 at Mon Jan 27 22:03:16 2020.

 ----------------------------------------------------------------------
 #N Geom=AllCheck Guess=TCheck SCRF=Check GenChk RB3LYP/6-31G(2df,p) Fr
 eq
 ----------------------------------------------------------------------

 Structure from the checkpoint file:  "/scratch/puck/g09_733f050f-b90b-48ce-823c-27a66eb3ea7e/Gau-78539.chk"
 -----
 titel
 -----
 Charge =  0 Multiplicity = 1

                         Standard orientation:
 ---------------------------------------------------------------------
 Center     Atomic      Atomic             Coordinates (Angstroms)
 Number     Number       Type             X           Y           Z
 ---------------------------------------------------------------------
      1          6           0       -2.471417   -1.217488    0.000003
      2          6           0       -1.105216   -0.619633   -0.000092
      3          6           0        0.105028   -1.178312   -0.000168
      4          6           0        1.178374   -0.118273    0.000019
      5          6           0        2.038251   -0.151241   -1.268732
      6          6           0        2.038334   -0.151530    1.268694
      7          8           0        0.427266    1.117955    0.000219
      8          6           0       -0.914634    0.858995    0.000051
      9          8           0       -1.747859    1.723085   -0.000037
     10          1           0       -3.034408   -0.887225    0.879544
     11          1           0       -3.038316   -0.878106   -0.873471
     12          1           0       -2.434684   -2.309222   -0.005505
     13          1           0        0.340528   -2.236015   -0.000436
     14          1           0        2.739722    0.687505   -1.268388
     15          1           0        2.610744   -1.082564   -1.317848
     16          1           0        1.408990   -0.080888   -2.159333
     17          1           0        2.739023    0.687869    1.268876
     18          1           0        1.409131   -0.082425    2.159433
     19          1           0        2.611693   -1.082360    1.317029
 ---------------------------------------------------------------------

 SCF Done:  E(RB3LYP) =  -423.258469538     A.U. after    1 cycles

 The electronic state is 1-A.
 Alpha  occ. eigenvalues --  -19.17126 -19.11405 -10.29412 -10.26220 -10.20772
 Alpha  occ. eigenvalues --  -10.20611 -10.19273 -10.19079 -10.19079  -1.09165
 Alpha  occ. eigenvalues --   -1.01317  -0.82917  -0.79514  -0.71256  -0.70579
 Alpha  occ. eigenvalues --   -0.63492  -0.59004  -0.54848  -0.48244  -0.47397
 Alpha  occ. eigenvalues --   -0.45837  -0.43449  -0.42598  -0.42315  -0.40621
 Alpha  occ. eigenvalues --   -0.40353  -0.39592  -0.39409  -0.36607  -0.36167
 Alpha  occ. eigenvalues --   -0.34203  -0.29231  -0.26965  -0.26227
 Alpha virt. eigenvalues --   -0.03265   0.07914   0.08338   0.10351   0.11205
 Alpha virt. eigenvalues --    0.13537   0.14201   0.15198   0.15835   0.17215
 Alpha virt. eigenvalues --    0.17862   0.17941   0.19473   0.19598   0.21986

 Mulliken charges:
               1
     1  C   -0.488437
     2  C    0.176938
     3  C   -0.241309
     4  C    0.306861
     5  C   -0.409115
     6  C   -0.409134
     7  O   -0.252203
     8  C    0.361752
     9  O   -0.350443
    10  H    0.148616
    11  H    0.148734
    12  H    0.124026
    13  H    0.115784
    14  H    0.133938
    15  H    0.119382
    16  H    0.130641
    17  H    0.133965
    18  H    0.130621
    19  H    0.119383
 Sum of Mulliken charges =   0.00000

 Dipole moment (field-independent basis, Debye):
    X=              2.1004    Y=             -3.9669    Z=              0.0003  Tot=              4.4886
 Quadrupole moment (field-independent basis, Debye-Ang):
   XX=            -51.8139   YY=            -57.4068   ZZ=            -52.0627
   XY=              4.5491   XZ=             -0.0016   YZ=             -0.0007

  Exact polarizability: 102.413  -6.104  74.606  -0.008   0.002  59.927
 Approx polarizability: 147.856 -22.926 119.573  -0.013   0.006  85.883

                      1                      2                      3
                      A                      A                      A
 Frequencies --    110.9412               115.2777               138.0592
 Red. masses --      1.5537                 2.0948                 2.4657
 Frc consts  --      0.0113                 0.0164                 0.0277
 IR Inten    --      0.3889                 0.6715                 0.9498

                      4                      5                      6
                      A                      A                      A
 Frequencies --    216.7157               236.5905               257.4213
 Red. masses --      1.0318                 1.7834                 1.3799
 Frc consts  --      0.0286                 0.0588                 0.0539
 IR Inten    --      0.0089                 2.1133                 1.0311

                      7                      8                      9
                      A                      A                      A
 Frequencies --    318.6148               338.8379               343.8550
 Red. masses --      2.5173                 2.8146                 3.4130
 Frc consts  --      0.1506                 0.1904                 0.2378
 IR Inten    --      0.5547                 2.1201                 0.1761

                     10                     11                     12
                      A                      A                      A
 Frequencies --    371.5991               519.2104               556.8535
 Red. masses --      3.1144                 3.0875                 3.3647
 Frc consts  --      0.2534                 0.4904                 0.6147
 IR Inten    --      0.8138                 3.8555                 5.3415

                     13                     14                     15
                      A                      A                      A
 Frequencies --    585.4721               627.8013               776.0037
 Red. masses --      3.9014                 6.4050                 6.0250
 Frc consts  --      0.7879                 1.4874                 2.1376
 IR Inten    --      0.5039                 3.6926                 6.6790

                     16                     17                     18
                      A                      A                      A
 Frequencies --    780.6887               865.6374               881.4287
 Red. masses --      5.9506                 3.8281                 1.3898
 Frc consts  --      2.1368                 1.6901                 0.6362
 IR Inten    --      0.0623                 3.6143                19.0468

                     19                     20                     21
                      A                      A                      A
 Frequencies --    936.5344               938.7348               979.7706
 Red. masses --      1.4853                 1.9616                 2.6748
 Frc consts  --      0.7675                 1.0185                 1.5128
 IR Inten    --      0.0014                 5.0498                26.3164

                     22                     23                     24
                      A                      A                      A
 Frequencies --   1013.8103              1020.6761              1067.2114
 Red. masses --      1.5733                 1.3183                 1.5471
 Frc consts  --      0.9527                 0.8092                 1.0382
 IR Inten    --     41.2757                 0.1800                 1.3253

                     25                     26                     27
                      A                      A                      A
 Frequencies --   1092.5407              1166.6254              1200.3409
 Red. masses --      4.1496                 1.7215                 3.7372
 Frc consts  --      2.9183                 1.3805                 3.1725
 IR Inten    --    127.9376                 8.7076                18.0371

                     28                     29                     30
                      A                      A                      A
 Frequencies --   1227.8192              1301.6010              1339.5956
 Red. masses --      2.8585                 4.0296                 2.6935
 Frc consts  --      2.5389                 4.0222                 2.8478
 IR Inten    --     12.8838                64.6455                 7.3809

                     31                     32                     33
                      A                      A                      A
 Frequencies --   1395.5423              1413.5235              1415.8580
 Red. masses --      1.2463                 1.2609                 1.2452
 Frc consts  --      1.4300                 1.4844                 1.4707
 IR Inten    --      6.8612                 1.1754                 0.2346

                     34                     35                     36
                      A                      A                      A
 Frequencies --   1472.6949              1475.6038              1482.4049
 Red. masses --      1.0429                 1.0476                 1.0463
 Frc consts  --      1.3326                 1.3439                 1.3546
 IR Inten    --      6.3544                 0.9062                 1.4532

                     37                     38                     39
                      A                      A                      A
 Frequencies --   1483.8090              1495.9548              1504.2842
 Red. masses --      1.0591                 1.0662                 1.0561
 Frc consts  --      1.3739                 1.4058                 1.4080
 IR Inten    --      7.1598                 0.7684                 5.9822

                     40                     41                     42
                      A                      A                      A
 Frequencies --   1722.0161              1858.3828              3039.8495
 Red. masses --      7.9954                12.8861                 1.0360
 Frc consts  --     13.9690                26.2206                 5.6406
 IR Inten    --      6.7633               411.6334                15.1167

                     43                     44                     45
                      A                      A                      A
 Frequencies --   3041.9758              3046.5354              3094.7673
 Red. masses --      1.0341                 1.0346                 1.0988
 Frc consts  --      5.6380                 5.6575                 6.2002
 IR Inten    --     12.9772                18.2859                 7.2839

                     46                     47                     48
                      A                      A                      A
 Frequencies --   3116.3345              3122.2318              3127.5790
 Red. masses --      1.1018                 1.1015                 1.1022
 Frc consts  --      6.3043                 6.3268                 6.3521
 IR Inten    --      0.8728                27.0795                12.9806

                     49                     50                     51
                      A                      A                      A
 Frequencies --   3128.2920              3130.4531              3205.9647
 Red. masses --      1.1031                 1.1030                 1.0958
 Frc consts  --      6.3605                 6.3683                 6.6360
 IR Inten    --     10.6943                23.8307                 4.6205

 - Thermochemistry -
 -------------------
 Temperature   298.150 Kelvin.  Pressure   1.00000 Atm.
 Atom     1 has atomic number  6 and mass  12.00000

 Molecular mass:   126.06808 amu.
 Principal axes and moments of inertia in atomic units:
                           1         2         3
     Eigenvalues --   667.865941357.845991623.45903
           X            0.99920   0.04002  -0.00001
           Y           -0.04002   0.99920  -0.00001
           Z            0.00001   0.00001   1.00000
 This molecule is an asymmetric top.
 Rotational symmetry number  1.
 Warning -- assumption of classical behavior for rotation
           may cause significant error
 Rotational temperatures (Kelvin)      0.12969     0.06379     0.05335
 Rotational constants (GHZ):           2.70225     1.32912     1.11166
 Zero-point vibrational energy     413311.7 (Joules/Mol)
                                   98.78387 (Kcal/Mol)
 Warning -- explicit consideration of  13 degrees of freedom as
           vibrations may cause significant error
 Vibrational temperatures:    159.62   165.86   198.64   311.81   340.40
          (Kelvin)            370.37   458.42   487.51   494.73   534.65
                              747.03   801.19   842.36   903.26  1116.49
                             1123.24  1245.46  1268.18  1347.46  1350.63
                             1409.67  1458.65  1468.52  1535.48  1571.92
                             1678.51  1727.02  1766.56  1872.71  1927.38
                             2007.87  2033.74  2037.10  2118.88  2123.06
                             2132.85  2134.87  2152.34  2164.33  2477.59
                             2673.80  4373.66  4376.72  4383.28  4452.67
                             4483.70  4492.19  4499.88  4500.91  4504.02
                             4612.66

 Zero-point correction=                           0.157422 (Hartree/Particle)
 Thermal correction to Energy=                    0.166715
 Thermal correction to Enthalpy=                  0.167659
 Thermal correction to Gibbs Free Energy=         0.123715
 Sum of electronic and zero-point Energies=           -423.101047
 Sum of electronic and thermal Energies=              -423.091755
 Sum of electronic and thermal Enthalpies=            -423.090811
 Sum of electronic and thermal Free Energies=         -423.134755

                     E (Thermal)             CV                S
                      KCal/Mol        Cal/Mol-Kelvin    Cal/Mol-Kelvin
 Total                  104.615             34.624             92.489
 Electronic               0.000              0.000              0.000
 Translational            0.889              2.981             40.409
 Rotational               0.889              2.981             28.778
 Vibrational            102.838             28.662             23.303
 Vibration     1          0.607              1.940              3.252
 Vibration     2          0.608              1.937              3.178
 Vibration     3          0.614              1.915              2.831
 Vibration     4          0.646              1.816              1.986
 Vibration     5          0.655              1.785              1.828
 Vibration     6          0.667              1.750              1.679
 Vibration     7          0.705              1.638              1.317
 Vibration     8          0.719              1.598              1.218
 Vibration     9          0.723              1.588              1.194
 Vibration    10          0.743              1.531              1.073
 Vibration    11          0.874              1.207              0.612
 Vibration    12          0.912              1.125              0.530
 Vibration    13          0.942              1.063              0.475

 Normal termination of Gaussian 09 at Mon Jan 27 22:47:18 2020.
