 Gaussian 09, Revision D.01,
 Gaussian 09:  ES64L-G09RevD.01 24-Apr-2013

 -----------------------------
 # b3lyp 6-31G(2df,p) opt Freq
 -----------------------------

 -----
 titel
 -----
 Symbolic Z-matrix:
 Charge =  0 Multiplicity = 1

 SCF Done:  E(RB3LYP) =  -423.174847552     A.U. after   14 cycles
 Optimization completed.
    -- Stationary point found.
 Normal termination of Gaussian 09 at Tue Jan 28 00:43:36 2020.

 ----------------------------------------------------------------------
 #N Geom=AllCheck Guess=TCheck SCRF=Check GenChk RB3LYP/6-31G(2df,p) Fr
 eq
 ----------------------------------------------------------------------

 Structure from the checkpoint file:  "/scratch/puck/g09_722f4c47-fad1-4cc5-8e74-f2fe10cc3d68/Gau-37438.chk"
 -----
 titel
 -----
 Charge =  0 Multiplicity = 1

                         Standard orientation:
 ---------------------------------------------------------------------
 Center     Atomic      Atomic             Coordinates (Angstroms)
 Number     Number       Type             X           Y           Z
 ---------------------------------------------------------------------
      1          6           0        1.479689   -1.787490   -0.520642
      2          6           0        0.972682   -0.830787    0.554594
      3          6           0        1.765381    0.512431    0.640106
      4          6           0        0.609638    1.180975   -0.129440
      5          8           0        0.485733    2.196412   -0.748456
      6          6           0       -0.302961   -0.042309    0.120406
      7          6           0       -1.510675    0.144889    1.074485
      8          6           0       -2.337725   -0.344926   -0.130291
      9          8           0       -1.142051   -0.544801   -0.918306
     10          1           0        2.441908   -2.220772   -0.230619
     11          1           0        0.767060   -2.599639   -0.687283
     12          1           0        1.615394   -1.272102   -1.477768
     13          1           0        0.857593   -1.350586    1.509709
     14          1           0        1.871987    0.911757    1.653561
     15          1           0        2.739894    0.547322    0.146150
     16          1           0       -1.506032   -0.520263    1.939938
     17          1           0       -1.703414    1.168611    1.398239
     18          1           0       -2.893662   -1.278651    0.008612
     19          1           0       -2.996355    0.404739   -0.581745
 ---------------------------------------------------------------------

 SCF Done:  E(RB3LYP) =  -423.174847552     A.U. after    1 cycles

 The electronic state is 1-A.
 Alpha  occ. eigenvalues --  -19.14438 -19.13981 -10.26556 -10.24323 -10.23951
 Alpha  occ. eigenvalues --  -10.20178 -10.19875 -10.19230 -10.18010  -1.05591
 Alpha  occ. eigenvalues --   -1.04170  -0.84713  -0.75201  -0.71657  -0.68221
 Alpha  occ. eigenvalues --   -0.59906  -0.59110  -0.51151  -0.49760  -0.48576
 Alpha  occ. eigenvalues --   -0.46493  -0.45796  -0.43488  -0.40938  -0.40264
 Alpha  occ. eigenvalues --   -0.39540  -0.38617  -0.37149  -0.34807  -0.34233
 Alpha  occ. eigenvalues --   -0.31864  -0.31099  -0.27491  -0.22792
 Alpha virt. eigenvalues --   -0.03145   0.08266   0.09579   0.10261   0.10795
 Alpha virt. eigenvalues --    0.12886   0.14073   0.14663   0.16346   0.16962
 Alpha virt. eigenvalues --    0.17455   0.17738   0.18323   0.18990   0.22497

 Mulliken charges:
               1
     1  C   -0.387351
     2  C   -0.096333
     3  C   -0.363353
     4  C    0.339060
     5  O   -0.297960
     6  C    0.362660
     7  C   -0.353680
     8  C   -0.071668
     9  O   -0.307527
    10  H    0.115188
    11  H    0.128502
    12  H    0.128018
    13  H    0.072919
    14  H    0.128769
    15  H    0.131509
    16  H    0.117893
    17  H    0.127279
    18  H    0.108306
    19  H    0.117768
 Sum of Mulliken charges =   0.00000

 Dipole moment (field-independent basis, Debye):
    X=             -0.3019    Y=             -1.8469    Z=              2.7378  Tot=              3.3163
 Quadrupole moment (field-independent basis, Debye-Ang):
   XX=            -47.7445   YY=            -58.8175   ZZ=            -54.1995
   XY=             -1.2371   XZ=             -1.0794   YZ=              2.1476

  Exact polarizability:  86.305   0.166  75.724   1.453  -1.858  65.531
 Approx polarizability: 111.963   0.651 112.288   3.218  -7.610 102.706

                      1                      2                      3
                      A                      A                      A
 Frequencies --     55.9689                81.0354               157.0341
 Red. masses --      3.2561                 2.3154                 3.8691
 Frc consts  --      0.0060                 0.0090                 0.0562
 IR Inten    --      2.0166                 1.4758                 2.3240

                      4                      5                      6
                      A                      A                      A
 Frequencies --    185.1372               217.6420               260.4071
 Red. masses --      2.8284                 1.1123                 4.8100
 Frc consts  --      0.0571                 0.0310                 0.1922
 IR Inten    --      2.0038                 0.4066                 2.0288

                      7                      8                      9
                      A                      A                      A
 Frequencies --    306.1388               414.9956               503.4037
 Red. masses --      2.5594                 2.8390                 3.6873
 Frc consts  --      0.1413                 0.2881                 0.5505
 IR Inten    --      0.3014                 0.8592                 0.5310

                     10                     11                     12
                      A                      A                      A
 Frequencies --    508.6765               592.9232               704.8656
 Red. masses --      2.1084                 4.4684                 3.7134
 Frc consts  --      0.3214                 0.9255                 1.0870
 IR Inten    --      0.8804                 8.5267                 0.9402

                     13                     14                     15
                      A                      A                      A
 Frequencies --    768.8385               813.4915               853.1443
 Red. masses --      1.3918                 1.6903                 2.8814
 Frc consts  --      0.4847                 0.6591                 1.2357
 IR Inten    --      2.5566                 1.8252                 2.9936

                     16                     17                     18
                      A                      A                      A
 Frequencies --    866.5002               869.7688               967.3728
 Red. masses --      2.5095                 2.5729                 2.1426
 Frc consts  --      1.1101                 1.1468                 1.1813
 IR Inten    --     16.9815                17.0376                 9.7090

                     19                     20                     21
                      A                      A                      A
 Frequencies --    972.9369              1013.1403              1024.8679
 Red. masses --      2.6614                 1.5970                 3.5824
 Frc consts  --      1.4843                 0.9658                 2.2170
 IR Inten    --      0.4522                14.7664               145.9198

                     22                     23                     24
                      A                      A                      A
 Frequencies --   1041.6324              1072.1074              1133.3064
 Red. masses --      3.9726                 1.8955                 2.2743
 Frc consts  --      2.5396                 1.2837                 1.7210
 IR Inten    --      5.4928                27.8053                 5.0076

                     25                     26                     27
                      A                      A                      A
 Frequencies --   1138.4579              1166.5826              1180.0371
 Red. masses --      1.9935                 1.1948                 2.5939
 Frc consts  --      1.5223                 0.9580                 2.1281
 IR Inten    --      4.0613                 0.0518                17.9024

                     28                     29                     30
                      A                      A                      A
 Frequencies --   1196.0883              1206.2892              1228.6779
 Red. masses --      1.9795                 1.4447                 1.4642
 Frc consts  --      1.6685                 1.2386                 1.3023
 IR Inten    --      9.5893                 0.3940                 1.8639

                     31                     32                     33
                      A                      A                      A
 Frequencies --   1251.8944              1284.8639              1344.5254
 Red. masses --      1.4787                 2.0830                 1.4334
 Frc consts  --      1.3654                 2.0261                 1.5268
 IR Inten    --      5.3891                 1.2941                 3.0084

                     34                     35                     36
                      A                      A                      A
 Frequencies --   1354.6354              1413.4530              1440.7283
 Red. masses --      1.4573                 1.2247                 1.1104
 Frc consts  --      1.5756                 1.4416                 1.3580
 IR Inten    --      0.9166                 2.4921                11.5774

                     37                     38                     39
                      A                      A                      A
 Frequencies --   1481.7093              1493.7249              1494.7726
 Red. masses --      1.1026                 1.0483                 1.0448
 Frc consts  --      1.4263                 1.3781                 1.3754
 IR Inten    --      2.1516                 3.0301                 5.3991

                     40                     41                     42
                      A                      A                      A
 Frequencies --   1528.9472              1889.8490              3031.7059
 Red. masses --      1.1076                12.8228                 1.0553
 Frc consts  --      1.5256                26.9828                 5.7147
 IR Inten    --      1.9637               220.9110                82.4936

                     43                     44                     45
                      A                      A                      A
 Frequencies --   3036.6952              3056.2999              3065.7670
 Red. masses --      1.0358                 1.0664                 1.0793
 Frc consts  --      5.6275                 5.8690                 5.9766
 IR Inten    --     18.2421                10.4490                 9.6426

                     46                     47                     48
                      A                      A                      A
 Frequencies --   3076.1210              3078.7276              3104.0570
 Red. masses --      1.0969                 1.0730                 1.1011
 Frc consts  --      6.1152                 5.9921                 6.2511
 IR Inten    --     20.8188                28.1529                27.6060

                     49                     50                     51
                      A                      A                      A
 Frequencies --   3114.6886              3118.6491              3136.9907
 Red. masses --      1.1043                 1.1014                 1.1092
 Frc consts  --      6.3121                 6.3114                 6.4311
 IR Inten    --      7.8482                19.6225                16.5535

 - Thermochemistry -
 -------------------
 Temperature   298.150 Kelvin.  Pressure   1.00000 Atm.
 Atom     1 has atomic number  6 and mass  12.00000

 Molecular mass:   126.06808 amu.
 Principal axes and moments of inertia in atomic units:
                           1         2         3
     Eigenvalues --   827.353141088.659171470.54610
           X            0.99645  -0.08308  -0.01360
           Y            0.08354   0.99582   0.03700
           Z            0.01047  -0.03801   0.99922
 This molecule is an asymmetric top.
 Rotational symmetry number  1.
 Warning -- assumption of classical behavior for rotation
           may cause significant error
 Rotational temperatures (Kelvin)      0.10469     0.07956     0.05890
 Rotational constants (GHZ):           2.18134     1.65777     1.22726
 Zero-point vibrational energy     414507.7 (Joules/Mol)
                                   99.06971 (Kcal/Mol)
 Warning -- explicit consideration of  11 degrees of freedom as
           vibrations may cause significant error
 Vibrational temperatures:     80.53   116.59   225.94   266.37   313.14
          (Kelvin)            374.67   440.46   597.09   724.28   731.87
                              853.08  1014.14  1106.19  1170.43  1227.48
                             1246.70  1251.40  1391.83  1399.84  1457.68
                             1474.55  1498.67  1542.52  1630.57  1637.99
                             1678.45  1697.81  1720.90  1735.58  1767.79
                             1801.19  1848.63  1934.47  1949.02  2033.64
                             2072.88  2131.85  2149.13  2150.64  2199.81
                             2719.07  4361.94  4369.12  4397.33  4410.95
                             4425.85  4429.60  4466.04  4481.34  4487.03
                             4513.42

 Zero-point correction=                           0.157878 (Hartree/Particle)
 Thermal correction to Energy=                    0.166713
 Thermal correction to Enthalpy=                  0.167657
 Thermal correction to Gibbs Free Energy=         0.123784
 Sum of electronic and zero-point Energies=           -423.016970
 Sum of electronic and thermal Energies=              -423.008135
 Sum of electronic and thermal Enthalpies=            -423.007191
 Sum of electronic and thermal Free Energies=         -423.051064

                     E (Thermal)             CV                S
                      KCal/Mol        Cal/Mol-Kelvin    Cal/Mol-Kelvin
 Total                  104.614             32.452             92.338
 Electronic               0.000              0.000              0.000
 Translational            0.889              2.981             40.409
 Rotational               0.889              2.981             28.673
 Vibrational            102.836             26.491             23.257
 Vibration     1          0.596              1.975              4.595
 Vibration     2          0.600              1.962              3.866
 Vibration     3          0.621              1.895              2.585
 Vibration     4          0.631              1.860              2.276
 Vibration     5          0.646              1.814              1.979
 Vibration     6          0.668              1.745              1.659
 Vibration     7          0.697              1.662              1.383
 Vibration     8          0.778              1.438              0.909
 Vibration     9          0.859              1.242              0.650
 Vibration    10          0.864              1.231              0.637
 Vibration    11          0.950              1.047              0.462

 Optimization completed.
    -- Stationary point found.
 Normal termination of Gaussian 09 at Tue Jan 28 02:46:24 2020.
