 Gaussian 09, Revision D.01,
 Gaussian 09:  ES64L-G09RevD.01 24-Apr-2013

 -----------------------------
 # b3lyp 6-31G(2df,p) opt Freq
 -----------------------------

 -----
 titel
 -----
 Symbolic Z-matrix:
 Charge =  0 Multiplicity = 1

 SCF Done:  E(RB3LYP) =  -423.146427565     A.U. after   13 cycles
 Optimization completed.
    -- Stationary point found.
 Normal termination of Gaussian 09 at Mon Jan 27 13:54:04 2020.

 ----------------------------------------------------------------------
 #N Geom=AllCheck Guess=TCheck SCRF=Check GenChk RB3LYP/6-31G(2df,p) Fr
 eq
 ----------------------------------------------------------------------

 Structure from the checkpoint file:  "/scratch/puck/g09_b6fb51b3-f07c-4422-868e-c1b89e92b4d7/Gau-170665.chk"
 -----
 titel
 -----
 Charge =  0 Multiplicity = 1

                         Standard orientation:
 ---------------------------------------------------------------------
 Center     Atomic      Atomic             Coordinates (Angstroms)
 Number     Number       Type             X           Y           Z
 ---------------------------------------------------------------------
      1          8           0       -3.901967   -0.130486    0.155915
      2          6           0       -2.830102    0.022613   -0.366013
      3          6           0       -1.509843   -0.104302    0.372244
      4          8           0       -0.467832    0.031231   -0.572130
      5          6           0        0.797947    0.040298   -0.017379
      6          6           0        1.354862    1.255167    0.672225
      7          6           0        2.038148    0.715539   -0.569166
      8          6           0        2.882339   -0.509964   -0.194573
      9          6           0        1.593205   -1.221120    0.343920
     10          1           0       -2.715947    0.279474   -1.442304
     11          1           0       -1.458150    0.678871    1.145386
     12          1           0       -1.480346   -1.075748    0.888674
     13          1           0        0.779607    2.160728    0.506868
     14          1           0        1.838619    1.191507    1.644992
     15          1           0        2.152313    1.323016   -1.458057
     16          1           0        3.311515   -1.024374   -1.056455
     17          1           0        3.674903   -0.328398    0.537956
     18          1           0        1.309371   -2.072143   -0.279427
     19          1           0        1.587170   -1.528271    1.394533
 ---------------------------------------------------------------------

 SCF Done:  E(RB3LYP) =  -423.146427565     A.U. after    1 cycles

 The electronic state is 1-A.
 Alpha  occ. eigenvalues --  -19.16230 -19.14501 -10.27603 -10.24568 -10.24488
 Alpha  occ. eigenvalues --  -10.19607 -10.19231 -10.19106 -10.19006  -1.06213
 Alpha  occ. eigenvalues --   -1.04965  -0.89646  -0.74589  -0.73306  -0.65151
 Alpha  occ. eigenvalues --   -0.59631  -0.58553  -0.54581  -0.52652  -0.48756
 Alpha  occ. eigenvalues --   -0.47442  -0.45879  -0.45488  -0.43546  -0.40780
 Alpha  occ. eigenvalues --   -0.39159  -0.38502  -0.37187  -0.34540  -0.33752
 Alpha  occ. eigenvalues --   -0.31066  -0.26615  -0.26029  -0.25228
 Alpha virt. eigenvalues --   -0.02849   0.08962   0.09272   0.11051   0.11537
 Alpha virt. eigenvalues --    0.12754   0.12836   0.14559   0.15175   0.15537
 Alpha virt. eigenvalues --    0.16454   0.18030   0.18924   0.19765   0.22590

 Mulliken charges:
               1
     1  O   -0.237868
     2  C    0.136668
     3  C   -0.176678
     4  O   -0.293136
     5  C    0.465374
     6  C   -0.333426
     7  C   -0.136331
     8  C   -0.217098
     9  C   -0.301451
    10  H    0.097762
    11  H    0.128365
    12  H    0.129883
    13  H    0.115992
    14  H    0.105201
    15  H    0.097481
    16  H    0.109601
    17  H    0.100769
    18  H    0.112633
    19  H    0.096258
 Sum of Mulliken charges =   0.00000

 Dipole moment (field-independent basis, Debye):
    X=              2.6758    Y=              0.1198    Z=              0.1834  Tot=              2.6848
 Quadrupole moment (field-independent basis, Debye-Ang):
   XX=            -65.6442   YY=            -51.4373   ZZ=            -52.2982
   XY=             -1.4567   XZ=              1.3440   YZ=             -0.0067

  Exact polarizability:  94.706  -0.229  68.108  -2.626  -0.823  68.154
 Approx polarizability: 122.164   2.618  99.041  -6.975  -1.040 105.883

                      1                      2                      3
                      A                      A                      A
 Frequencies --     44.9251                60.4688                91.9804
 Red. masses --      5.3631                 2.1478                 2.7784
 Frc consts  --      0.0064                 0.0046                 0.0138
 IR Inten    --      0.8122                 8.0700                 5.2642

                      4                      5                      6
                      A                      A                      A
 Frequencies --    117.4598               234.6458               298.1991
 Red. masses --      3.4546                 2.1448                 4.2631
 Frc consts  --      0.0281                 0.0696                 0.2234
 IR Inten    --      2.5746                 2.0304                 2.1189

                      7                      8                      9
                      A                      A                      A
 Frequencies --    362.8218               381.9336               439.1411
 Red. masses --      3.5617                 2.7470                 2.3325
 Frc consts  --      0.2762                 0.2361                 0.2650
 IR Inten    --      5.7175                 6.4272                 4.6692

                     10                     11                     12
                      A                      A                      A
 Frequencies --    550.3347               662.6174               722.2394
 Red. masses --      4.1830                 3.1099                 3.5735
 Frc consts  --      0.7464                 0.8045                 1.0983
 IR Inten    --     11.4206                 4.1976                 7.3502

                     13                     14                     15
                      A                      A                      A
 Frequencies --    738.5219               788.9404               862.0146
 Red. masses --      1.2797                 1.2737                 1.8410
 Frc consts  --      0.4112                 0.4671                 0.8060
 IR Inten    --      0.3345                 0.3301                 4.3233

                     16                     17                     18
                      A                      A                      A
 Frequencies --    912.8943               921.7807               958.5019
 Red. masses --      2.4900                 2.2129                 2.2872
 Frc consts  --      1.2226                 1.1078                 1.2380
 IR Inten    --      3.7405                 4.7448                16.5977

                     19                     20                     21
                      A                      A                      A
 Frequencies --    964.1418              1018.3575              1022.3974
 Red. masses --      1.5752                 1.6376                 1.3838
 Frc consts  --      0.8627                 1.0006                 0.8522
 IR Inten    --      1.9386                 2.9025                 2.5247

                     22                     23                     24
                      A                      A                      A
 Frequencies --   1054.5849              1070.2200              1096.1595
 Red. masses --      2.9321                 1.6458                 2.5503
 Frc consts  --      1.9213                 1.1106                 1.8055
 IR Inten    --     31.8871                 4.9972                46.6862

                     25                     26                     27
                      A                      A                      A
 Frequencies --   1113.5240              1122.5539              1153.6389
 Red. masses --      1.8900                 2.8062                 1.6702
 Frc consts  --      1.3807                 2.0835                 1.3097
 IR Inten    --      6.3638                28.2266                29.6200

                     28                     29                     30
                      A                      A                      A
 Frequencies --   1217.1385              1222.5595              1231.1323
 Red. masses --      1.2298                 1.5892                 1.4735
 Frc consts  --      1.0734                 1.3995                 1.3159
 IR Inten    --      5.4833                 7.3698                 1.3382

                     31                     32                     33
                      A                      A                      A
 Frequencies --   1235.4506              1265.0933              1303.6334
 Red. masses --      1.1598                 2.1171                 2.2506
 Frc consts  --      1.0430                 1.9963                 2.2535
 IR Inten    --      2.0381                52.0544                51.0823

                     34                     35                     36
                      A                      A                      A
 Frequencies --   1344.2309              1387.4893              1411.1339
 Red. masses --      1.4330                 1.8582                 1.3522
 Frc consts  --      1.5256                 2.1077                 1.5865
 IR Inten    --     43.2555                74.9086                11.5180

                     37                     38                     39
                      A                      A                      A
 Frequencies --   1474.9655              1478.8316              1481.8418
 Red. masses --      1.1421                 1.1101                 1.1449
 Frc consts  --      1.4639                 1.4303                 1.4812
 IR Inten    --     23.0604                 0.8384                 0.7488

                     40                     41                     42
                      A                      A                      A
 Frequencies --   1511.8856              1845.1463              2899.0046
 Red. masses --      1.2743                10.6663                 1.0844
 Frc consts  --      1.7162                21.3956                 5.3697
 IR Inten    --     13.3607               174.7228                80.3424

                     43                     44                     45
                      A                      A                      A
 Frequencies --   2982.3971              3018.5612              3047.0231
 Red. masses --      1.0557                 1.1026                 1.0601
 Frc consts  --      5.5325                 5.9193                 5.7988
 IR Inten    --     32.5905                17.1959                42.1497

                     46                     47                     48
                      A                      A                      A
 Frequencies --   3056.0079              3100.5026              3102.7598
 Red. masses --      1.0625                 1.0573                 1.1048
 Frc consts  --      5.8464                 5.9883                 6.2668
 IR Inten    --     51.2114                15.7131                 1.0911

                     49                     50                     51
                      A                      A                      A
 Frequencies --   3120.5414              3192.4908              3202.9116
 Red. masses --      1.1044                 1.0984                 1.1075
 Frc consts  --      6.3362                 6.5957                 6.6939
 IR Inten    --     36.6058                 6.9093                14.6856

 - Thermochemistry -
 -------------------
 Temperature   298.150 Kelvin.  Pressure   1.00000 Atm.
 Atom     1 has atomic number  8 and mass  15.99491

 Molecular mass:   126.06808 amu.
 Principal axes and moments of inertia in atomic units:
                           1         2         3
     Eigenvalues --   345.658472363.378452474.43266
           X            0.99998  -0.00560   0.00280
           Y            0.00561   0.99998  -0.00373
           Z           -0.00278   0.00375   0.99999
 This molecule is an asymmetric top.
 Rotational symmetry number  1.
 Rotational temperatures (Kelvin)      0.25058     0.03665     0.03500
 Rotational constants (GHZ):           5.22117     0.76363     0.72936
 Zero-point vibrational energy     412099.9 (Joules/Mol)
                                   98.49425 (Kcal/Mol)
 Warning -- explicit consideration of  10 degrees of freedom as
           vibrations may cause significant error
 Vibrational temperatures:     64.64    87.00   132.34   169.00   337.60
          (Kelvin)            429.04   522.02   549.52   631.83   791.81
                              953.36  1039.14  1062.57  1135.11  1240.25
                             1313.45  1326.24  1379.07  1387.18  1465.19
                             1471.00  1517.31  1539.81  1577.13  1602.11
                             1615.10  1659.83  1751.19  1758.99  1771.32
                             1777.54  1820.18  1875.64  1934.05  1996.29
                             2030.30  2122.14  2127.71  2132.04  2175.26
                             2654.75  4171.02  4291.00  4343.03  4383.98
                             4396.91  4460.93  4464.17  4489.76  4593.28
                             4608.27

 Zero-point correction=                           0.156961 (Hartree/Particle)
 Thermal correction to Energy=                    0.165981
 Thermal correction to Enthalpy=                  0.166926
 Thermal correction to Gibbs Free Energy=         0.121723
 Sum of electronic and zero-point Energies=           -422.989467
 Sum of electronic and thermal Energies=              -422.980446
 Sum of electronic and thermal Enthalpies=            -422.979502
 Sum of electronic and thermal Free Energies=         -423.024705

                     E (Thermal)             CV                S
                      KCal/Mol        Cal/Mol-Kelvin    Cal/Mol-Kelvin
 Total                  104.155             32.448             95.137
 Electronic               0.000              0.000              0.000
 Translational            0.889              2.981             40.409
 Rotational               0.889              2.981             29.093
 Vibrational            102.377             26.487             25.636
 Vibration     1          0.595              1.979              5.029
 Vibration     2          0.597              1.973              4.442
 Vibration     3          0.602              1.955              3.618
 Vibration     4          0.608              1.935              3.142
 Vibration     5          0.654              1.788              1.843
 Vibration     6          0.691              1.677              1.427
 Vibration     7          0.737              1.549              1.110
 Vibration     8          0.751              1.509              1.031
 Vibration     9          0.799              1.385              0.829
 Vibration    10          0.906              1.139              0.543

 Optimization completed.
    -- Stationary point found.
 Normal termination of Gaussian 09 at Mon Jan 27 14:30:30 2020.
