 Gaussian 09, Revision D.01,
 Gaussian 09:  ES64L-G09RevD.01 24-Apr-2013

 -----------------------------
 # b3lyp 6-31G(2df,p) opt Freq
 -----------------------------

 -----
 titel
 -----
 Symbolic Z-matrix:
 Charge =  0 Multiplicity = 1

 SCF Done:  E(RB3LYP) =  -423.125468894     A.U. after   13 cycles
 Optimization completed.
    -- Stationary point found.
 Normal termination of Gaussian 09 at Tue Jan 28 01:52:35 2020.

 ----------------------------------------------------------------------
 #N Geom=AllCheck Guess=TCheck SCRF=Check GenChk RB3LYP/6-31G(2df,p) Fr
 eq
 ----------------------------------------------------------------------

 Structure from the checkpoint file:  "/scratch/puck/g09_af4744f4-6526-48e7-a2eb-7e758a80229b/Gau-37998.chk"
 -----
 titel
 -----
 Charge =  0 Multiplicity = 1

                         Standard orientation:
 ---------------------------------------------------------------------
 Center     Atomic      Atomic             Coordinates (Angstroms)
 Number     Number       Type             X           Y           Z
 ---------------------------------------------------------------------
      1          6           0       -2.655432   -0.164192   -0.721309
      2          6           0       -1.585611    0.478738    0.123878
      3          8           0       -1.164425   -0.243427    1.295464
      4          6           0       -0.226964   -0.057336    0.253803
      5          6           0        0.445047   -1.168356   -0.529666
      6          8           0        1.541327   -1.643383    0.270155
      7          6           0        1.728050   -0.440105   -0.471617
      8          6           0        1.124723    0.710584    0.363473
      9          6           0        1.154569    2.089552   -0.283373
     10          1           0       -3.634526   -0.054905   -0.243642
     11          1           0       -2.707436    0.312629   -1.706170
     12          1           0       -2.461226   -1.231146   -0.855795
     13          1           0       -1.714606    1.548821    0.297169
     14          1           0        0.040736   -1.848503   -1.269992
     15          1           0        2.536782   -0.403043   -1.192271
     16          1           0        1.525328    0.734666    1.380809
     17          1           0        0.761511    2.060065   -1.305462
     18          1           0        0.554175    2.805016    0.286946
     19          1           0        2.177753    2.477579   -0.327675
 ---------------------------------------------------------------------

 SCF Done:  E(RB3LYP) =  -423.125468894     A.U. after    1 cycles

 The electronic state is 1-A.
 Alpha  occ. eigenvalues --  -19.15430 -19.14886 -10.24344 -10.24128 -10.24107
 Alpha  occ. eigenvalues --  -10.23941 -10.19871 -10.18792 -10.18707  -1.08591
 Alpha  occ. eigenvalues --   -1.06665  -0.81103  -0.74970  -0.71508  -0.64562
 Alpha  occ. eigenvalues --   -0.62275  -0.60685  -0.53726  -0.52285  -0.48532
 Alpha  occ. eigenvalues --   -0.46357  -0.44814  -0.42501  -0.41982  -0.40784
 Alpha  occ. eigenvalues --   -0.39033  -0.38739  -0.37725  -0.35473  -0.33861
 Alpha  occ. eigenvalues --   -0.30206  -0.28895  -0.27442  -0.24692
 Alpha virt. eigenvalues --    0.07284   0.08257   0.09857   0.10807   0.12147
 Alpha virt. eigenvalues --    0.12509   0.13661   0.14235   0.15436   0.15857
 Alpha virt. eigenvalues --    0.17035   0.17707   0.18467   0.18911   0.20823

 Mulliken charges:
               1
     1  C   -0.418680
     2  C   -0.025726
     3  O   -0.290665
     4  C    0.426923
     5  C   -0.091586
     6  O   -0.243810
     7  C    0.027751
     8  C   -0.122858
     9  C   -0.413250
    10  H    0.133254
    11  H    0.122480
    12  H    0.128620
    13  H    0.090651
    14  H    0.106326
    15  H    0.106633
    16  H    0.100006
    17  H    0.115400
    18  H    0.127429
    19  H    0.121100
 Sum of Mulliken charges =   0.00000

 Dipole moment (field-independent basis, Debye):
    X=             -0.3804    Y=              1.9977    Z=             -2.6612  Tot=              3.3493
 Quadrupole moment (field-independent basis, Debye-Ang):
   XX=            -50.7231   YY=            -54.2505   ZZ=            -54.9657
   XY=              2.2938   XZ=              0.8372   YZ=              3.1111

  Exact polarizability:  88.936   1.047  74.507   1.047   2.334  62.506
 Approx polarizability: 120.929  -1.071 107.905   0.726  -1.566 100.205

                      1                      2                      3
                      A                      A                      A
 Frequencies --    111.5991               140.7130               183.3693
 Red. masses --      2.8738                 2.9382                 1.9723
 Frc consts  --      0.0211                 0.0343                 0.0391
 IR Inten    --      1.0750                 0.1415                 0.9905

                      4                      5                      6
                      A                      A                      A
 Frequencies --    197.0261               232.9772               261.7331
 Red. masses --      1.3644                 1.2038                 2.5048
 Frc consts  --      0.0312                 0.0385                 0.1011
 IR Inten    --      0.1637                 0.0266                 0.4108

                      7                      8                      9
                      A                      A                      A
 Frequencies --    271.3345               435.1214               455.8476
 Red. masses --      3.5242                 3.6394                 3.4555
 Frc consts  --      0.1529                 0.4060                 0.4231
 IR Inten    --      0.9770                 3.2052                 3.1239

                     10                     11                     12
                      A                      A                      A
 Frequencies --    510.9615               538.9124               613.0585
 Red. masses --      3.9278                 4.1301                 5.0635
 Frc consts  --      0.6042                 0.7067                 1.1213
 IR Inten    --      5.3558                 2.5789                24.2599

                     13                     14                     15
                      A                      A                      A
 Frequencies --    784.1460               801.9696               852.0831
 Red. masses --      3.0976                 3.0597                 3.2971
 Frc consts  --      1.1222                 1.1594                 1.4104
 IR Inten    --      1.0284                11.7750                17.0315

                     16                     17                     18
                      A                      A                      A
 Frequencies --    856.5656               870.3707               935.1850
 Red. masses --      1.9221                 2.2802                 1.8207
 Frc consts  --      0.8309                 1.0177                 0.9382
 IR Inten    --     14.9295                 5.8281                 8.1744

                     19                     20                     21
                      A                      A                      A
 Frequencies --    942.4282               987.5637              1017.3098
 Red. masses --      2.3645                 1.9280                 2.5018
 Frc consts  --      1.2373                 1.1078                 1.5255
 IR Inten    --     17.9807                22.7012                17.0359

                     22                     23                     24
                      A                      A                      A
 Frequencies --   1038.6194              1072.9925              1104.7627
 Red. masses --      1.3119                 2.0373                 1.7685
 Frc consts  --      0.8338                 1.3819                 1.2718
 IR Inten    --      2.3284                 7.8988                 1.9621

                     25                     26                     27
                      A                      A                      A
 Frequencies --   1116.5983              1121.7380              1137.0417
 Red. masses --      2.3515                 2.1811                 2.1831
 Frc consts  --      1.7274                 1.6170                 1.6630
 IR Inten    --     13.0724                 2.6975                 5.0094

                     28                     29                     30
                      A                      A                      A
 Frequencies --   1184.3573              1222.7924              1235.4024
 Red. masses --      1.5352                 1.4551                 1.5294
 Frc consts  --      1.2688                 1.2819                 1.3753
 IR Inten    --      8.3755                 2.1878                 5.3460

                     31                     32                     33
                      A                      A                      A
 Frequencies --   1258.0141              1346.6125              1357.1992
 Red. masses --      1.4835                 1.6926                 1.7867
 Frc consts  --      1.3833                 1.8084                 1.9390
 IR Inten    --      1.0090                 2.9859                16.0400

                     34                     35                     36
                      A                      A                      A
 Frequencies --   1366.4667              1408.4924              1412.2581
 Red. masses --      2.3744                 1.2651                 1.2536
 Frc consts  --      2.6121                 1.4787                 1.4731
 IR Inten    --     10.1610                 4.3192                 3.0623

                     37                     38                     39
                      A                      A                      A
 Frequencies --   1472.8250              1490.8230              1496.1393
 Red. masses --      1.2459                 1.0998                 1.0476
 Frc consts  --      1.5923                 1.4402                 1.3816
 IR Inten    --      6.6623                 6.4585                 3.8724

                     40                     41                     42
                      A                      A                      A
 Frequencies --   1499.6608              1522.1505              3030.9691
 Red. masses --      1.0468                 2.5369                 1.0352
 Frc consts  --      1.3871                 3.4631                 5.6030
 IR Inten    --      5.6316                15.1151                20.6244

                     43                     44                     45
                      A                      A                      A
 Frequencies --   3037.4349              3072.7831              3089.1199
 Red. masses --      1.0361                 1.0864                 1.0873
 Frc consts  --      5.6318                 6.0437                 6.1134
 IR Inten    --     17.8219                 5.8875                18.3274

                     46                     47                     48
                      A                      A                      A
 Frequencies --   3099.2674              3101.2670              3105.1256
 Red. masses --      1.1004                 1.1007                 1.1006
 Frc consts  --      6.2274                 6.2373                 6.2521
 IR Inten    --     31.1131                14.4952                26.3449

                     49                     50                     51
                      A                      A                      A
 Frequencies --   3127.2414              3181.7200              3195.8176
 Red. masses --      1.1008                 1.0878                 1.1010
 Frc consts  --      6.3426                 6.4883                 6.6253
 IR Inten    --     25.8692                13.2568                16.2246

 - Thermochemistry -
 -------------------
 Temperature   298.150 Kelvin.  Pressure   1.00000 Atm.
 Atom     1 has atomic number  6 and mass  12.00000

 Molecular mass:   126.06808 amu.
 Principal axes and moments of inertia in atomic units:
                           1         2         3
     Eigenvalues --   730.102871226.376101569.51930
           X            0.99815   0.05728   0.02056
           Y           -0.05771   0.99811   0.02112
           Z           -0.01931  -0.02227   0.99957
 This molecule is an asymmetric top.
 Rotational symmetry number  1.
 Warning -- assumption of classical behavior for rotation
           may cause significant error
 Rotational temperatures (Kelvin)      0.11863     0.07063     0.05518
 Rotational constants (GHZ):           2.47190     1.47161     1.14987
 Zero-point vibrational energy     412149.2 (Joules/Mol)
                                   98.50603 (Kcal/Mol)
 Warning -- explicit consideration of  12 degrees of freedom as
           vibrations may cause significant error
 Vibrational temperatures:    160.57   202.45   263.83   283.48   335.20
          (Kelvin)            376.58   390.39   626.04   655.86   735.16
                              775.37   882.05  1128.21  1153.85  1225.96
                             1232.41  1252.27  1345.52  1355.94  1420.88
                             1463.68  1494.34  1543.80  1589.51  1606.53
                             1613.93  1635.95  1704.02  1759.32  1777.47
                             1810.00  1937.47  1952.70  1966.04  2026.50
                             2031.92  2119.06  2144.96  2152.61  2157.67
                             2190.03  4360.88  4370.19  4421.04  4444.55
                             4459.15  4462.03  4467.58  4499.40  4577.78
                             4598.06

 Zero-point correction=                           0.156979 (Hartree/Particle)
 Thermal correction to Energy=                    0.165671
 Thermal correction to Enthalpy=                  0.166615
 Thermal correction to Gibbs Free Energy=         0.123852
 Sum of electronic and zero-point Energies=           -422.968490
 Sum of electronic and thermal Energies=              -422.959798
 Sum of electronic and thermal Enthalpies=            -422.958854
 Sum of electronic and thermal Free Energies=         -423.001617

                     E (Thermal)             CV                S
                      KCal/Mol        Cal/Mol-Kelvin    Cal/Mol-Kelvin
 Total                  103.960             32.967             90.002
 Electronic               0.000              0.000              0.000
 Translational            0.889              2.981             40.409
 Rotational               0.889              2.981             28.732
 Vibrational            102.183             27.005             20.862
 Vibration     1          0.607              1.940              3.241
 Vibration     2          0.615              1.913              2.794
 Vibration     3          0.631              1.862              2.294
 Vibration     4          0.636              1.844              2.161
 Vibration     5          0.654              1.790              1.856
 Vibration     6          0.669              1.743              1.650
 Vibration     7          0.675              1.726              1.588
 Vibration     8          0.796              1.394              0.842
 Vibration     9          0.814              1.348              0.778
 Vibration    10          0.866              1.226              0.631
 Vibration    11          0.894              1.164              0.568
 Vibration    12          0.972              1.004              0.428

 Optimization completed.
    -- Stationary point found.
 Normal termination of Gaussian 09 at Tue Jan 28 02:40:24 2020.
