 Gaussian 09, Revision D.01,
 Gaussian 09:  ES64L-G09RevD.01 24-Apr-2013

 -----------------------------
 # b3lyp 6-31G(2df,p) opt Freq
 -----------------------------

 -----
 titel
 -----
 Symbolic Z-matrix:
 Charge =  0 Multiplicity = 1

 SCF Done:  E(RB3LYP) =  -423.173319454     A.U. after   14 cycles
 Optimization completed.
    -- Stationary point found.
 Normal termination of Gaussian 09 at Tue Jan 28 14:12:33 2020.

 ----------------------------------------------------------------------
 #N Geom=AllCheck Guess=TCheck SCRF=Check GenChk RB3LYP/6-31G(2df,p) Fr
 eq
 ----------------------------------------------------------------------

 Structure from the checkpoint file:  "/scratch/puck/g09_ad8d0232-fd57-4461-823a-1cc7c37caf97/Gau-44145.chk"
 -----
 titel
 -----
 Charge =  0 Multiplicity = 1

                         Standard orientation:
 ---------------------------------------------------------------------
 Center     Atomic      Atomic             Coordinates (Angstroms)
 Number     Number       Type             X           Y           Z
 ---------------------------------------------------------------------
      1          8           0       -3.422849    0.007658   -0.079823
      2          6           0       -2.095678    0.080687    0.413843
      3          6           0       -1.060219   -0.386547   -0.620395
      4          6           0        0.342282   -0.334048   -0.080607
      5          6           0        0.953382   -1.440099    0.779295
      6          6           0        1.666117   -1.063542   -0.468922
      7          6           0        2.496300    0.203066   -0.212029
      8          6           0        1.152734    0.914959    0.099631
      9          8           0        0.844751    2.070644    0.206727
     10          1           0       -3.523223    0.686903   -0.754147
     11          1           0       -1.840461    1.094541    0.752987
     12          1           0       -2.064900   -0.575880    1.290042
     13          1           0       -1.310619   -1.405013   -0.938855
     14          1           0       -1.133369    0.255464   -1.508794
     15          1           0        1.390159   -1.215823    1.749137
     16          1           0        0.382130   -2.363297    0.754316
     17          1           0        1.798259   -1.739075   -1.303693
     18          1           0        3.245464    0.147412    0.583352
     19          1           0        2.951832    0.641496   -1.104468
 ---------------------------------------------------------------------

 SCF Done:  E(RB3LYP) =  -423.173319454     A.U. after    1 cycles

 The electronic state is 1-A.
 Alpha  occ. eigenvalues --  -19.13322 -19.13137 -10.26871 -10.22559 -10.21576
 Alpha  occ. eigenvalues --  -10.21169 -10.20956 -10.19830 -10.19197  -1.04128
 Alpha  occ. eigenvalues --   -1.01419  -0.91258  -0.76849  -0.72551  -0.65153
 Alpha  occ. eigenvalues --   -0.61723  -0.59398  -0.50900  -0.50537  -0.49428
 Alpha  occ. eigenvalues --   -0.46899  -0.45371  -0.44522  -0.41483  -0.40544
 Alpha  occ. eigenvalues --   -0.39151  -0.38459  -0.37127  -0.35951  -0.32705
 Alpha  occ. eigenvalues --   -0.31007  -0.28747  -0.25846  -0.24176
 Alpha virt. eigenvalues --   -0.01003   0.07745   0.09034   0.09401   0.10795
 Alpha virt. eigenvalues --    0.11475   0.13235   0.14133   0.15860   0.16234
 Alpha virt. eigenvalues --    0.17487   0.18198   0.19863   0.20596   0.22128

 Mulliken charges:
               1
     1  O   -0.417350
     2  C   -0.063842
     3  C   -0.339434
     4  C    0.247383
     5  C   -0.319182
     6  C   -0.121978
     7  C   -0.354024
     8  C    0.360526
     9  O   -0.322703
    10  H    0.283417
    11  H    0.117601
    12  H    0.111243
    13  H    0.108337
    14  H    0.099244
    15  H    0.121335
    16  H    0.127501
    17  H    0.108686
    18  H    0.120865
    19  H    0.132375
 Sum of Mulliken charges =   0.00000

 Dipole moment (field-independent basis, Debye):
    X=              1.4175    Y=             -2.0489    Z=             -1.0535  Tot=              2.7050
 Quadrupole moment (field-independent basis, Debye-Ang):
   XX=            -56.2302   YY=            -57.5778   ZZ=            -50.3174
   XY=             -5.2819   XZ=              2.2300   YZ=             -1.9690

  Exact polarizability:  87.948  -1.450  77.591   0.260  -1.834  64.018
 Approx polarizability: 114.388  -5.006 126.145  -0.487  -1.472  98.506

                      1                      2                      3
                      A                      A                      A
 Frequencies --     62.0156                91.6473               112.3050
 Red. masses --      3.6502                 2.4003                 3.2174
 Frc consts  --      0.0083                 0.0119                 0.0239
 IR Inten    --      2.9614                 7.6570                 0.2078

                      4                      5                      6
                      A                      A                      A
 Frequencies --    154.4447               252.3773               294.1408
 Red. masses --      3.7648                 2.9484                 1.1390
 Frc consts  --      0.0529                 0.1106                 0.0581
 IR Inten    --      2.3975                 2.8167                89.8380

                      7                      8                      9
                      A                      A                      A
 Frequencies --    333.3789               361.1122               417.6239
 Red. masses --      3.8452                 3.7817                 2.0027
 Frc consts  --      0.2518                 0.2905                 0.2058
 IR Inten    --      7.6435                13.9727                 0.4652

                     10                     11                     12
                      A                      A                      A
 Frequencies --    496.0720               562.9765               664.4260
 Red. masses --      3.5807                 2.9321                 3.6332
 Frc consts  --      0.5192                 0.5475                 0.9450
 IR Inten    --      6.0702                 3.6566                 2.3629

                     13                     14                     15
                      A                      A                      A
 Frequencies --    728.8282               775.7774               810.1727
 Red. masses --      2.7807                 1.2854                 5.0821
 Frc consts  --      0.8703                 0.4558                 1.9654
 IR Inten    --      1.6143                 8.5730                19.4920

                     16                     17                     18
                      A                      A                      A
 Frequencies --    843.8486               886.1129               942.7060
 Red. masses --      2.1142                 2.0999                 1.7273
 Frc consts  --      0.8870                 0.9714                 0.9044
 IR Inten    --      2.9054                 7.7201                 8.3276

                     19                     20                     21
                      A                      A                      A
 Frequencies --    976.8088               988.0998              1017.5830
 Red. masses --      1.3753                 1.6715                 1.7967
 Frc consts  --      0.7732                 0.9615                 1.0962
 IR Inten    --     21.8510                15.5236                 4.1053

                     22                     23                     24
                      A                      A                      A
 Frequencies --   1030.8990              1052.7942              1070.8999
 Red. masses --      2.8841                 1.7325                 3.3552
 Frc consts  --      1.8059                 1.1314                 2.2671
 IR Inten    --     21.9341                 7.5447               133.8457

                     25                     26                     27
                      A                      A                      A
 Frequencies --   1085.9516              1101.4904              1135.9956
 Red. masses --      1.8277                 1.5926                 1.3689
 Frc consts  --      1.2699                 1.1385                 1.0408
 IR Inten    --      2.6759                 4.0337                 2.2138

                     28                     29                     30
                      A                      A                      A
 Frequencies --   1181.0188              1214.6118              1245.6826
 Red. masses --      1.4370                 1.5490                 1.6505
 Frc consts  --      1.1809                 1.3464                 1.5089
 IR Inten    --     12.1850                 3.8257                 2.7053

                     31                     32                     33
                      A                      A                      A
 Frequencies --   1289.2241              1309.7352              1331.7664
 Red. masses --      1.9839                 1.6192                 1.2993
 Frc consts  --      1.9428                 1.6365                 1.3577
 IR Inten    --      1.2984                 6.0999                 5.3444

                     34                     35                     36
                      A                      A                      A
 Frequencies --   1378.6938              1403.9048              1415.4405
 Red. masses --      2.7230                 1.3436                 1.3030
 Frc consts  --      3.0495                 1.5602                 1.5381
 IR Inten    --      1.6181                26.8406                26.4774

                     37                     38                     39
                      A                      A                      A
 Frequencies --   1458.6795              1480.0042              1498.2560
 Red. masses --      1.1053                 1.1133                 1.2323
 Frc consts  --      1.3856                 1.4368                 1.6298
 IR Inten    --      2.5188                 2.1842                 1.1003

                     40                     41                     42
                      A                      A                      A
 Frequencies --   1513.9557              1865.8026              3009.4258
 Red. masses --      1.0902                12.5666                 1.0625
 Frc consts  --      1.4723                25.7750                 5.6693
 IR Inten    --      1.4100               300.1767                10.8624

                     43                     44                     45
                      A                      A                      A
 Frequencies --   3015.7721              3055.7707              3060.3549
 Red. masses --      1.0657                 1.0589                 1.0936
 Frc consts  --      5.7107                 5.8256                 6.0346
 IR Inten    --     44.5838                22.4909                 7.8600

                     46                     47                     48
                      A                      A                      A
 Frequencies --   3082.8985              3110.7993              3111.6212
 Red. masses --      1.1038                 1.0896                 1.0706
 Frc consts  --      6.1807                 6.2125                 6.1071
 IR Inten    --     38.5334                 1.3977                25.4307

                     49                     50                     51
                      A                      A                      A
 Frequencies --   3195.8611              3208.6995              3817.9361
 Red. masses --      1.1125                 1.0960                 1.0662
 Frc consts  --      6.6946                 6.6487                 9.1569
 IR Inten    --      4.1633                 8.2502                20.4271

 - Thermochemistry -
 -------------------
 Temperature   298.150 Kelvin.  Pressure   1.00000 Atm.
 Atom     1 has atomic number  8 and mass  15.99491

 Molecular mass:   126.06808 amu.
 Principal axes and moments of inertia in atomic units:
                           1         2         3
     Eigenvalues --   593.862591715.764322087.95568
           X            0.99987  -0.01585   0.00153
           Y            0.01588   0.99973  -0.01671
           Z           -0.00126   0.01673   0.99986
 This molecule is an asymmetric top.
 Rotational symmetry number  1.
 Warning -- assumption of classical behavior for rotation
           may cause significant error
 Rotational temperatures (Kelvin)      0.14585     0.05048     0.04148
 Rotational constants (GHZ):           3.03899     1.05186     0.86436
 Zero-point vibrational energy     415740.6 (Joules/Mol)
                                   99.36439 (Kcal/Mol)
 Warning -- explicit consideration of  11 degrees of freedom as
           vibrations may cause significant error
 Vibrational temperatures:     89.23   131.86   161.58   222.21   363.11
          (Kelvin)            423.20   479.66   519.56   600.87   713.74
                              810.00   955.96  1048.62  1116.17  1165.66
                             1214.11  1274.92  1356.34  1405.41  1421.65
                             1464.07  1483.23  1514.73  1540.78  1562.44
                             1584.80  1634.44  1699.22  1747.55  1792.26
                             1854.90  1884.41  1916.11  1983.63  2019.90
                             2036.50  2098.71  2129.39  2155.65  2178.24
                             2684.47  4329.89  4339.02  4396.57  4403.16
                             4435.60  4475.74  4476.92  4598.13  4616.60
                             5493.15

 Zero-point correction=                           0.158347 (Hartree/Particle)
 Thermal correction to Energy=                    0.167390
 Thermal correction to Enthalpy=                  0.168334
 Thermal correction to Gibbs Free Energy=         0.123900
 Sum of electronic and zero-point Energies=           -423.014972
 Sum of electronic and thermal Energies=              -423.005930
 Sum of electronic and thermal Enthalpies=            -423.004986
 Sum of electronic and thermal Free Energies=         -423.049419

                     E (Thermal)             CV                S
                      KCal/Mol        Cal/Mol-Kelvin    Cal/Mol-Kelvin
 Total                  105.039             33.297             93.518
 Electronic               0.000              0.000              0.000
 Translational            0.889              2.981             40.409
 Rotational               0.889              2.981             29.144
 Vibrational            103.261             27.336             23.966
 Vibration     1          0.597              1.972              4.392
 Vibration     2          0.602              1.955              3.625
 Vibration     3          0.607              1.939              3.229
 Vibration     4          0.620              1.898              2.617
 Vibration     5          0.664              1.759              1.714
 Vibration     6          0.689              1.685              1.450
 Vibration     7          0.715              1.609              1.244
 Vibration     8          0.735              1.552              1.117
 Vibration     9          0.781              1.432              0.900
 Vibration    10          0.852              1.259              0.668
 Vibration    11          0.919              1.111              0.518

 Optimization completed.
    -- Stationary point found.
 Normal termination of Gaussian 09 at Tue Jan 28 14:57:47 2020.
