 Gaussian 09, Revision D.01,
 Gaussian 09:  ES64L-G09RevD.01 24-Apr-2013

 -----------------------------
 # b3lyp 6-31G(2df,p) opt Freq
 -----------------------------

 -----
 titel
 -----
 Symbolic Z-matrix:
 Charge =  0 Multiplicity = 1

 SCF Done:  E(RB3LYP) =  -423.191478653     A.U. after   14 cycles
 Optimization completed.
    -- Stationary point found.
 Normal termination of Gaussian 09 at Mon Jan 27 16:25:44 2020.

 ----------------------------------------------------------------------
 #N Geom=AllCheck Guess=TCheck SCRF=Check GenChk RB3LYP/6-31G(2df,p) Fr
 eq
 ----------------------------------------------------------------------

 Structure from the checkpoint file:  "/scratch/puck/g09_edaf6f1d-bbab-48a6-ac14-13df5b3ae410/Gau-57302.chk"
 -----
 titel
 -----
 Charge =  0 Multiplicity = 1

                         Standard orientation:
 ---------------------------------------------------------------------
 Center     Atomic      Atomic             Coordinates (Angstroms)
 Number     Number       Type             X           Y           Z
 ---------------------------------------------------------------------
      1          6           0       -0.271852    1.888404   -0.000105
      2          6           0       -0.676521    0.426210    0.000010
      3          6           0       -2.149651    0.185960    0.000093
      4          8           0       -2.674827   -0.903119   -0.000030
      5          6           0        0.100230   -0.664401   -0.746544
      6          6           0        1.524505   -0.357127   -1.164232
      7          8           0        2.188845    0.132900   -0.000057
      8          6           0        1.524579   -0.356950    1.164234
      9          6           0        0.100279   -0.664292    0.746684
     10          1           0       -0.670121    2.400867    0.882989
     11          1           0        0.811456    2.007449   -0.000137
     12          1           0       -0.670155    2.400737   -0.883261
     13          1           0       -2.765663    1.113445   -0.000024
     14          1           0       -0.482500   -1.386907   -1.305034
     15          1           0        2.000351   -1.278458   -1.535701
     16          1           0        1.618457    0.411212   -1.939312
     17          1           0        2.000450   -1.278223    1.535818
     18          1           0        1.618576    0.411508    1.939190
     19          1           0       -0.482413   -1.386714    1.305323
 ---------------------------------------------------------------------

 SCF Done:  E(RB3LYP) =  -423.191478653     A.U. after    1 cycles

 The electronic state is 1-A.
 Alpha  occ. eigenvalues --  -19.14589 -19.13601 -10.26854 -10.23764 -10.23762
 Alpha  occ. eigenvalues --  -10.21163 -10.20565 -10.20536 -10.18520  -1.04561
 Alpha  occ. eigenvalues --   -1.04158  -0.87837  -0.74574  -0.74231  -0.66456
 Alpha  occ. eigenvalues --   -0.62031  -0.58563  -0.53167  -0.52773  -0.48273
 Alpha  occ. eigenvalues --   -0.45936  -0.45081  -0.44502  -0.42367  -0.40870
 Alpha  occ. eigenvalues --   -0.40708  -0.38957  -0.38713  -0.36575  -0.32969
 Alpha  occ. eigenvalues --   -0.30304  -0.28237  -0.26249  -0.24899
 Alpha virt. eigenvalues --   -0.02552   0.08419   0.10107   0.11419   0.12711
 Alpha virt. eigenvalues --    0.13308   0.14521   0.15086   0.15688   0.16704
 Alpha virt. eigenvalues --    0.17244   0.17924   0.19142   0.19247   0.20998

 Mulliken charges:
               1
     1  C   -0.506092
     2  C    0.206392
     3  C    0.096329
     4  O   -0.275013
     5  C   -0.087541
     6  C   -0.113790
     7  O   -0.254935
     8  C   -0.113789
     9  C   -0.087541
    10  H    0.121435
    11  H    0.156747
    12  H    0.121436
    13  H    0.074677
    14  H    0.113765
    15  H    0.104037
    16  H    0.113044
    17  H    0.104036
    18  H    0.113043
    19  H    0.113760
 Sum of Mulliken charges =   0.00000

 Dipole moment (field-independent basis, Debye):
    X=              0.9013    Y=              0.9234    Z=              0.0002  Tot=              1.2903
 Quadrupole moment (field-independent basis, Debye-Ang):
   XX=            -63.3155   YY=            -52.8657   ZZ=            -49.5697
   XY=             -6.5132   XZ=             -0.0001   YZ=              0.0000

  Exact polarizability:  84.382  -4.324  75.278   0.001   0.000  68.806
 Approx polarizability: 117.111   0.047 114.935   0.002   0.002 104.886

                      1                      2                      3
                      A                      A                      A
 Frequencies --     94.5960               156.2734               192.5707
 Red. masses --      3.5153                 1.2370                 1.7259
 Frc consts  --      0.0185                 0.0178                 0.0377
 IR Inten    --     10.7442                 0.0087                 0.5087

                      4                      5                      6
                      A                      A                      A
 Frequencies --    197.8131               223.1834               237.8044
 Red. masses --      6.3197                 2.6231                 2.3723
 Frc consts  --      0.1457                 0.0770                 0.0790
 IR Inten    --     13.8350                 4.5817                 0.2495

                      7                      8                      9
                      A                      A                      A
 Frequencies --    269.9697               400.3760               435.0677
 Red. masses --      3.5887                 2.9645                 2.2527
 Frc consts  --      0.1541                 0.2800                 0.2512
 IR Inten    --      0.2238                 0.3223                 0.2529

                     10                     11                     12
                      A                      A                      A
 Frequencies --    619.2381               671.6437               687.6729
 Red. masses --      4.9145                 4.1996                 4.8660
 Frc consts  --      1.1103                 1.1162                 1.3558
 IR Inten    --     13.0953                 0.0715                 1.1609

                     13                     14                     15
                      A                      A                      A
 Frequencies --    766.1445               802.3835               889.4923
 Red. masses --      4.0149                 4.5071                 1.5576
 Frc consts  --      1.3885                 1.7097                 0.7261
 IR Inten    --      0.0210                 0.0168                 9.5423

                     16                     17                     18
                      A                      A                      A
 Frequencies --    918.8287               952.3145               983.3966
 Red. masses --      4.4405                 1.6970                 2.0392
 Frc consts  --      2.2088                 0.9068                 1.1619
 IR Inten    --     19.3551               101.8958                 3.9651

                     19                     20                     21
                      A                      A                      A
 Frequencies --   1000.6254              1010.1904              1028.2388
 Red. masses --      1.5366                 2.2045                 1.5466
 Frc consts  --      0.9064                 1.3255                 0.9634
 IR Inten    --      9.1215                10.4523                 0.0766

                     22                     23                     24
                      A                      A                      A
 Frequencies --   1048.8684              1105.3522              1109.1669
 Red. masses --      1.4407                 2.0928                 5.4356
 Frc consts  --      0.9338                 1.5065                 3.9399
 IR Inten    --      0.0003                37.5250                73.1627

                     25                     26                     27
                      A                      A                      A
 Frequencies --   1116.3889              1137.2203              1209.9397
 Red. masses --      1.6693                 1.4708                 1.9571
 Frc consts  --      1.2258                 1.1207                 1.6881
 IR Inten    --      0.4054                 1.1049                38.2506

                     28                     29                     30
                      A                      A                      A
 Frequencies --   1223.5810              1245.0544              1285.9109
 Red. masses --      1.0996                 1.2239                 2.2294
 Frc consts  --      0.9700                 1.1178                 2.1720
 IR Inten    --      6.9210                 2.4933                 1.3721

                     31                     32                     33
                      A                      A                      A
 Frequencies --   1305.5869              1353.8281              1366.1658
 Red. masses --      1.6127                 1.3469                 2.6840
 Frc consts  --      1.6196                 1.4545                 2.9515
 IR Inten    --      2.9061                 0.8850                 0.8761

                     34                     35                     36
                      A                      A                      A
 Frequencies --   1410.7581              1421.5391              1441.7734
 Red. masses --      1.5127                 1.2780                 1.4426
 Frc consts  --      1.7738                 1.5215                 1.7668
 IR Inten    --     20.8712                 8.5224                 3.5722

                     37                     38                     39
                      A                      A                      A
 Frequencies --   1496.8739              1505.5084              1516.4317
 Red. masses --      1.0595                 1.0639                 1.0631
 Frc consts  --      1.3987                 1.4208                 1.4403
 IR Inten    --     12.0590                 1.1728                 1.4559

                     40                     41                     42
                      A                      A                      A
 Frequencies --   1522.5546              1802.8324              2877.3592
 Red. masses --      1.0919                10.2912                 1.0829
 Frc consts  --      1.4913                19.7073                 5.2826
 IR Inten    --      0.0399               153.0985               129.7408

                     43                     44                     45
                      A                      A                      A
 Frequencies --   2979.4666              2984.8414              3032.0981
 Red. masses --      1.0688                 1.0711                 1.0407
 Frc consts  --      5.5900                 5.6227                 5.6372
 IR Inten    --     69.1621                77.3220                27.6429

                     46                     47                     48
                      A                      A                      A
 Frequencies --   3061.4016              3064.3677              3085.2970
 Red. masses --      1.0921                 1.0941                 1.1009
 Frc consts  --      6.0307                 6.0533                 6.1741
 IR Inten    --     30.3926                28.8611                20.9523

                     49                     50                     51
                      A                      A                      A
 Frequencies --   3149.4377              3189.3264              3195.4216
 Red. masses --      1.0964                 1.0883                 1.0931
 Frc consts  --      6.4076                 6.5225                 6.5761
 IR Inten    --      1.9898                 4.9105                 2.0996

 - Thermochemistry -
 -------------------
 Temperature   298.150 Kelvin.  Pressure   1.00000 Atm.
 Atom     1 has atomic number  6 and mass  12.00000

 Molecular mass:   126.06808 amu.
 Principal axes and moments of inertia in atomic units:
                           1         2         3
     Eigenvalues --   570.514401412.010631530.79357
           X            0.99956  -0.02957   0.00000
           Y            0.02957   0.99956  -0.00001
           Z            0.00000   0.00001   1.00000
 This molecule is an asymmetric top.
 Rotational symmetry number  1.
 Warning -- assumption of classical behavior for rotation
           may cause significant error
 Rotational temperatures (Kelvin)      0.15182     0.06134     0.05658
 Rotational constants (GHZ):           3.16336     1.27814     1.17896
 Zero-point vibrational energy     417390.1 (Joules/Mol)
                                   99.75863 (Kcal/Mol)
 Warning -- explicit consideration of  10 degrees of freedom as
           vibrations may cause significant error
 Vibrational temperatures:    136.10   224.84   277.07   284.61   321.11
          (Kelvin)            342.15   388.43   576.05   625.96   890.94
                              966.34   989.41  1102.31  1154.45  1279.78
                             1321.99  1370.17  1414.89  1439.67  1453.44
                             1479.40  1509.09  1590.35  1595.84  1606.23
                             1636.20  1740.83  1760.46  1791.35  1850.14
                             1878.45  1947.85  1965.61  2029.76  2045.28
                             2074.39  2153.66  2166.09  2181.80  2190.61
                             2593.87  4139.87  4286.78  4294.52  4362.51
                             4404.67  4408.94  4439.05  4531.33  4588.72
                             4597.49

 Zero-point correction=                           0.158975 (Hartree/Particle)
 Thermal correction to Energy=                    0.167500
 Thermal correction to Enthalpy=                  0.168444
 Thermal correction to Gibbs Free Energy=         0.125886
 Sum of electronic and zero-point Energies=           -423.032503
 Sum of electronic and thermal Energies=              -423.023979
 Sum of electronic and thermal Enthalpies=            -423.023035
 Sum of electronic and thermal Free Energies=         -423.065592

                     E (Thermal)             CV                S
                      KCal/Mol        Cal/Mol-Kelvin    Cal/Mol-Kelvin
 Total                  105.108             31.782             89.570
 Electronic               0.000              0.000              0.000
 Translational            0.889              2.981             40.409
 Rotational               0.889              2.981             28.602
 Vibrational            103.330             25.820             20.559
 Vibration     1          0.603              1.953              3.563
 Vibration     2          0.620              1.896              2.594
 Vibration     3          0.635              1.850              2.203
 Vibration     4          0.637              1.843              2.153
 Vibration     5          0.649              1.806              1.933
 Vibration     6          0.656              1.783              1.819
 Vibration     7          0.674              1.728              1.596
 Vibration     8          0.766              1.469              0.961
 Vibration     9          0.796              1.394              0.842
 Vibration    10          0.979              0.991              0.418

 Optimization completed.
    -- Stationary point found.
 Normal termination of Gaussian 09 at Mon Jan 27 17:10:25 2020.
