 Gaussian 09, Revision D.01,
 Gaussian 09:  ES64L-G09RevD.01 24-Apr-2013

 -----------------------------
 # b3lyp 6-31G(2df,p) opt Freq
 -----------------------------

 -----
 titel
 -----
 Symbolic Z-matrix:
 Charge =  0 Multiplicity = 1

 SCF Done:  E(RB3LYP) =  -423.119202560     A.U. after   14 cycles
 Optimization completed.
    -- Stationary point found.
 Normal termination of Gaussian 09 at Tue Jan 28 12:10:55 2020.

 ----------------------------------------------------------------------
 #N Geom=AllCheck Guess=TCheck SCRF=Check GenChk RB3LYP/6-31G(2df,p) Fr
 eq
 ----------------------------------------------------------------------

 Structure from the checkpoint file:  "/scratch/puck/g09_229b8246-4ef8-4fc8-94d1-df0469d7acf9/Gau-36767.chk"
 -----
 titel
 -----
 Charge =  0 Multiplicity = 1

                         Standard orientation:
 ---------------------------------------------------------------------
 Center     Atomic      Atomic             Coordinates (Angstroms)
 Number     Number       Type             X           Y           Z
 ---------------------------------------------------------------------
      1          6           0        3.306103   -0.506970   -0.396958
      2          8           0        1.969061   -0.510040    0.045619
      3          6           0        1.265277    0.656560   -0.312193
      4          6           0       -0.156272    0.567914    0.200266
      5          8           0       -0.857087    1.733323   -0.106471
      6          6           0       -0.469422   -0.153241    1.473513
      7          6           0       -0.888616   -0.768712    0.132215
      8          6           0       -2.257413   -0.740889   -0.279758
      9          6           0       -3.395528   -0.632917   -0.661523
     10          1           0        3.873965    0.332471    0.032980
     11          1           0        3.759952   -1.445861   -0.071448
     12          1           0        3.371197   -0.439932   -1.493993
     13          1           0        1.743100    1.552939    0.117917
     14          1           0        1.247119    0.788815   -1.406774
     15          1           0       -1.689020    1.481731   -0.530285
     16          1           0        0.336110   -0.654930    1.995560
     17          1           0       -1.256331    0.267392    2.087967
     18          1           0       -0.297336   -1.613289   -0.204554
     19          1           0       -4.409317   -0.586072   -0.973932
 ---------------------------------------------------------------------

 SCF Done:  E(RB3LYP) =  -423.119202560     A.U. after    1 cycles

 The electronic state is 1-A.
 Alpha  occ. eigenvalues --  -19.14996 -19.14107 -10.24795 -10.23199 -10.23078
 Alpha  occ. eigenvalues --  -10.21063 -10.18958 -10.18688 -10.17850  -1.04550
 Alpha  occ. eigenvalues --   -1.02975  -0.85824  -0.75697  -0.72943  -0.66088
 Alpha  occ. eigenvalues --   -0.63601  -0.57334  -0.54448  -0.51216  -0.50727
 Alpha  occ. eigenvalues --   -0.48248  -0.47432  -0.45447  -0.42020  -0.40487
 Alpha  occ. eigenvalues --   -0.38333  -0.37833  -0.35476  -0.33131  -0.31922
 Alpha  occ. eigenvalues --   -0.28655  -0.26514  -0.25002  -0.24441
 Alpha virt. eigenvalues --    0.04021   0.04502   0.08645   0.10510   0.12155
 Alpha virt. eigenvalues --    0.12657   0.12966   0.14114   0.15210   0.16455
 Alpha virt. eigenvalues --    0.16926   0.17493   0.18234   0.20074   0.22460

 Mulliken charges:
               1
     1  C   -0.224969
     2  O   -0.235511
     3  C   -0.114708
     4  C    0.366837
     5  O   -0.471587
     6  C   -0.329719
     7  C   -0.271077
     8  C    0.279862
     9  C   -0.419775
    10  H    0.109532
    11  H    0.129724
    12  H    0.108885
    13  H    0.102985
    14  H    0.095592
    15  H    0.289410
    16  H    0.132461
    17  H    0.125047
    18  H    0.128260
    19  H    0.198754
 Sum of Mulliken charges =   0.00000

 Dipole moment (field-independent basis, Debye):
    X=              0.8333    Y=             -0.4287    Z=             -0.6561  Tot=              1.1439
 Quadrupole moment (field-independent basis, Debye-Ang):
   XX=            -42.9789   YY=            -57.1652   ZZ=            -52.6242
   XY=             -0.8881   XZ=              0.7871   YZ=             -0.3547

  Exact polarizability: 109.616   1.903  65.506   8.875  -0.268  65.971
 Approx polarizability: 147.881   1.335  99.816  19.401  -1.523  99.320

                      1                      2                      3
                      A                      A                      A
 Frequencies --     67.7080                93.0885               121.1819
 Red. masses --      3.2007                 2.5246                 3.9136
 Frc consts  --      0.0086                 0.0129                 0.0339
 IR Inten    --      2.0242                 2.3087                 0.1119

                      4                      5                      6
                      A                      A                      A
 Frequencies --    152.3669               174.2521               225.2540
 Red. masses --      2.7338                 3.7052                 1.3366
 Frc consts  --      0.0374                 0.0663                 0.0400
 IR Inten    --      9.1237                 2.1503                50.2833

                      7                      8                      9
                      A                      A                      A
 Frequencies --    237.5396               307.8507               339.3014
 Red. masses --      1.2705                 2.7344                 2.7156
 Frc consts  --      0.0422                 0.1527                 0.1842
 IR Inten    --      1.8681                 3.6570                 3.8041

                     10                     11                     12
                      A                      A                      A
 Frequencies --    396.7909               429.6210               472.6648
 Red. masses --      4.7548                 3.6019                 3.8295
 Frc consts  --      0.4411                 0.3917                 0.5041
 IR Inten    --      4.3386                 4.1191                 0.3139

                     13                     14                     15
                      A                      A                      A
 Frequencies --    533.4884               587.9849               628.6251
 Red. masses --      3.5932                 1.2430                 3.4374
 Frc consts  --      0.6025                 0.2532                 0.8003
 IR Inten    --      2.1548                49.3714                 3.0130

                     16                     17                     18
                      A                      A                      A
 Frequencies --    660.2148               724.1484               791.0008
 Red. masses --      1.2291                 3.4641                 2.7045
 Frc consts  --      0.3157                 1.0703                 0.9970
 IR Inten    --     37.2387                 6.1323                 9.8569

                     19                     20                     21
                      A                      A                      A
 Frequencies --    861.6549               941.3239               989.4772
 Red. masses --      1.8181                 1.7750                 2.1755
 Frc consts  --      0.7953                 0.9267                 1.2549
 IR Inten    --      6.3042                11.3875                12.6850

                     22                     23                     24
                      A                      A                      A
 Frequencies --   1004.3994              1055.0642              1076.8240
 Red. masses --      4.3884                 1.3305                 2.4247
 Frc consts  --      2.6084                 0.8726                 1.6565
 IR Inten    --     39.2377                10.7558                 6.7786

                     25                     26                     27
                      A                      A                      A
 Frequencies --   1089.9441              1117.3031              1162.8326
 Red. masses --      1.6863                 1.3944                 4.0470
 Frc consts  --      1.1803                 1.0256                 3.2241
 IR Inten    --      3.7375                 2.4329               154.0521

                     28                     29                     30
                      A                      A                      A
 Frequencies --   1186.6138              1216.1882              1231.7504
 Red. masses --      1.2714                 1.7497                 1.8553
 Frc consts  --      1.0547                 1.5248                 1.6585
 IR Inten    --      4.1179                98.0508                22.3603

                     31                     32                     33
                      A                      A                      A
 Frequencies --   1248.9728              1297.8905              1354.1494
 Red. masses --      1.2146                 2.1189                 1.5464
 Frc consts  --      1.1163                 2.1030                 1.6708
 IR Inten    --     11.9284                25.5094                30.6721

                     34                     35                     36
                      A                      A                      A
 Frequencies --   1396.1169              1437.8877              1468.4780
 Red. masses --      1.3818                 1.6575                 1.6470
 Frc consts  --      1.5869                 2.0191                 2.0926
 IR Inten    --     41.4907                14.3398                31.1084

                     37                     38                     39
                      A                      A                      A
 Frequencies --   1483.2758              1486.5616              1503.6885
 Red. masses --      1.1748                 1.0517                 1.0664
 Frc consts  --      1.5229                 1.3694                 1.4207
 IR Inten    --      4.0009                 5.3069                10.9754

                     40                     41                     42
                      A                      A                      A
 Frequencies --   1524.8313              2222.5982              2957.9837
 Red. masses --      1.0872                 6.0612                 1.0521
 Frc consts  --      1.4893                17.6414                 5.4240
 IR Inten    --      0.4044                20.7730                34.4382

                     43                     44                     45
                      A                      A                      A
 Frequencies --   2978.1214              2989.8055              3023.0724
 Red. masses --      1.0382                 1.1057                 1.1035
 Frc consts  --      5.4254                 5.8235                 5.9418
 IR Inten    --     83.3025                52.9410                49.3874

                     46                     47                     48
                      A                      A                      A
 Frequencies --   3117.8782              3147.8668              3172.0390
 Red. masses --      1.0966                 1.0531                 1.0868
 Frc consts  --      6.2811                 6.1481                 6.4427
 IR Inten    --     26.1695                 4.5872                 0.5677

                     49                     50                     51
                      A                      A                      A
 Frequencies --   3248.2912              3502.7181              3737.4619
 Red. masses --      1.1185                 1.1584                 1.0663
 Frc consts  --      6.9537                 8.3740                 8.7754
 IR Inten    --      1.8210                89.0831                77.8244

 - Thermochemistry -
 -------------------
 Temperature   298.150 Kelvin.  Pressure   1.00000 Atm.
 Atom     1 has atomic number  6 and mass  12.00000

 Molecular mass:   126.06808 amu.
 Principal axes and moments of inertia in atomic units:
                           1         2         3
     Eigenvalues --   515.642901984.043832141.69609
           X            0.99996  -0.00488  -0.00744
           Y            0.00475   0.99984  -0.01739
           Z            0.00753   0.01736   0.99982
 This molecule is an asymmetric top.
 Rotational symmetry number  1.
 Warning -- assumption of classical behavior for rotation
           may cause significant error
 Rotational temperatures (Kelvin)      0.16797     0.04366     0.04044
 Rotational constants (GHZ):           3.49998     0.90963     0.84267
 Zero-point vibrational energy     407783.9 (Joules/Mol)
                                   97.46269 (Kcal/Mol)
 Warning -- explicit consideration of  14 degrees of freedom as
           vibrations may cause significant error
 Vibrational temperatures:     97.42   133.93   174.35   219.22   250.71
          (Kelvin)            324.09   341.77   442.93   488.18   570.89
                              618.13   680.06   767.57   845.98   904.45
                              949.90  1041.89  1138.07  1239.73  1354.35
                             1423.64  1445.10  1518.00  1549.31  1568.18
                             1607.55  1673.05  1707.27  1749.82  1772.21
                             1796.99  1867.37  1948.32  2008.70  2068.80
                             2112.81  2134.10  2138.83  2163.47  2193.89
                             3197.82  4255.87  4284.85  4301.66  4349.52
                             4485.93  4529.07  4563.85  4673.56  5039.62
                             5377.37

 Zero-point correction=                           0.155317 (Hartree/Particle)
 Thermal correction to Energy=                    0.165538
 Thermal correction to Enthalpy=                  0.166482
 Thermal correction to Gibbs Free Energy=         0.120021
 Sum of electronic and zero-point Energies=           -422.963886
 Sum of electronic and thermal Energies=              -422.953665
 Sum of electronic and thermal Enthalpies=            -422.952721
 Sum of electronic and thermal Free Energies=         -422.999181

                     E (Thermal)             CV                S
                      KCal/Mol        Cal/Mol-Kelvin    Cal/Mol-Kelvin
 Total                  103.877             36.987             97.784
 Electronic               0.000              0.000              0.000
 Translational            0.889              2.981             40.409
 Rotational               0.889              2.981             29.173
 Vibrational            102.099             31.025             28.203
 Vibration     1          0.598              1.970              4.219
 Vibration     2          0.602              1.954              3.594
 Vibration     3          0.609              1.932              3.081
 Vibration     4          0.619              1.900              2.642
 Vibration     5          0.627              1.874              2.389
 Vibration     6          0.650              1.803              1.916
 Vibration     7          0.656              1.783              1.821
 Vibration     8          0.698              1.659              1.374
 Vibration     9          0.719              1.597              1.215
 Vibration    10          0.763              1.477              0.975
 Vibration    11          0.791              1.406              0.860
 Vibration    12          0.830              1.311              0.730
 Vibration    13          0.888              1.176              0.579
 Vibration    14          0.945              1.057              0.471

 Optimization completed.
    -- Stationary point found.
 Normal termination of Gaussian 09 at Tue Jan 28 12:51:12 2020.
