 Gaussian 09, Revision D.01,
 Gaussian 09:  ES64L-G09RevD.01 24-Apr-2013

 -----------------------------
 # b3lyp 6-31G(2df,p) opt Freq
 -----------------------------

 -----
 titel
 -----
 Symbolic Z-matrix:
 Charge =  0 Multiplicity = 1

 SCF Done:  E(RB3LYP) =  -423.106029128     A.U. after   12 cycles
 Optimization completed.
    -- Stationary point found.
 Normal termination of Gaussian 09 at Tue Jan 28 12:46:45 2020.

 ----------------------------------------------------------------------
 #N Geom=AllCheck Guess=TCheck SCRF=Check GenChk RB3LYP/6-31G(2df,p) Fr
 eq
 ----------------------------------------------------------------------

 Structure from the checkpoint file:  "/scratch/puck/g09_fa3eeae6-ed8d-4eec-bec7-f97e85b09612/Gau-10922.chk"
 -----
 titel
 -----
 Charge =  0 Multiplicity = 1

                         Standard orientation:
 ---------------------------------------------------------------------
 Center     Atomic      Atomic             Coordinates (Angstroms)
 Number     Number       Type             X           Y           Z
 ---------------------------------------------------------------------
      1          6           0        2.870192   -0.137843   -0.087497
      2          8           0        1.640944    0.502517    0.171873
      3          6           0        0.550852   -0.065056   -0.511298
      4          6           0        0.020443   -1.366380    0.097512
      5          6           0       -1.500432   -1.261407   -0.085011
      6          8           0       -1.780445   -0.065789   -0.815628
      7          6           0       -0.766076    0.577446    0.016452
      8          6           0       -0.926345    2.050347    0.201830
      9          6           0       -0.863547   -0.594344    1.077304
     10          1           0        3.102226   -0.146578   -1.163788
     11          1           0        3.645983    0.425903    0.436264
     12          1           0        2.880870   -1.175812    0.276082
     13          1           0        0.708376   -0.028055   -1.600169
     14          1           0        0.526500   -2.311098    0.248123
     15          1           0       -2.171307   -2.105484   -0.174797
     16          1           0       -0.947124    2.547120   -0.774316
     17          1           0       -1.857765    2.281393    0.725832
     18          1           0       -0.081755    2.443995    0.773043
     19          1           0       -1.000519   -0.641786    2.148003
 ---------------------------------------------------------------------

 SCF Done:  E(RB3LYP) =  -423.106029128     A.U. after    1 cycles

 The electronic state is 1-A.
 Alpha  occ. eigenvalues --  -19.14282 -19.13191 -10.24389 -10.23903 -10.23151
 Alpha  occ. eigenvalues --  -10.22552 -10.19232 -10.19145 -10.17663  -1.06194
 Alpha  occ. eigenvalues --   -1.03268  -0.85153  -0.76116  -0.70979  -0.65624
 Alpha  occ. eigenvalues --   -0.62455  -0.56171  -0.53715  -0.50131  -0.49459
 Alpha  occ. eigenvalues --   -0.47206  -0.46060  -0.43933  -0.41515  -0.40825
 Alpha  occ. eigenvalues --   -0.39466  -0.37673  -0.36768  -0.33596  -0.31954
 Alpha  occ. eigenvalues --   -0.29263  -0.26352  -0.25906  -0.22576
 Alpha virt. eigenvalues --    0.08681   0.09226   0.10173   0.11446   0.13112
 Alpha virt. eigenvalues --    0.14257   0.14615   0.14839   0.15828   0.15941
 Alpha virt. eigenvalues --    0.17464   0.17699   0.19356   0.19909   0.21461

 Mulliken charges:
               1
     1  C   -0.234327
     2  O   -0.254024
     3  C    0.114367
     4  C   -0.166984
     5  C    0.089012
     6  O   -0.333370
     7  C    0.387496
     8  C   -0.522758
     9  C   -0.189406
    10  H    0.106478
    11  H    0.127257
    12  H    0.107212
    13  H    0.065219
    14  H    0.091095
    15  H    0.109828
    16  H    0.131668
    17  H    0.127729
    18  H    0.143003
    19  H    0.100506
 Sum of Mulliken charges =   0.00000

 Dipole moment (field-independent basis, Debye):
    X=              1.1747    Y=             -1.0046    Z=              0.7918  Tot=              1.7367
 Quadrupole moment (field-independent basis, Debye-Ang):
   XX=            -52.3941   YY=            -49.6464   ZZ=            -53.6410
   XY=             -0.3265   XZ=             -3.3631   YZ=             -0.4748

  Exact polarizability:  83.024   0.315  77.214  -1.549  -0.480  64.820
 Approx polarizability: 111.615   0.146 109.227   1.372   0.895 103.133

                      1                      2                      3
                      A                      A                      A
 Frequencies --     84.6895               156.5416               169.7347
 Red. masses --      2.5752                 2.1612                 1.4588
 Frc consts  --      0.0109                 0.0312                 0.0248
 IR Inten    --      1.6266                 1.5758                 0.3392

                      4                      5                      6
                      A                      A                      A
 Frequencies --    199.5604               243.0646               275.2159
 Red. masses --      1.0896                 2.4692                 2.7139
 Frc consts  --      0.0256                 0.0860                 0.1211
 IR Inten    --      0.3696                 4.2314                 1.2302

                      7                      8                      9
                      A                      A                      A
 Frequencies --    329.9813               437.7527               516.1546
 Red. masses --      3.1068                 4.3497                 4.5272
 Frc consts  --      0.1993                 0.4911                 0.7106
 IR Inten    --      2.1764                 2.0840                 3.7706

                     10                     11                     12
                      A                      A                      A
 Frequencies --    566.1164               655.4937               770.2155
 Red. masses --      4.4280                 3.4716                 1.5961
 Frc consts  --      0.8361                 0.8788                 0.5579
 IR Inten    --      5.3200                 0.9762                 3.6474

                     13                     14                     15
                      A                      A                      A
 Frequencies --    783.3794               799.2290               813.9338
 Red. masses --      3.5536                 2.0065                 1.9471
 Frc consts  --      1.2849                 0.7551                 0.7600
 IR Inten    --      0.5802                15.6503                 8.1484

                     16                     17                     18
                      A                      A                      A
 Frequencies --    859.3825               912.7341               950.3121
 Red. masses --      3.1996                 2.3748                 1.5090
 Frc consts  --      1.3923                 1.1656                 0.8029
 IR Inten    --     18.9581                13.7653                 4.7000

                     19                     20                     21
                      A                      A                      A
 Frequencies --    960.5443               995.1297              1013.3547
 Red. masses --      1.9855                 3.7166                 2.4827
 Frc consts  --      1.0793                 2.1685                 1.5021
 IR Inten    --     22.2360                37.8817                11.9005

                     22                     23                     24
                      A                      A                      A
 Frequencies --   1029.8730              1053.0806              1078.9559
 Red. masses --      1.5892                 2.9675                 2.3430
 Frc consts  --      0.9931                 1.9389                 1.6071
 IR Inten    --      3.4518                 5.0723                 2.6903

                     25                     26                     27
                      A                      A                      A
 Frequencies --   1117.9211              1144.9725              1150.7143
 Red. masses --      1.7854                 1.9770                 3.0345
 Frc consts  --      1.3147                 1.5270                 2.3674
 IR Inten    --      6.6176                 4.0538               157.3031

                     28                     29                     30
                      A                      A                      A
 Frequencies --   1183.0222              1191.5152              1223.3240
 Red. masses --      1.2962                 2.3370                 1.7842
 Frc consts  --      1.0688                 1.9549                 1.5732
 IR Inten    --      2.6999                34.9275                34.7506

                     31                     32                     33
                      A                      A                      A
 Frequencies --   1242.3161              1281.7537              1343.4345
 Red. masses --      1.8307                 1.6198                 1.9757
 Frc consts  --      1.6647                 1.5679                 2.1009
 IR Inten    --     30.7340                 1.7429                 8.9648

                     34                     35                     36
                      A                      A                      A
 Frequencies --   1363.4685              1371.8261              1417.7333
 Red. masses --      2.6841                 1.4915                 1.8987
 Frc consts  --      2.9399                 1.6538                 2.2485
 IR Inten    --     16.8607                31.5677                21.6630

                     37                     38                     39
                      A                      A                      A
 Frequencies --   1478.9756              1481.3813              1485.3847
 Red. masses --      1.0897                 1.0894                 1.0491
 Frc consts  --      1.4044                 1.4085                 1.3638
 IR Inten    --      1.6242                 6.6440                 3.3039

                     40                     41                     42
                      A                      A                      A
 Frequencies --   1487.8391              1507.6745              2977.7072
 Red. masses --      1.0725                 1.0566                 1.0408
 Frc consts  --      1.3988                 1.4151                 5.4373
 IR Inten    --      2.1853                 7.3125                46.4339

                     43                     44                     45
                      A                      A                      A
 Frequencies --   2990.7249              3028.3461              3041.7038
 Red. masses --      1.0792                 1.1023                 1.0359
 Frc consts  --      5.6875                 5.9561                 5.6467
 IR Inten    --     80.7378                49.3358                15.0952

                     46                     47                     48
                      A                      A                      A
 Frequencies --   3110.9279              3114.3708              3131.1907
 Red. masses --      1.0999                 1.0969                 1.1014
 Frc consts  --      6.2714                 6.2682                 6.3621
 IR Inten    --     12.7222                29.5183                 8.6987

                     49                     50                     51
                      A                      A                      A
 Frequencies --   3198.8169              3204.7366              3222.6092
 Red. masses --      1.0914                 1.0901                 1.1048
 Frc consts  --      6.5797                 6.5965                 6.7599
 IR Inten    --      9.4418                16.8785                12.6476

 - Thermochemistry -
 -------------------
 Temperature   298.150 Kelvin.  Pressure   1.00000 Atm.
 Atom     1 has atomic number  6 and mass  12.00000

 Molecular mass:   126.06808 amu.
 Principal axes and moments of inertia in atomic units:
                           1         2         3
     Eigenvalues --   620.048751184.190211521.65149
           X            0.99932  -0.03205  -0.01826
           Y            0.03209   0.99948   0.00177
           Z            0.01819  -0.00235   0.99983
 This molecule is an asymmetric top.
 Rotational symmetry number  1.
 Warning -- assumption of classical behavior for rotation
           may cause significant error
 Rotational temperatures (Kelvin)      0.13969     0.07314     0.05692
 Rotational constants (GHZ):           2.91064     1.52403     1.18604
 Zero-point vibrational energy     413601.8 (Joules/Mol)
                                   98.85320 (Kcal/Mol)
 Warning -- explicit consideration of  10 degrees of freedom as
           vibrations may cause significant error
 Vibrational temperatures:    121.85   225.23   244.21   287.12   349.72
          (Kelvin)            395.97   474.77   629.83   742.63   814.51
                              943.11  1108.17  1127.11  1149.91  1171.07
                             1236.46  1313.22  1367.29  1382.01  1431.77
                             1457.99  1481.76  1515.15  1552.37  1608.44
                             1647.36  1655.62  1702.10  1714.32  1760.09
                             1787.41  1844.16  1932.90  1961.72  1973.75
                             2039.80  2127.91  2131.37  2137.13  2140.67
                             2169.20  4284.25  4302.98  4357.11  4376.33
                             4475.93  4480.88  4505.08  4602.38  4610.90
                             4636.61

 Zero-point correction=                           0.157533 (Hartree/Particle)
 Thermal correction to Energy=                    0.165952
 Thermal correction to Enthalpy=                  0.166896
 Thermal correction to Gibbs Free Energy=         0.124575
 Sum of electronic and zero-point Energies=           -422.948497
 Sum of electronic and thermal Energies=              -422.940077
 Sum of electronic and thermal Enthalpies=            -422.939133
 Sum of electronic and thermal Free Energies=         -422.981454

                     E (Thermal)             CV                S
                      KCal/Mol        Cal/Mol-Kelvin    Cal/Mol-Kelvin
 Total                  104.136             32.096             89.071
 Electronic               0.000              0.000              0.000
 Translational            0.889              2.981             40.409
 Rotational               0.889              2.981             28.504
 Vibrational            102.359             26.134             20.159
 Vibration     1          0.601              1.960              3.779
 Vibration     2          0.620              1.895              2.591
 Vibration     3          0.625              1.880              2.438
 Vibration     4          0.638              1.840              2.137
 Vibration     5          0.659              1.774              1.780
 Vibration     6          0.677              1.719              1.563
 Vibration     7          0.713              1.616              1.260
 Vibration     8          0.798              1.388              0.834
 Vibration     9          0.871              1.214              0.619
 Vibration    10          0.922              1.105              0.512

 Optimization completed.
    -- Stationary point found.
 Normal termination of Gaussian 09 at Tue Jan 28 14:46:37 2020.
