 Gaussian 09, Revision D.01,
 Gaussian 09:  ES64L-G09RevD.01 24-Apr-2013

 -----------------------------
 # b3lyp 6-31G(2df,p) opt Freq
 -----------------------------

 -----
 titel
 -----
 Symbolic Z-matrix:
 Charge =  0 Multiplicity = 1

 SCF Done:  E(RB3LYP) =  -423.222938920     A.U. after   14 cycles
 Optimization completed.
    -- Stationary point found.
 Normal termination of Gaussian 09 at Tue Jan 28 12:09:14 2020.

 ----------------------------------------------------------------------
 #N Geom=AllCheck Guess=TCheck SCRF=Check GenChk RB3LYP/6-31G(2df,p) Fr
 eq
 ----------------------------------------------------------------------

 Structure from the checkpoint file:  "/scratch/puck/g09_44906c01-7b3d-448e-a31e-b057f1f06ab1/Gau-128773.chk"
 -----
 titel
 -----
 Charge =  0 Multiplicity = 1

                         Standard orientation:
 ---------------------------------------------------------------------
 Center     Atomic      Atomic             Coordinates (Angstroms)
 Number     Number       Type             X           Y           Z
 ---------------------------------------------------------------------
      1          6           0       -0.868046    1.951342   -0.399205
      2          6           0       -0.102585    0.974874    0.511791
      3          6           0        1.429212    1.033406    0.311156
      4          6           0        1.856906   -0.383028   -0.098944
      5          8           0        2.978944   -0.738475   -0.376948
      6          6           0        0.635871   -1.217108   -0.070777
      7          6           0       -0.439902   -0.492505    0.273567
      8          6           0       -1.826515   -1.047027    0.457580
      9          8           0       -2.784904   -0.495738   -0.440755
     10          1           0       -0.625946    1.764614   -1.451749
     11          1           0       -1.947422    1.847802   -0.279764
     12          1           0       -0.581455    2.982099   -0.168177
     13          1           0       -0.364111    1.217326    1.551287
     14          1           0        1.726755    1.745036   -0.465230
     15          1           0        1.967201    1.317762    1.220811
     16          1           0        0.653575   -2.279255   -0.286074
     17          1           0       -1.799182   -2.143652    0.386194
     18          1           0       -2.193084   -0.792537    1.459441
     19          1           0       -2.498301   -0.705213   -1.336125
 ---------------------------------------------------------------------

 SCF Done:  E(RB3LYP) =  -423.222938920     A.U. after    1 cycles

 The electronic state is 1-A.
 Alpha  occ. eigenvalues --  -19.15441 -19.11796 -10.26019 -10.24823 -10.21603
 Alpha  occ. eigenvalues --  -10.20675 -10.19265 -10.18760 -10.18198  -1.03360
 Alpha  occ. eigenvalues --   -1.02812  -0.86032  -0.76045  -0.73237  -0.68468
 Alpha  occ. eigenvalues --   -0.62941  -0.56594  -0.53624  -0.50336  -0.48447
 Alpha  occ. eigenvalues --   -0.46910  -0.44778  -0.42852  -0.41826  -0.41090
 Alpha  occ. eigenvalues --   -0.39532  -0.37502  -0.35891  -0.35226  -0.34921
 Alpha  occ. eigenvalues --   -0.34376  -0.28777  -0.27107  -0.23638
 Alpha virt. eigenvalues --   -0.05002   0.05263   0.07530   0.09456   0.11438
 Alpha virt. eigenvalues --    0.12755   0.13861   0.14759   0.15891   0.16633
 Alpha virt. eigenvalues --    0.16802   0.18228   0.19424   0.20625   0.21783

 Mulliken charges:
               1
     1  C   -0.403589
     2  C   -0.079591
     3  C   -0.353727
     4  C    0.393778
     5  O   -0.332545
     6  C   -0.299502
     7  C    0.293993
     8  C   -0.167993
     9  O   -0.399306
    10  H    0.111324
    11  H    0.142281
    12  H    0.116655
    13  H    0.089241
    14  H    0.129810
    15  H    0.132370
    16  H    0.109966
    17  H    0.104872
    18  H    0.123681
    19  H    0.288281
 Sum of Mulliken charges =   0.00000

 Dipole moment (field-independent basis, Debye):
    X=             -2.4321    Y=              0.4164    Z=              0.3849  Tot=              2.4973
 Quadrupole moment (field-independent basis, Debye-Ang):
   XX=            -69.7317   YY=            -50.5525   ZZ=            -49.6135
   XY=              5.2003   XZ=              2.8953   YZ=              0.7481

  Exact polarizability:  99.529  -4.381  80.432  -4.201   2.648  59.594
 Approx polarizability: 156.149 -16.189 113.914 -12.920   7.416  94.828

                      1                      2                      3
                      A                      A                      A
 Frequencies --     42.7324                61.3705               150.8817
 Red. masses --      2.7246                 3.7642                 3.7964
 Frc consts  --      0.0029                 0.0084                 0.0509
 IR Inten    --      0.4834                 6.9039                 0.7282

                      4                      5                      6
                      A                      A                      A
 Frequencies --    221.5661               269.2179               290.9100
 Red. masses --      3.1412                 1.4290                 1.4587
 Frc consts  --      0.0909                 0.0610                 0.0727
 IR Inten    --      0.8806                18.5253                16.7045

                      7                      8                      9
                      A                      A                      A
 Frequencies --    313.6330               343.9285               374.6631
 Red. masses --      3.2184                 2.3323                 1.4395
 Frc consts  --      0.1865                 0.1625                 0.1190
 IR Inten    --      0.3473                 3.0666               101.2751

                     10                     11                     12
                      A                      A                      A
 Frequencies --    494.2401               530.4466               576.1002
 Red. masses --      2.8748                 3.6271                 3.3258
 Frc consts  --      0.4137                 0.6013                 0.6503
 IR Inten    --     13.0169                 1.4596                 1.5550

                     13                     14                     15
                      A                      A                      A
 Frequencies --    630.2601               714.3311               772.8160
 Red. masses --      3.8151                 4.7041                 2.5998
 Frc consts  --      0.8929                 1.4143                 0.9148
 IR Inten    --      2.5025                 9.6163                 5.0367

                     16                     17                     18
                      A                      A                      A
 Frequencies --    847.6090               885.4881               920.5949
 Red. masses --      3.1859                 1.4656                 2.0525
 Frc consts  --      1.3486                 0.6771                 1.0249
 IR Inten    --      7.1139                 5.5669                19.4865

                     19                     20                     21
                      A                      A                      A
 Frequencies --    938.0548               972.9136              1033.2005
 Red. masses --      1.7672                 1.5299                 2.5138
 Frc consts  --      0.9162                 0.8532                 1.5811
 IR Inten    --      7.5984                13.0047                21.7331

                     22                     23                     24
                      A                      A                      A
 Frequencies --   1058.1034              1076.0824              1113.3752
 Red. masses --      2.7040                 2.0574                 1.9403
 Frc consts  --      1.7836                 1.4037                 1.4171
 IR Inten    --     26.3931                23.6147                 2.3455

                     25                     26                     27
                      A                      A                      A
 Frequencies --   1144.8548              1184.2069              1201.2704
 Red. masses --      1.9845                 1.3881                 1.5505
 Frc consts  --      1.5325                 1.1469                 1.3182
 IR Inten    --     56.0281                15.0952                23.0285

                     28                     29                     30
                      A                      A                      A
 Frequencies --   1208.0827              1259.1068              1301.7008
 Red. masses --      1.4984                 1.6151                 1.7666
 Frc consts  --      1.2885                 1.5086                 1.7636
 IR Inten    --      8.0951                 1.9128                27.8130

                     31                     32                     33
                      A                      A                      A
 Frequencies --   1331.3280              1338.7247              1377.8207
 Red. masses --      1.3968                 2.2289                 1.2587
 Frc consts  --      1.4587                 2.3535                 1.4079
 IR Inten    --      0.7575                 4.3894                 0.2222

                     34                     35                     36
                      A                      A                      A
 Frequencies --   1412.0562              1415.0314              1454.1436
 Red. masses --      1.2175                 1.2261                 1.0887
 Frc consts  --      1.4303                 1.4465                 1.3564
 IR Inten    --      2.5822                57.3973                 6.7173

                     37                     38                     39
                      A                      A                      A
 Frequencies --   1495.0557              1497.8405              1506.1150
 Red. masses --      1.0514                 1.0802                 1.0529
 Frc consts  --      1.3847                 1.4279                 1.4072
 IR Inten    --      6.2333                 2.6523                 3.1407

                     40                     41                     42
                      A                      A                      A
 Frequencies --   1671.6451              1812.9603              3001.8501
 Red. masses --      7.9302                12.4147                 1.0647
 Frc consts  --     13.0564                24.0416                 5.6528
 IR Inten    --     31.5624               311.0660                42.1130

                     43                     44                     45
                      A                      A                      A
 Frequencies --   3005.2506              3034.5767              3059.0209
 Red. masses --      1.0813                 1.0385                 1.0902
 Frc consts  --      5.7538                 5.6343                 6.0107
 IR Inten    --     22.5492                24.1011                17.7615

                     46                     47                     48
                      A                      A                      A
 Frequencies --   3059.2702              3098.3550              3099.6350
 Red. masses --      1.0688                 1.1018                 1.1018
 Frc consts  --      5.8934                 6.2316                 6.2368
 IR Inten    --     12.1379                14.1937                23.6201

                     49                     50                     51
                      A                      A                      A
 Frequencies --   3143.0125              3205.0763              3811.2876
 Red. masses --      1.0993                 1.0954                 1.0664
 Frc consts  --      6.3981                 6.6296                 9.1266
 IR Inten    --      8.8398                 5.4093                21.4448

 - Thermochemistry -
 -------------------
 Temperature   298.150 Kelvin.  Pressure   1.00000 Atm.
 Atom     1 has atomic number  6 and mass  12.00000

 Molecular mass:   126.06808 amu.
 Principal axes and moments of inertia in atomic units:
                           1         2         3
     Eigenvalues --   630.262251572.095732018.67925
           X            0.99985   0.01650   0.00452
           Y           -0.01645   0.99982  -0.00982
           Z           -0.00468   0.00974   0.99994
 This molecule is an asymmetric top.
 Rotational symmetry number  1.
 Warning -- assumption of classical behavior for rotation
           may cause significant error
 Rotational temperatures (Kelvin)      0.13743     0.05509     0.04291
 Rotational constants (GHZ):           2.86348     1.14798     0.89402
 Zero-point vibrational energy     417268.2 (Joules/Mol)
                                   99.72950 (Kcal/Mol)
 Warning -- explicit consideration of  12 degrees of freedom as
           vibrations may cause significant error
 Vibrational temperatures:     61.48    88.30   217.08   318.78   387.34
          (Kelvin)            418.55   451.25   494.84   539.06   711.10
                              763.19   828.88   906.80  1027.76  1111.91
                             1219.52  1274.02  1324.53  1349.65  1399.80
                             1486.54  1522.37  1548.24  1601.90  1647.19
                             1703.81  1728.36  1738.16  1811.57  1872.85
                             1915.48  1926.12  1982.37  2031.63  2035.91
                             2092.19  2151.05  2155.06  2166.96  2405.12
                             2608.44  4318.99  4323.88  4366.07  4401.24
                             4401.60  4457.84  4459.68  4522.09  4611.38
                             5483.59

 Zero-point correction=                           0.158929 (Hartree/Particle)
 Thermal correction to Energy=                    0.168068
 Thermal correction to Enthalpy=                  0.169012
 Thermal correction to Gibbs Free Energy=         0.124192
 Sum of electronic and zero-point Energies=           -423.064010
 Sum of electronic and thermal Energies=              -423.054871
 Sum of electronic and thermal Enthalpies=            -423.053927
 Sum of electronic and thermal Free Energies=         -423.098746

                     E (Thermal)             CV                S
                      KCal/Mol        Cal/Mol-Kelvin    Cal/Mol-Kelvin
 Total                  105.464             33.594             94.331
 Electronic               0.000              0.000              0.000
 Translational            0.889              2.981             40.409
 Rotational               0.889              2.981             29.082
 Vibrational            103.687             27.632             24.840
 Vibration     1          0.595              1.980              5.128
 Vibration     2          0.597              1.973              4.413
 Vibration     3          0.618              1.902              2.661
 Vibration     4          0.648              1.808              1.946
 Vibration     5          0.674              1.730              1.601
 Vibration     6          0.687              1.691              1.469
 Vibration     7          0.701              1.648              1.343
 Vibration     8          0.723              1.588              1.194
 Vibration     9          0.746              1.524              1.061
 Vibration    10          0.850              1.263              0.673
 Vibration    11          0.885              1.183              0.586
 Vibration    12          0.933              1.083              0.493

 Normal termination of Gaussian 09 at Tue Jan 28 12:58:11 2020.
