 Gaussian 09, Revision D.01,
 Gaussian 09:  ES64L-G09RevD.01 24-Apr-2013

 -----------------------------
 # b3lyp 6-31G(2df,p) opt Freq
 -----------------------------

 -----
 titel
 -----
 Symbolic Z-matrix:
 Charge =  0 Multiplicity = 1

 SCF Done:  E(RB3LYP) =  -423.213506054     A.U. after   14 cycles
 Optimization completed.
    -- Stationary point found.
 Normal termination of Gaussian 09 at Tue Jan 28 02:50:58 2020.

 ----------------------------------------------------------------------
 #N Geom=AllCheck Guess=TCheck SCRF=Check GenChk RB3LYP/6-31G(2df,p) Fr
 eq
 ----------------------------------------------------------------------

 Structure from the checkpoint file:  "/scratch/puck/g09_c09a88fb-d847-43c0-a2bd-1d3b4d2153b8/Gau-113526.chk"
 -----
 titel
 -----
 Charge =  0 Multiplicity = 1

                         Standard orientation:
 ---------------------------------------------------------------------
 Center     Atomic      Atomic             Coordinates (Angstroms)
 Number     Number       Type             X           Y           Z
 ---------------------------------------------------------------------
      1          6           0       -1.911242   -1.084247   -0.995012
      2          6           0       -1.373441   -0.416914    0.261835
      3          6           0       -0.363087   -1.203043    1.158681
      4          6           0        0.649368   -0.014526    1.066871
      5          6           0        1.526590   -0.134482   -0.168245
      6          8           0        2.598824   -0.558533   -0.459518
      7          8           0        0.602194    0.446068   -1.009826
      8          6           0       -0.326140    0.721566    0.105262
      9          6           0       -0.723593    2.170192    0.148221
     10          1           0       -2.536461   -0.396166   -1.574056
     11          1           0       -1.096024   -1.420181   -1.641258
     12          1           0       -2.524358   -1.953794   -0.736125
     13          1           0       -2.203580   -0.046329    0.873068
     14          1           0       -0.719391   -1.386821    2.173344
     15          1           0        0.006007   -2.144774    0.745787
     16          1           0        1.082300    0.393572    1.977629
     17          1           0       -1.321773    2.429743   -0.731957
     18          1           0       -1.323623    2.375602    1.039858
     19          1           0        0.158032    2.817594    0.162778
 ---------------------------------------------------------------------

 SCF Done:  E(RB3LYP) =  -423.213506054     A.U. after    1 cycles

 The electronic state is 1-A.
 Alpha  occ. eigenvalues --  -19.17404 -19.12904 -10.30231 -10.25620 -10.20757
 Alpha  occ. eigenvalues --  -10.20344 -10.20239 -10.19400 -10.18207  -1.09988
 Alpha  occ. eigenvalues --   -1.02731  -0.85195  -0.75494  -0.74664  -0.66443
 Alpha  occ. eigenvalues --   -0.63315  -0.57700  -0.53013  -0.50087  -0.49013
 Alpha  occ. eigenvalues --   -0.46603  -0.44184  -0.42970  -0.41934  -0.41060
 Alpha  occ. eigenvalues --   -0.40833  -0.39845  -0.37919  -0.34547  -0.33679
 Alpha  occ. eigenvalues --   -0.33269  -0.30460  -0.28892  -0.26594
 Alpha virt. eigenvalues --    0.01194   0.06769   0.09027   0.10340   0.11609
 Alpha virt. eigenvalues --    0.12047   0.13303   0.13848   0.14751   0.16860
 Alpha virt. eigenvalues --    0.17277   0.18152   0.18319   0.20010   0.21125

 Mulliken charges:
               1
     1  C   -0.410973
     2  C   -0.021505
     3  C   -0.261487
     4  C   -0.285710
     5  C    0.449087
     6  O   -0.331019
     7  O   -0.288195
     8  C    0.436084
     9  C   -0.480402
    10  H    0.119433
    11  H    0.137872
    12  H    0.117988
    13  H    0.079036
    14  H    0.115207
    15  H    0.123025
    16  H    0.104167
    17  H    0.137657
    18  H    0.125571
    19  H    0.134163
 Sum of Mulliken charges =   0.00000

 Dipole moment (field-independent basis, Debye):
    X=             -3.5147    Y=              0.8969    Z=              2.2998  Tot=              4.2950
 Quadrupole moment (field-independent basis, Debye-Ang):
   XX=            -60.5023   YY=            -50.9395   ZZ=            -53.2417
   XY=              2.0114   XZ=              2.7234   YZ=              0.3176

  Exact polarizability:  83.405  -2.650  73.487   0.225  -0.947  68.203
 Approx polarizability: 123.101  -8.597 102.234  -2.880  -2.396 103.704

                      1                      2                      3
                      A                      A                      A
 Frequencies --     84.5225               168.9932               198.0515
 Red. masses --      3.8510                 2.9118                 1.1349
 Frc consts  --      0.0162                 0.0490                 0.0262
 IR Inten    --      1.2371                 0.9485                 0.0798

                      4                      5                      6
                      A                      A                      A
 Frequencies --    209.4211               228.2503               273.1773
 Red. masses --      1.0554                 2.7663                 2.4688
 Frc consts  --      0.0273                 0.0849                 0.1085
 IR Inten    --      0.1361                 0.5115                 1.2631

                      7                      8                      9
                      A                      A                      A
 Frequencies --    311.0395               386.4282               450.2488
 Red. masses --      3.0274                 2.5039                 5.9364
 Frc consts  --      0.1726                 0.2203                 0.7091
 IR Inten    --      2.3126                 0.5393                 2.0758

                     10                     11                     12
                      A                      A                      A
 Frequencies --    531.4393               609.9900               636.0379
 Red. masses --      2.8449                 4.2164                 4.4092
 Frc consts  --      0.4734                 0.9243                 1.0509
 IR Inten    --      0.6007                 0.9675                 2.5403

                     13                     14                     15
                      A                      A                      A
 Frequencies --    731.4478               798.9927               808.4821
 Red. masses --      3.0008                 2.5341                 4.0958
 Frc consts  --      0.9459                 0.9532                 1.5773
 IR Inten    --      2.4955                 2.1142                 7.5483

                     16                     17                     18
                      A                      A                      A
 Frequencies --    862.5697               877.0089               901.2108
 Red. masses --      2.8945                 2.2816                 1.8523
 Frc consts  --      1.2689                 1.0340                 0.8864
 IR Inten    --     55.2872                16.1195                 9.4802

                     19                     20                     21
                      A                      A                      A
 Frequencies --    948.7229               985.1438              1013.0136
 Red. masses --      1.4782                 2.5815                 1.4370
 Frc consts  --      0.7839                 1.4761                 0.8688
 IR Inten    --      1.1290                 6.5000                13.2968

                     22                     23                     24
                      A                      A                      A
 Frequencies --   1060.0355              1079.1936              1116.1150
 Red. masses --      3.0470                 1.8347                 1.8294
 Frc consts  --      2.0173                 1.2590                 1.3427
 IR Inten    --     65.1875                 6.1992                 3.8175

                     25                     26                     27
                      A                      A                      A
 Frequencies --   1123.1592              1170.2315              1192.3233
 Red. masses --      1.8814                 1.9093                 2.1332
 Frc consts  --      1.3983                 1.5405                 1.7867
 IR Inten    --      6.1928                 5.0356                19.7877

                     28                     29                     30
                      A                      A                      A
 Frequencies --   1217.1276              1244.0952              1251.8963
 Red. masses --      2.3363                 1.8022                 1.7989
 Frc consts  --      2.0392                 1.6435                 1.6611
 IR Inten    --     21.3400                23.1152                 9.3315

                     31                     32                     33
                      A                      A                      A
 Frequencies --   1285.1374              1330.2399              1367.3330
 Red. masses --      1.6331                 1.8744                 1.7410
 Frc consts  --      1.5891                 1.9543                 1.9178
 IR Inten    --     18.3454                13.3034                 7.3073

                     34                     35                     36
                      A                      A                      A
 Frequencies --   1411.0847              1416.2328              1481.6686
 Red. masses --      1.2732                 1.3687                 1.0529
 Frc consts  --      1.4937                 1.6174                 1.3619
 IR Inten    --      6.6226                 6.0355                 3.1841

                     37                     38                     39
                      A                      A                      A
 Frequencies --   1487.4985              1489.5093              1493.8437
 Red. masses --      1.0774                 1.0693                 1.0438
 Frc consts  --      1.4045                 1.3978                 1.3724
 IR Inten    --      3.9936                 3.6639                 3.8121

                     40                     41                     42
                      A                      A                      A
 Frequencies --   1497.8902              1930.8668              3035.4472
 Red. masses --      1.0511                12.7581                 1.0378
 Frc consts  --      1.3894                28.0247                 5.6341
 IR Inten    --      4.6439               464.7639                22.1055

                     43                     44                     45
                      A                      A                      A
 Frequencies --   3036.4566              3046.4740              3072.3339
 Red. masses --      1.0377                 1.0804                 1.0594
 Frc consts  --      5.6373                 5.9079                 5.8918
 IR Inten    --      9.0997                21.7878                22.7227

                     46                     47                     48
                      A                      A                      A
 Frequencies --   3098.4684              3106.1309              3117.0959
 Red. masses --      1.1010                 1.1006                 1.1020
 Frc consts  --      6.2279                 6.2563                 6.3084
 IR Inten    --     21.4063                12.9640                 9.7719

                     49                     50                     51
                      A                      A                      A
 Frequencies --   3120.1628              3126.2729              3144.0898
 Red. masses --      1.1014                 1.1063                 1.0913
 Frc consts  --      6.3174                 6.3708                 6.3562
 IR Inten    --     15.2354                18.6961                14.1726

 - Thermochemistry -
 -------------------
 Temperature   298.150 Kelvin.  Pressure   1.00000 Atm.
 Atom     1 has atomic number  6 and mass  12.00000

 Molecular mass:   126.06808 amu.
 Principal axes and moments of inertia in atomic units:
                           1         2         3
     Eigenvalues --   775.455131164.888111368.60318
           X            0.99906   0.02599   0.03479
           Y           -0.02707   0.99915   0.03098
           Z           -0.03396  -0.03190   0.99891
 This molecule is an asymmetric top.
 Rotational symmetry number  1.
 Warning -- assumption of classical behavior for rotation
           may cause significant error
 Rotational temperatures (Kelvin)      0.11169     0.07435     0.06329
 Rotational constants (GHZ):           2.32733     1.54928     1.31867
 Zero-point vibrational energy     416076.8 (Joules/Mol)
                                   99.44474 (Kcal/Mol)
 Warning -- explicit consideration of  11 degrees of freedom as
           vibrations may cause significant error
 Vibrational temperatures:    121.61   243.14   284.95   301.31   328.40
          (Kelvin)            393.04   447.52   555.98   647.81   764.62
                              877.64   915.12  1052.39  1149.57  1163.22
                             1241.04  1261.82  1296.64  1365.00  1417.40
                             1457.50  1525.15  1552.72  1605.84  1615.97
                             1683.70  1715.49  1751.17  1789.97  1801.20
                             1849.02  1913.92  1967.28  2030.23  2037.64
                             2131.79  2140.18  2143.07  2149.31  2155.13
                             2778.08  4367.33  4368.78  4383.19  4420.40
                             4458.00  4469.02  4484.80  4489.21  4498.00
                             4523.64

 Zero-point correction=                           0.158475 (Hartree/Particle)
 Thermal correction to Energy=                    0.167058
 Thermal correction to Enthalpy=                  0.168002
 Thermal correction to Gibbs Free Energy=         0.125457
 Sum of electronic and zero-point Energies=           -423.055031
 Sum of electronic and thermal Energies=              -423.046448
 Sum of electronic and thermal Enthalpies=            -423.045504
 Sum of electronic and thermal Free Energies=         -423.088049

                     E (Thermal)             CV                S
                      KCal/Mol        Cal/Mol-Kelvin    Cal/Mol-Kelvin
 Total                  104.831             32.625             89.545
 Electronic               0.000              0.000              0.000
 Translational            0.889              2.981             40.409
 Rotational               0.889              2.981             28.604
 Vibrational            103.053             26.663             20.532
 Vibration     1          0.601              1.960              3.783
 Vibration     2          0.625              1.881              2.447
 Vibration     3          0.637              1.843              2.151
 Vibration     4          0.642              1.826              2.049
 Vibration     5          0.651              1.798              1.893
 Vibration     6          0.676              1.723              1.576
 Vibration     7          0.700              1.653              1.357
 Vibration     8          0.755              1.499              1.014
 Vibration     9          0.809              1.360              0.795
 Vibration    10          0.886              1.180              0.584
 Vibration    11          0.969              1.011              0.433

 Optimization completed.
    -- Stationary point found.
 Normal termination of Gaussian 09 at Tue Jan 28 03:32:29 2020.
