 Gaussian 09, Revision D.01,
 Gaussian 09:  ES64L-G09RevD.01 24-Apr-2013

 -----------------------------
 # b3lyp 6-31G(2df,p) opt Freq
 -----------------------------

 -----
 titel
 -----
 Symbolic Z-matrix:
 Charge =  0 Multiplicity = 1

 SCF Done:  E(RB3LYP) =  -423.168421680     A.U. after   14 cycles
 Optimization completed.
    -- Stationary point found.
 Normal termination of Gaussian 09 at Mon Jan 27 18:32:53 2020.

 ----------------------------------------------------------------------
 #N Geom=AllCheck Guess=TCheck SCRF=Check GenChk RB3LYP/6-31G(2df,p) Fr
 eq
 ----------------------------------------------------------------------

 Structure from the checkpoint file:  "/scratch/puck/g09_9fdc48a9-9441-4045-879b-8b615ce4973a/Gau-75347.chk"
 -----
 titel
 -----
 Charge =  0 Multiplicity = 1

                         Standard orientation:
 ---------------------------------------------------------------------
 Center     Atomic      Atomic             Coordinates (Angstroms)
 Number     Number       Type             X           Y           Z
 ---------------------------------------------------------------------
      1          6           0        0.894515    1.739272   -0.866514
      2          6           0        0.841722    0.450429   -0.091895
      3          6           0        1.715385   -0.759168   -0.517741
      4          6           0        0.473277   -1.694830   -0.432210
      5          6           0       -0.419605   -0.522949    0.043464
      6          6           0       -0.309160   -0.170720    1.532822
      7          8           0        0.861029    0.657285    1.330873
      8          6           0       -1.707684   -0.246371   -0.652384
      9          8           0       -2.610753    0.409091   -0.189761
     10          1           0        0.076637    2.403656   -0.574365
     11          1           0        1.841241    2.249936   -0.654918
     12          1           0        0.838590    1.558404   -1.944410
     13          1           0        2.141404   -0.675328   -1.520856
     14          1           0        2.518038   -0.963136    0.193455
     15          1           0        0.162290   -2.080158   -1.408206
     16          1           0        0.539839   -2.536749    0.261182
     17          1           0       -1.158253    0.415862    1.897556
     18          1           0       -0.113108   -1.009952    2.210823
     19          1           0       -1.779590   -0.667519   -1.682418
 ---------------------------------------------------------------------

 SCF Done:  E(RB3LYP) =  -423.168421680     A.U. after    1 cycles

 The electronic state is 1-A.
 Alpha  occ. eigenvalues --  -19.14250 -19.13833 -10.27258 -10.25555 -10.23415
 Alpha  occ. eigenvalues --  -10.20385 -10.20018 -10.19112 -10.18582  -1.05259
 Alpha  occ. eigenvalues --   -1.04357  -0.84058  -0.75844  -0.71956  -0.65369
 Alpha  occ. eigenvalues --   -0.63322  -0.59982  -0.51473  -0.49855  -0.49561
 Alpha  occ. eigenvalues --   -0.47319  -0.44422  -0.42715  -0.42372  -0.41584
 Alpha  occ. eigenvalues --   -0.39658  -0.39402  -0.37900  -0.35583  -0.34368
 Alpha  occ. eigenvalues --   -0.31393  -0.28713  -0.25451  -0.24922
 Alpha virt. eigenvalues --   -0.03650   0.06789   0.08500   0.10451   0.11712
 Alpha virt. eigenvalues --    0.11872   0.13187   0.14895   0.15560   0.16207
 Alpha virt. eigenvalues --    0.17075   0.18004   0.18171   0.21420   0.21854

 Mulliken charges:
               1
     1  C   -0.474557
     2  C    0.413074
     3  C   -0.263156
     4  C   -0.307549
     5  C    0.144333
     6  C   -0.134758
     7  O   -0.321478
     8  C    0.064577
     9  O   -0.256298
    10  H    0.139792
    11  H    0.135710
    12  H    0.117836
    13  H    0.104671
    14  H    0.117343
    15  H    0.109218
    16  H    0.110457
    17  H    0.129595
    18  H    0.101414
    19  H    0.069775
 Sum of Mulliken charges =   0.00000

 Dipole moment (field-independent basis, Debye):
    X=              1.6847    Y=             -1.6864    Z=             -1.5376  Tot=              2.8366
 Quadrupole moment (field-independent basis, Debye-Ang):
   XX=            -60.7833   YY=            -52.0967   ZZ=            -52.1872
   XY=              1.9486   XZ=             -2.1089   YZ=             -1.8362

  Exact polarizability:  82.097  -1.760  72.622  -2.566   0.610  73.526
 Approx polarizability: 123.428  -4.348 104.322  -4.051   4.814 108.854

                      1                      2                      3
                      A                      A                      A
 Frequencies --     65.3491                85.3362               185.7289
 Red. masses --      4.2859                 2.7699                 2.2025
 Frc consts  --      0.0108                 0.0119                 0.0448
 IR Inten    --      5.1158                 2.0395                 0.9364

                      4                      5                      6
                      A                      A                      A
 Frequencies --    214.8765               249.1743               270.7633
 Red. masses --      1.0888                 2.9846                 2.2093
 Frc consts  --      0.0296                 0.1092                 0.0954
 IR Inten    --      0.0600                 5.5155                 5.1352

                      7                      8                      9
                      A                      A                      A
 Frequencies --    339.8719               361.1752               444.9471
 Red. masses --      2.3039                 3.1830                 2.4852
 Frc consts  --      0.1568                 0.2446                 0.2899
 IR Inten    --      0.3160                 1.3659                 3.2032

                     10                     11                     12
                      A                      A                      A
 Frequencies --    488.3741               627.9151               649.8831
 Red. masses --      4.8077                 3.8969                 3.7797
 Frc consts  --      0.6756                 0.9053                 0.9405
 IR Inten    --      5.7114                 6.3163                 1.4721

                     13                     14                     15
                      A                      A                      A
 Frequencies --    740.2618               760.8927               819.4553
 Red. masses --      1.3938                 3.2226                 2.3692
 Frc consts  --      0.4500                 1.0993                 0.9374
 IR Inten    --      0.9235                13.1875                20.3601

                     16                     17                     18
                      A                      A                      A
 Frequencies --    877.6794               915.8385               938.5423
 Red. masses --      2.7012                 1.9871                 1.6837
 Frc consts  --      1.2260                 0.9820                 0.8738
 IR Inten    --     18.2969                16.2899                 3.4129

                     19                     20                     21
                      A                      A                      A
 Frequencies --    955.8400               985.2769              1015.4402
 Red. masses --      2.2791                 1.9011                 7.4017
 Frc consts  --      1.2268                 1.0873                 4.4967
 IR Inten    --      2.0207                14.6730                79.0631

                     22                     23                     24
                      A                      A                      A
 Frequencies --   1041.7444              1077.1279              1143.1903
 Red. masses --      1.6250                 1.9786                 2.0926
 Frc consts  --      1.0390                 1.3525                 1.6113
 IR Inten    --      0.5347                13.6187                24.9966

                     25                     26                     27
                      A                      A                      A
 Frequencies --   1160.1902              1187.8563              1213.1239
 Red. masses --      1.4744                 2.0922                 2.2597
 Frc consts  --      1.1693                 1.7394                 1.9594
 IR Inten    --     10.8639                25.1301                 4.2132

                     28                     29                     30
                      A                      A                      A
 Frequencies --   1216.7764              1242.4880              1268.0254
 Red. masses --      1.7988                 1.3673                 1.7494
 Frc consts  --      1.5691                 1.2436                 1.6572
 IR Inten    --      6.0891                 8.6041                 7.5283

                     31                     32                     33
                      A                      A                      A
 Frequencies --   1294.7691              1310.3419              1356.0317
 Red. masses --      2.2024                 1.9749                 1.7238
 Frc consts  --      2.1754                 1.9978                 1.8676
 IR Inten    --     20.0278                12.6025                17.1294

                     34                     35                     36
                      A                      A                      A
 Frequencies --   1407.5190              1425.2375              1466.7676
 Red. masses --      1.3502                 1.2299                 1.0852
 Frc consts  --      1.5760                 1.4719                 1.3756
 IR Inten    --     12.1730                 3.6101                 1.1058

                     37                     38                     39
                      A                      A                      A
 Frequencies --   1478.9794              1485.1938              1486.2657
 Red. masses --      1.0506                 1.1080                 1.0574
 Frc consts  --      1.3540                 1.4400                 1.3762
 IR Inten    --      2.4422                 4.5807                 1.9227

                     40                     41                     42
                      A                      A                      A
 Frequencies --   1519.5834              1803.7792              2855.8552
 Red. masses --      1.0984                10.6361                 1.0820
 Frc consts  --      1.4944                20.3891                 5.1994
 IR Inten    --      0.5576               170.0000               112.9898

                     43                     44                     45
                      A                      A                      A
 Frequencies --   3024.8155              3033.1001              3050.4321
 Red. masses --      1.0579                 1.0360                 1.0598
 Frc consts  --      5.7029                 5.6156                 5.8101
 IR Inten    --     61.6326                 8.4769                32.8576

                     46                     47                     48
                      A                      A                      A
 Frequencies --   3065.9434              3085.7301              3101.3287
 Red. masses --      1.0608                 1.1079                 1.1050
 Frc consts  --      5.8749                 6.2155                 6.2621
 IR Inten    --     28.9052                16.6746                13.5187

                     49                     50                     51
                      A                      A                      A
 Frequencies --   3101.8453              3119.9998              3128.6867
 Red. masses --      1.1006                 1.1021                 1.1068
 Frc consts  --      6.2390                 6.3210                 6.3831
 IR Inten    --      7.5002                11.7336                24.7960

 - Thermochemistry -
 -------------------
 Temperature   298.150 Kelvin.  Pressure   1.00000 Atm.
 Atom     1 has atomic number  6 and mass  12.00000

 Molecular mass:   126.06808 amu.
 Principal axes and moments of inertia in atomic units:
                           1         2         3
     Eigenvalues --   779.393731184.950581274.71303
           X            0.99926   0.00142  -0.03845
           Y           -0.00614   0.99240  -0.12288
           Z            0.03799   0.12302   0.99168
 This molecule is an asymmetric top.
 Rotational symmetry number  1.
 Warning -- assumption of classical behavior for rotation
           may cause significant error
 Rotational temperatures (Kelvin)      0.11113     0.07309     0.06795
 Rotational constants (GHZ):           2.31557     1.52305     1.41580
 Zero-point vibrational energy     413581.0 (Joules/Mol)
                                   98.84824 (Kcal/Mol)
 Warning -- explicit consideration of  10 degrees of freedom as
           vibrations may cause significant error
 Vibrational temperatures:     94.02   122.78   267.22   309.16   358.51
          (Kelvin)            389.57   489.00   519.65   640.18   702.66
                              903.43   935.04  1065.07  1094.75  1179.01
                             1262.78  1317.69  1350.35  1375.24  1417.59
                             1460.99  1498.84  1549.74  1644.79  1669.25
                             1709.06  1745.41  1750.67  1787.66  1824.40
                             1862.88  1885.29  1951.02  2025.10  2050.60
                             2110.35  2127.92  2136.86  2138.40  2186.34
                             2595.23  4108.93  4352.03  4363.95  4388.89
                             4411.20  4439.67  4462.11  4462.86  4488.98
                             4501.48

 Zero-point correction=                           0.157525 (Hartree/Particle)
 Thermal correction to Energy=                    0.166275
 Thermal correction to Enthalpy=                  0.167219
 Thermal correction to Gibbs Free Energy=         0.123873
 Sum of electronic and zero-point Energies=           -423.010897
 Sum of electronic and thermal Energies=              -423.002147
 Sum of electronic and thermal Enthalpies=            -423.001203
 Sum of electronic and thermal Free Energies=         -423.044549

                     E (Thermal)             CV                S
                      KCal/Mol        Cal/Mol-Kelvin    Cal/Mol-Kelvin
 Total                  104.339             32.584             91.229
 Electronic               0.000              0.000              0.000
 Translational            0.889              2.981             40.409
 Rotational               0.889              2.981             28.556
 Vibrational            102.562             26.622             22.265
 Vibration     1          0.597              1.971              4.289
 Vibration     2          0.601              1.959              3.764
 Vibration     3          0.632              1.859              2.270
 Vibration     4          0.645              1.818              2.002
 Vibration     5          0.662              1.764              1.736
 Vibration     6          0.674              1.727              1.591
 Vibration     7          0.720              1.596              1.213
 Vibration     8          0.735              1.552              1.117
 Vibration     9          0.804              1.372              0.811
 Vibration    10          0.844              1.276              0.688

 Optimization completed.
    -- Stationary point found.
 Normal termination of Gaussian 09 at Mon Jan 27 19:30:22 2020.
