 Gaussian 09, Revision D.01,
 Gaussian 09:  ES64L-G09RevD.01 24-Apr-2013

 -----------------------------
 # b3lyp 6-31G(2df,p) opt Freq
 -----------------------------

 -----
 titel
 -----
 Symbolic Z-matrix:
 Charge =  0 Multiplicity = 1

 SCF Done:  E(RB3LYP) =  -423.204142847     A.U. after   14 cycles
 Optimization completed.
    -- Stationary point found.
 Normal termination of Gaussian 09 at Tue Jan 28 00:48:48 2020.

 ----------------------------------------------------------------------
 #N Geom=AllCheck Guess=TCheck SCRF=Check GenChk RB3LYP/6-31G(2df,p) Fr
 eq
 ----------------------------------------------------------------------

 Structure from the checkpoint file:  "/scratch/puck/g09_ab84eb8f-c74b-4895-822b-3c1ab21ac4c2/Gau-38339.chk"
 -----
 titel
 -----
 Charge =  0 Multiplicity = 1

                         Standard orientation:
 ---------------------------------------------------------------------
 Center     Atomic      Atomic             Coordinates (Angstroms)
 Number     Number       Type             X           Y           Z
 ---------------------------------------------------------------------
      1          8           0        2.073766   -0.960663   -0.668085
      2          6           0        1.069018   -0.927221    0.340272
      3          6           0        0.985955    0.463770    0.985131
      4          6           0        0.145311    1.292544    0.002206
      5          8           0        0.194903    2.487648   -0.132401
      6          6           0       -0.764654    0.337542   -0.764022
      7          6           0       -2.112306    0.044391   -0.023929
      8          6           0       -1.535357   -1.310118    0.477499
      9          6           0       -0.267525   -1.092946   -0.398458
     10          1           0        2.909411   -0.692420   -0.272669
     11          1           0        1.227396   -1.727052    1.078722
     12          1           0        0.450001    0.423416    1.942965
     13          1           0        1.955907    0.929104    1.178724
     14          1           0       -0.846972    0.638148   -1.808507
     15          1           0       -2.409412    0.769434    0.738147
     16          1           0       -2.944026   -0.073038   -0.721378
     17          1           0       -1.331605   -1.341705    1.552077
     18          1           0       -2.127881   -2.192060    0.226329
     19          1           0       -0.154814   -1.797473   -1.222712
 ---------------------------------------------------------------------

 SCF Done:  E(RB3LYP) =  -423.204142847     A.U. after    1 cycles

 The electronic state is 1-A.
 Alpha  occ. eigenvalues --  -19.14236 -19.12628 -10.26367 -10.24039 -10.19360
 Alpha  occ. eigenvalues --  -10.19116 -10.19080 -10.19010 -10.18890  -1.03749
 Alpha  occ. eigenvalues --   -1.02479  -0.86499  -0.77068  -0.69934  -0.67655
 Alpha  occ. eigenvalues --   -0.61738  -0.55726  -0.53236  -0.51263  -0.48469
 Alpha  occ. eigenvalues --   -0.46605  -0.45927  -0.43162  -0.41382  -0.40618
 Alpha  occ. eigenvalues --   -0.38329  -0.37069  -0.34920  -0.34413  -0.32777
 Alpha  occ. eigenvalues --   -0.31377  -0.30336  -0.27984  -0.23337
 Alpha virt. eigenvalues --   -0.01569   0.06748   0.08611   0.08999   0.11923
 Alpha virt. eigenvalues --    0.13263   0.14069   0.15000   0.16739   0.17165
 Alpha virt. eigenvalues --    0.18321   0.18586   0.20469   0.21902   0.22963

 Mulliken charges:
               1
     1  O   -0.443633
     2  C    0.106442
     3  C   -0.364882
     4  C    0.413204
     5  O   -0.322509
     6  C   -0.117495
     7  C   -0.230661
     8  C   -0.251987
     9  C    0.001882
    10  H    0.284104
    11  H    0.066648
    12  H    0.127250
    13  H    0.116162
    14  H    0.095495
    15  H    0.111267
    16  H    0.115192
    17  H    0.099956
    18  H    0.107832
    19  H    0.085732
 Sum of Mulliken charges =   0.00000

 Dipole moment (field-independent basis, Debye):
    X=             -0.0754    Y=             -2.4262    Z=              1.5020  Tot=              2.8545
 Quadrupole moment (field-independent basis, Debye-Ang):
   XX=            -47.1616   YY=            -62.7607   ZZ=            -52.1844
   XY=              0.7885   XZ=              3.2657   YZ=             -0.2073

  Exact polarizability:  80.353   2.572  77.161   2.456  -1.234  65.700
 Approx polarizability: 107.758   3.872 116.616   1.302  -2.462 101.925

                      1                      2                      3
                      A                      A                      A
 Frequencies --     64.8389               111.1366               209.9968
 Red. masses --      3.2622                 3.4363                 2.8219
 Frc consts  --      0.0081                 0.0250                 0.0733
 IR Inten    --      3.8359                 0.0989                 1.2905

                      4                      5                      6
                      A                      A                      A
 Frequencies --    240.7020               308.9669               375.7282
 Red. masses --      2.7274                 1.1480                 3.5230
 Frc consts  --      0.0931                 0.0646                 0.2930
 IR Inten    --      3.5513               105.2936                 4.1419

                      7                      8                      9
                      A                      A                      A
 Frequencies --    416.8796               450.7812               530.0630
 Red. masses --      3.2737                 3.5127                 3.2776
 Frc consts  --      0.3352                 0.4206                 0.5426
 IR Inten    --      3.3550                 6.0451                 2.8425

                     10                     11                     12
                      A                      A                      A
 Frequencies --    634.1851               706.8696               719.7682
 Red. masses --      3.8763                 2.7926                 1.5825
 Frc consts  --      0.9186                 0.8221                 0.4830
 IR Inten    --      4.3706                 0.2184                 5.2571

                     13                     14                     15
                      A                      A                      A
 Frequencies --    759.1440               801.7264               845.5792
 Red. masses --      3.7555                 1.9719                 2.5967
 Frc consts  --      1.2752                 0.7468                 1.0939
 IR Inten    --      6.3772                 0.6904                 5.3811

                     16                     17                     18
                      A                      A                      A
 Frequencies --    874.6990               920.6145               945.4253
 Red. masses --      2.4279                 1.9128                 1.9360
 Frc consts  --      1.0945                 0.9551                 1.0196
 IR Inten    --      4.8041                12.0285                 5.9580

                     19                     20                     21
                      A                      A                      A
 Frequencies --    961.5900               977.1479              1012.6827
 Red. masses --      2.3045                 2.4613                 1.8490
 Frc consts  --      1.2555                 1.3846                 1.1172
 IR Inten    --      7.2397                 0.2639                10.0988

                     22                     23                     24
                      A                      A                      A
 Frequencies --   1042.6981              1055.6583              1120.6210
 Red. masses --      2.9098                 1.6430                 1.7092
 Frc consts  --      1.8639                 1.0788                 1.2646
 IR Inten    --     37.9879                19.2714                 2.2592

                     25                     26                     27
                      A                      A                      A
 Frequencies --   1157.6745              1172.5909              1180.4960
 Red. masses --      2.1080                 2.0680                 1.5007
 Frc consts  --      1.6645                 1.6753                 1.2322
 IR Inten    --     38.1525                25.4897                39.3561

                     28                     29                     30
                      A                      A                      A
 Frequencies --   1202.6990              1231.4009              1254.9961
 Red. masses --      1.3003                 1.2824                 1.3247
 Frc consts  --      1.1081                 1.1457                 1.2293
 IR Inten    --      9.8145                 0.1610                 4.3569

                     31                     32                     33
                      A                      A                      A
 Frequencies --   1260.9349              1268.1898              1275.4308
 Red. masses --      1.4022                 1.6542                 1.5019
 Frc consts  --      1.3135                 1.5675                 1.4395
 IR Inten    --     15.8405                 3.9833                 8.0841

                     34                     35                     36
                      A                      A                      A
 Frequencies --   1300.2775              1319.5217              1368.5599
 Red. masses --      1.4488                 1.4762                 1.4688
 Frc consts  --      1.4432                 1.5143                 1.6208
 IR Inten    --      7.8519                 2.1594                23.4761

                     37                     38                     39
                      A                      A                      A
 Frequencies --   1407.6897              1447.7995              1483.9931
 Red. masses --      1.5133                 1.1113                 1.0790
 Frc consts  --      1.7668                 1.3725                 1.4000
 IR Inten    --     11.5832                 8.0226                 1.8508

                     40                     41                     42
                      A                      A                      A
 Frequencies --   1500.4437              1843.9027              2989.2130
 Red. masses --      1.1121                12.4036                 1.0840
 Frc consts  --      1.4752                24.8470                 5.7070
 IR Inten    --      1.8117               217.2051                56.9654

                     43                     44                     45
                      A                      A                      A
 Frequencies --   3031.4529              3057.0445              3065.8964
 Red. masses --      1.0677                 1.0607                 1.0605
 Frc consts  --      5.7812                 5.8406                 5.8729
 IR Inten    --      6.5417                35.2515                37.4847

                     46                     47                     48
                      A                      A                      A
 Frequencies --   3098.9425              3101.6873              3111.6178
 Red. masses --      1.0997                 1.0955                 1.0925
 Frc consts  --      6.2222                 6.2095                 6.2325
 IR Inten    --      4.2799                15.3884                14.5621

                     49                     50                     51
                      A                      A                      A
 Frequencies --   3113.4350              3126.1804              3816.1131
 Red. masses --      1.0945                 1.1008                 1.0661
 Frc consts  --      6.2511                 6.3385                 9.1475
 IR Inten    --      5.4136                41.2243                17.0877

 - Thermochemistry -
 -------------------
 Temperature   298.150 Kelvin.  Pressure   1.00000 Atm.
 Atom     1 has atomic number  8 and mass  15.99491

 Molecular mass:   126.06808 amu.
 Principal axes and moments of inertia in atomic units:
                           1         2         3
     Eigenvalues --   874.17943 955.556811495.48380
           X            0.99352   0.11219   0.01794
           Y           -0.11212   0.99368  -0.00478
           Z           -0.01836   0.00274   0.99983
 This molecule is an asymmetric top.
 Rotational symmetry number  1.
 Warning -- assumption of classical behavior for rotation
           may cause significant error
 Rotational temperatures (Kelvin)      0.09908     0.09064     0.05792
 Rotational constants (GHZ):           2.06450     1.88868     1.20679
 Zero-point vibrational energy     420341.9 (Joules/Mol)
                                  100.46414 (Kcal/Mol)
 Warning -- explicit consideration of   9 degrees of freedom as
           vibrations may cause significant error
 Vibrational temperatures:     93.29   159.90   302.14   346.32   444.53
          (Kelvin)            540.59   599.80   648.57   762.64   912.45
                             1017.03  1035.58  1092.24  1153.50  1216.60
                             1258.50  1324.56  1360.25  1383.51  1405.90
                             1457.02  1500.21  1518.85  1612.32  1665.63
                             1687.09  1698.47  1730.41  1771.71  1805.66
                             1814.20  1824.64  1835.06  1870.81  1898.49
                             1969.05  2025.35  2083.06  2135.13  2158.80
                             2652.96  4300.81  4361.58  4398.40  4411.14
                             4458.68  4462.63  4476.92  4479.53  4497.87
                             5490.53

 Zero-point correction=                           0.160100 (Hartree/Particle)
 Thermal correction to Energy=                    0.168140
 Thermal correction to Enthalpy=                  0.169084
 Thermal correction to Gibbs Free Energy=         0.127220
 Sum of electronic and zero-point Energies=           -423.044043
 Sum of electronic and thermal Energies=              -423.036003
 Sum of electronic and thermal Enthalpies=            -423.035059
 Sum of electronic and thermal Free Energies=         -423.076923

                     E (Thermal)             CV                S
                      KCal/Mol        Cal/Mol-Kelvin    Cal/Mol-Kelvin
 Total                  105.509             31.202             88.111
 Electronic               0.000              0.000              0.000
 Translational            0.889              2.981             40.409
 Rotational               0.889              2.981             28.615
 Vibrational            103.732             25.240             19.087
 Vibration     1          0.597              1.971              4.304
 Vibration     2          0.607              1.940              3.249
 Vibration     3          0.642              1.826              2.044
 Vibration     4          0.658              1.778              1.798
 Vibration     5          0.698              1.657              1.368
 Vibration     6          0.747              1.522              1.056
 Vibration     7          0.780              1.434              0.903
 Vibration     8          0.810              1.359              0.793
 Vibration     9          0.885              1.183              0.587

 Optimization completed.
    -- Stationary point found.
 Normal termination of Gaussian 09 at Tue Jan 28 02:57:07 2020.
