 Gaussian 09, Revision D.01,
 Gaussian 09:  ES64L-G09RevD.01 24-Apr-2013

 -----------------------------
 # b3lyp 6-31G(2df,p) opt Freq
 -----------------------------

 -----
 titel
 -----
 Symbolic Z-matrix:
 Charge =  0 Multiplicity = 1

 SCF Done:  E(RB3LYP) =  -423.129742346     A.U. after   14 cycles
 Optimization completed.
    -- Stationary point found.
 Normal termination of Gaussian 09 at Tue Jan 28 08:08:16 2020.

 ----------------------------------------------------------------------
 #N Geom=AllCheck Guess=TCheck SCRF=Check GenChk RB3LYP/6-31G(2df,p) Fr
 eq
 ----------------------------------------------------------------------

 Structure from the checkpoint file:  "/scratch/puck/g09_35aa71c0-874c-40df-a6a1-bcfefeeb8ba6/Gau-127729.chk"
 -----
 titel
 -----
 Charge =  0 Multiplicity = 1

                         Standard orientation:
 ---------------------------------------------------------------------
 Center     Atomic      Atomic             Coordinates (Angstroms)
 Number     Number       Type             X           Y           Z
 ---------------------------------------------------------------------
      1          6           0       -3.948444   -0.355799    0.466168
      2          6           0       -2.718530   -0.048385   -0.347396
      3          8           0       -1.661942   -1.018547   -0.315115
      4          6           0       -1.419727    0.264460    0.261553
      5          6           0       -0.390499    1.138863   -0.435294
      6          6           0        0.982495    0.779358   -0.095392
      7          6           0        2.109247    0.478019    0.205740
      8          6           0        3.464562    0.044625    0.542632
      9          8           0        4.002585   -0.896391   -0.376273
     10          1           0       -4.558749   -1.116408   -0.031636
     11          1           0       -3.674909   -0.731045    1.455884
     12          1           0       -4.563853    0.542077    0.588312
     13          1           0       -2.907616    0.352213   -1.345816
     14          1           0       -1.348614    0.257355    1.350352
     15          1           0       -0.540399    1.063332   -1.518950
     16          1           0       -0.574496    2.187429   -0.163383
     17          1           0        4.150622    0.899094    0.529325
     18          1           0        3.473132   -0.350949    1.571343
     19          1           0        3.345119   -1.590440   -0.492393
 ---------------------------------------------------------------------

 SCF Done:  E(RB3LYP) =  -423.129742346     A.U. after    1 cycles

 The electronic state is 1-A.
 Alpha  occ. eigenvalues --  -19.14974 -19.13653 -10.24859 -10.24311 -10.24181
 Alpha  occ. eigenvalues --  -10.21590 -10.18777 -10.18001 -10.17334  -1.07209
 Alpha  occ. eigenvalues --   -1.01835  -0.79704  -0.74932  -0.74522  -0.67900
 Alpha  occ. eigenvalues --   -0.62761  -0.59724  -0.52876  -0.49971  -0.48578
 Alpha  occ. eigenvalues --   -0.47407  -0.45590  -0.44075  -0.42853  -0.42118
 Alpha  occ. eigenvalues --   -0.40269  -0.37540  -0.36568  -0.35213  -0.30074
 Alpha  occ. eigenvalues --   -0.28424  -0.27262  -0.25976  -0.24913
 Alpha virt. eigenvalues --    0.03477   0.04996   0.10246   0.10619   0.11045
 Alpha virt. eigenvalues --    0.11563   0.12769   0.13087   0.13306   0.15787
 Alpha virt. eigenvalues --    0.16906   0.17251   0.17615   0.18554   0.21555

 Mulliken charges:
               1
     1  C   -0.420066
     2  C    0.078743
     3  O   -0.252815
     4  C    0.074702
     5  C   -0.389523
     6  C    0.042481
     7  C    0.073345
     8  C   -0.187279
     9  O   -0.403350
    10  H    0.132148
    11  H    0.129089
    12  H    0.123004
    13  H    0.088241
    14  H    0.096259
    15  H    0.138158
    16  H    0.133886
    17  H    0.137632
    18  H    0.116150
    19  H    0.289195
 Sum of Mulliken charges =   0.00000

 Dipole moment (field-independent basis, Debye):
    X=             -2.4803    Y=              1.3774    Z=              0.9184  Tot=              2.9820
 Quadrupole moment (field-independent basis, Debye-Ang):
   XX=            -54.7014   YY=            -52.4171   ZZ=            -51.8759
   XY=             -1.9535   XZ=              3.6978   YZ=             -0.7338

  Exact polarizability: 118.235  -3.029  64.676   7.236  -0.713  63.111
 Approx polarizability: 151.182 -11.360  99.102  14.675   0.281  94.331

                      1                      2                      3
                      A                      A                      A
 Frequencies --     22.9924                46.9759                74.1086
 Red. masses --      3.5481                 3.8225                 3.0920
 Frc consts  --      0.0011                 0.0050                 0.0100
 IR Inten    --      1.9351                 2.8631                 0.8396

                      4                      5                      6
                      A                      A                      A
 Frequencies --    130.9875               191.8873               215.2805
 Red. masses --      4.3126                 1.3904                 1.9485
 Frc consts  --      0.0436                 0.0302                 0.0532
 IR Inten    --      0.7975                 1.3860                 2.8581

                      7                      8                      9
                      A                      A                      A
 Frequencies --    247.3874               291.5424               298.6632
 Red. masses --      2.3506                 3.6741                 1.4995
 Frc consts  --      0.0848                 0.1840                 0.0788
 IR Inten    --      4.1783                 7.2358                76.9657

                     10                     11                     12
                      A                      A                      A
 Frequencies --    357.6816               397.3992               454.8546
 Red. masses --      2.2176                 3.3978                 3.4246
 Frc consts  --      0.1672                 0.3162                 0.4175
 IR Inten    --     41.4209                 3.4946                 4.3508

                     13                     14                     15
                      A                      A                      A
 Frequencies --    530.3124               570.6031               757.2588
 Red. masses --      4.1638                 5.3432                 4.3356
 Frc consts  --      0.6899                 1.0250                 1.4648
 IR Inten    --      7.4574                 8.1305                17.2079

                     16                     17                     18
                      A                      A                      A
 Frequencies --    778.5243               882.7262               894.1160
 Red. masses --      3.9090                 1.8962                 2.5682
 Frc consts  --      1.3959                 0.8705                 1.2097
 IR Inten    --      6.8421                 1.0839                19.1875

                     19                     20                     21
                      A                      A                      A
 Frequencies --    986.2809               989.5797              1021.2168
 Red. masses --      1.9083                 1.6212                 2.2465
 Frc consts  --      1.0937                 0.9354                 1.3804
 IR Inten    --      6.5297                37.0124                16.7790

                     22                     23                     24
                      A                      A                      A
 Frequencies --   1046.0891              1080.8092              1099.8738
 Red. masses --      5.4012                 1.6920                 2.1784
 Frc consts  --      3.4824                 1.1646                 1.5527
 IR Inten    --     89.7727                13.9214                 6.8473

                     25                     26                     27
                      A                      A                      A
 Frequencies --   1155.1499              1168.1347              1173.6951
 Red. masses --      3.0357                 1.5056                 1.7446
 Frc consts  --      2.3866                 1.2104                 1.4160
 IR Inten    --      8.4524                 4.3302                 3.6993

                     28                     29                     30
                      A                      A                      A
 Frequencies --   1216.5202              1244.2393              1283.6804
 Red. masses --      1.0891                 1.2142                 1.4283
 Frc consts  --      0.9496                 1.1075                 1.3867
 IR Inten    --     15.6223                 0.7663                 1.3357

                     31                     32                     33
                      A                      A                      A
 Frequencies --   1318.5940              1356.5429              1379.2655
 Red. masses --      1.3714                 1.2145                 1.2520
 Frc consts  --      1.4048                 1.3168                 1.4033
 IR Inten    --     25.5070                 4.0087                 8.7114

                     34                     35                     36
                      A                      A                      A
 Frequencies --   1413.1606              1421.2196              1450.2893
 Red. masses --      1.2719                 1.2395                 1.0901
 Frc consts  --      1.4965                 1.4750                 1.3509
 IR Inten    --      5.4828               102.1867                 3.6996

                     37                     38                     39
                      A                      A                      A
 Frequencies --   1474.4519              1491.0772              1493.3998
 Red. masses --      1.2449                 1.1081                 1.0797
 Frc consts  --      1.5946                 1.4515                 1.4187
 IR Inten    --      4.7017                 8.5850                 0.6251

                     40                     41                     42
                      A                      A                      A
 Frequencies --   1512.4171              2364.1825              2971.8828
 Red. masses --      1.8959                11.8603                 1.0717
 Frc consts  --      2.5551                39.0579                 5.5769
 IR Inten    --      8.1887                 6.9465                51.5316

                     43                     44                     45
                      A                      A                      A
 Frequencies --   3016.2499              3037.1287              3058.4788
 Red. masses --      1.0614                 1.0357                 1.0963
 Frc consts  --      5.6896                 5.6287                 6.0420
 IR Inten    --     16.8121                20.8723                10.4297

                     46                     47                     48
                      A                      A                      A
 Frequencies --   3059.1576              3083.7992              3102.1376
 Red. masses --      1.0889                 1.0876                 1.0987
 Frc consts  --      6.0043                 6.0936                 6.2297
 IR Inten    --     15.0549                15.1621                12.3446

                     49                     50                     51
                      A                      A                      A
 Frequencies --   3102.5466              3124.3700              3814.6185
 Red. masses --      1.0898                 1.1011                 1.0663
 Frc consts  --      6.1809                 6.3326                 9.1415
 IR Inten    --     32.7516                30.3952                19.9843

 - Thermochemistry -
 -------------------
 Temperature   298.150 Kelvin.  Pressure   1.00000 Atm.
 Atom     1 has atomic number  6 and mass  12.00000

 Molecular mass:   126.06808 amu.
 Principal axes and moments of inertia in atomic units:
                           1         2         3
     Eigenvalues --   342.127253373.532463526.10455
           X            1.00000  -0.00088   0.00116
           Y            0.00094   0.99883  -0.04827
           Z           -0.00112   0.04827   0.99883
 This molecule is an asymmetric top.
 Rotational symmetry number  1.
 Rotational temperatures (Kelvin)      0.25316     0.02567     0.02456
 Rotational constants (GHZ):           5.27506     0.53497     0.51182
 Zero-point vibrational energy     410639.4 (Joules/Mol)
                                   98.14516 (Kcal/Mol)
 Warning -- explicit consideration of  14 degrees of freedom as
           vibrations may cause significant error
 Vibrational temperatures:     33.08    67.59   106.63   188.46   276.08
          (Kelvin)            309.74   355.93   419.46   429.71   514.62
                              571.77   654.43   763.00   820.97  1089.53
                             1120.12  1270.04  1286.43  1419.04  1423.78
                             1469.30  1505.09  1555.04  1582.47  1662.00
                             1680.68  1688.68  1750.30  1790.18  1846.93
                             1897.16  1951.76  1984.45  2033.22  2044.82
                             2086.64  2121.40  2145.32  2148.67  2176.03
                             3401.53  4275.87  4339.71  4369.75  4400.46
                             4401.44  4436.89  4463.28  4463.87  4495.27
                             5488.38

 Zero-point correction=                           0.156404 (Hartree/Particle)
 Thermal correction to Energy=                    0.166841
 Thermal correction to Enthalpy=                  0.167785
 Thermal correction to Gibbs Free Energy=         0.118870
 Sum of electronic and zero-point Energies=           -422.973338
 Sum of electronic and thermal Energies=              -422.962901
 Sum of electronic and thermal Enthalpies=            -422.961957
 Sum of electronic and thermal Free Energies=         -423.010872

                     E (Thermal)             CV                S
                      KCal/Mol        Cal/Mol-Kelvin    Cal/Mol-Kelvin
 Total                  104.694             35.953            102.951
 Electronic               0.000              0.000              0.000
 Translational            0.889              2.981             40.409
 Rotational               0.889              2.981             29.788
 Vibrational            102.917             29.991             32.754
 Vibration     1          0.593              1.985              6.357
 Vibration     2          0.595              1.979              4.941
 Vibration     3          0.599              1.966              4.041
 Vibration     4          0.612              1.922              2.932
 Vibration     5          0.634              1.851              2.210
 Vibration     6          0.645              1.818              1.998
 Vibration     7          0.661              1.767              1.749
 Vibration     8          0.687              1.689              1.465
 Vibration     9          0.692              1.676              1.424
 Vibration    10          0.733              1.559              1.132
 Vibration    11          0.764              1.476              0.972
 Vibration    12          0.813              1.350              0.781
 Vibration    13          0.885              1.183              0.587
 Vibration    14          0.927              1.095              0.503

 Optimization completed.
    -- Stationary point found.
 Normal termination of Gaussian 09 at Tue Jan 28 08:39:34 2020.
