 Gaussian 09, Revision D.01,
 Gaussian 09:  ES64L-G09RevD.01 24-Apr-2013

 -----------------------------
 # b3lyp 6-31G(2df,p) opt Freq
 -----------------------------

 -----
 titel
 -----
 Symbolic Z-matrix:
 Charge =  0 Multiplicity = 1

 SCF Done:  E(RB3LYP) =  -423.199525467     A.U. after   14 cycles
 Optimization completed.
    -- Stationary point found.
 Normal termination of Gaussian 09 at Mon Jan 27 22:54:38 2020.

 ----------------------------------------------------------------------
 #N Geom=AllCheck Guess=TCheck SCRF=Check GenChk RB3LYP/6-31G(2df,p) Fr
 eq
 ----------------------------------------------------------------------

 Structure from the checkpoint file:  "/scratch/puck/g09_e22a8fe3-a97c-4c25-9941-519ad8168688/Gau-75170.chk"
 -----
 titel
 -----
 Charge =  0 Multiplicity = 1

                         Standard orientation:
 ---------------------------------------------------------------------
 Center     Atomic      Atomic             Coordinates (Angstroms)
 Number     Number       Type             X           Y           Z
 ---------------------------------------------------------------------
      1          6           0       -3.031414    0.046518   -0.429454
      2          6           0       -1.543227   -0.223898   -0.407967
      3          6           0       -0.831161   -0.445640    0.901439
      4          6           0        0.433307   -1.281939    0.848566
      5          6           0        1.301350   -0.613227   -0.230774
      6          8           0        2.211599   -1.124331   -0.824936
      7          6           0        0.814425    0.852358   -0.418199
      8          8           0        1.660931    1.736052    0.312878
      9          6           0       -0.602861    0.841250    0.104754
     10          1           0       -3.336590    0.636197    0.441378
     11          1           0       -3.321244    0.604212   -1.326291
     12          1           0       -3.602625   -0.887830   -0.415457
     13          1           0       -1.185876   -0.817057   -1.249643
     14          1           0       -1.417767   -0.429859    1.813301
     15          1           0        0.977666   -1.247290    1.802127
     16          1           0        0.280916   -2.337718    0.606620
     17          1           0        0.913738    1.148682   -1.465728
     18          1           0        1.492486    1.596659    1.251797
     19          1           0       -1.023460    1.787699    0.428175
 ---------------------------------------------------------------------

 SCF Done:  E(RB3LYP) =  -423.199525467     A.U. after    1 cycles

 The electronic state is 1-A.
 Alpha  occ. eigenvalues --  -19.14830 -19.13546 -10.26747 -10.23929 -10.20520
 Alpha  occ. eigenvalues --  -10.20387 -10.19823 -10.19811 -10.18887  -1.04869
 Alpha  occ. eigenvalues --   -1.02478  -0.89289  -0.76442  -0.72031  -0.69628
 Alpha  occ. eigenvalues --   -0.58947  -0.58243  -0.55530  -0.50554  -0.47630
 Alpha  occ. eigenvalues --   -0.46689  -0.45318  -0.42862  -0.41850  -0.41529
 Alpha  occ. eigenvalues --   -0.40208  -0.38842  -0.36934  -0.36190  -0.34352
 Alpha  occ. eigenvalues --   -0.31204  -0.28713  -0.28008  -0.23232
 Alpha virt. eigenvalues --   -0.02781   0.07033   0.09615   0.10154   0.10954
 Alpha virt. eigenvalues --    0.12778   0.14809   0.15185   0.15944   0.16737
 Alpha virt. eigenvalues --    0.17048   0.18317   0.19443   0.20330   0.22650

 Mulliken charges:
               1
     1  C   -0.420656
     2  C   -0.019887
     3  C   -0.061838
     4  C   -0.343253
     5  C    0.349286
     6  O   -0.302256
     7  C    0.038104
     8  O   -0.427571
     9  C   -0.100602
    10  H    0.117239
    11  H    0.124764
    12  H    0.122829
    13  H    0.092161
    14  H    0.088109
    15  H    0.127120
    16  H    0.132509
    17  H    0.108705
    18  H    0.282916
    19  H    0.092321
 Sum of Mulliken charges =   0.00000

 Dipole moment (field-independent basis, Debye):
    X=             -3.2903    Y=              0.1218    Z=              2.0184  Tot=              3.8620
 Quadrupole moment (field-independent basis, Debye-Ang):
   XX=            -60.2658   YY=            -55.9355   ZZ=            -49.7874
   XY=              0.6692   XZ=              4.3999   YZ=             -0.3402

  Exact polarizability:  85.285  -1.109  72.492  -0.572  -0.927  68.774
 Approx polarizability: 113.072  -1.241 109.520  -4.694   1.812 109.056

                      1                      2                      3
                      A                      A                      A
 Frequencies --     63.7342               145.6714               203.5341
 Red. masses --      4.8079                 2.9255                 1.5424
 Frc consts  --      0.0115                 0.0366                 0.0376
 IR Inten    --      1.4516                 5.8410                 0.9203

                      4                      5                      6
                      A                      A                      A
 Frequencies --    218.8694               253.3488               276.8807
 Red. masses --      1.8357                 3.5568                 1.5719
 Frc consts  --      0.0518                 0.1345                 0.0710
 IR Inten    --      1.1332                 2.3179                17.5817

                      7                      8                      9
                      A                      A                      A
 Frequencies --    294.5240               385.3177               411.6467
 Red. masses --      1.3866                 3.2646                 4.1825
 Frc consts  --      0.0709                 0.2856                 0.4176
 IR Inten    --     69.1069                 0.8461                 2.1881

                     10                     11                     12
                      A                      A                      A
 Frequencies --    463.0890               570.4657               656.4986
 Red. masses --      4.5369                 2.7467                 3.8271
 Frc consts  --      0.5732                 0.5267                 0.9718
 IR Inten    --     11.8857                 2.7432                 4.8091

                     13                     14                     15
                      A                      A                      A
 Frequencies --    707.1901               758.9226               795.2707
 Red. masses --      4.4970                 3.5523                 2.8982
 Frc consts  --      1.3251                 1.2055                 1.0800
 IR Inten    --      1.6905                 9.9315                 3.8267

                     16                     17                     18
                      A                      A                      A
 Frequencies --    835.8982               891.1542               955.8807
 Red. masses --      2.1828                 1.6214                 1.6397
 Frc consts  --      0.8986                 0.7586                 0.8827
 IR Inten    --      5.4203                13.4175                 0.6137

                     19                     20                     21
                      A                      A                      A
 Frequencies --    972.4496              1010.0074              1041.2299
 Red. masses --      1.6457                 2.2033                 3.1256
 Frc consts  --      0.9169                 1.3243                 1.9966
 IR Inten    --      0.0663                24.0927                82.8551

                     22                     23                     24
                      A                      A                      A
 Frequencies --   1051.3981              1067.8219              1095.1900
 Red. masses --      1.7790                 1.6252                 1.2138
 Frc consts  --      1.1587                 1.0918                 0.8578
 IR Inten    --     10.9176                 6.2562                 1.5706

                     25                     26                     27
                      A                      A                      A
 Frequencies --   1127.6770              1137.9560              1161.4851
 Red. masses --      2.4348                 1.9596                 2.2533
 Frc consts  --      1.8243                 1.4951                 1.7910
 IR Inten    --     18.8353                10.4114                15.5328

                     28                     29                     30
                      A                      A                      A
 Frequencies --   1174.7146              1213.9618              1246.0932
 Red. masses --      1.3439                 1.7218                 1.2951
 Frc consts  --      1.0926                 1.4950                 1.1848
 IR Inten    --      2.4520                 0.2110                12.7893

                     31                     32                     33
                      A                      A                      A
 Frequencies --   1268.1228              1274.4615              1318.7173
 Red. masses --      1.7121                 1.5963                 1.4709
 Frc consts  --      1.6222                 1.5276                 1.5071
 IR Inten    --      2.4715                10.6723                 2.4597

                     34                     35                     36
                      A                      A                      A
 Frequencies --   1330.4344              1415.8451              1418.8030
 Red. masses --      1.5774                 1.2549                 1.2350
 Frc consts  --      1.6450                 1.4822                 1.4648
 IR Inten    --      3.3914                58.2205                 7.0592

                     37                     38                     39
                      A                      A                      A
 Frequencies --   1446.1716              1456.1653              1492.7869
 Red. masses --      1.9833                 1.2385                 1.0447
 Frc consts  --      2.4439                 1.5473                 1.3716
 IR Inten    --      6.6269                 5.0580                 2.1116

                     40                     41                     42
                      A                      A                      A
 Frequencies --   1502.6106              1855.0243              3025.8247
 Red. masses --      1.0815                12.6264                 1.0664
 Frc consts  --      1.4387                25.5993                 5.7528
 IR Inten    --      5.5559               183.5190                20.3260

                     43                     44                     45
                      A                      A                      A
 Frequencies --   3030.0478              3086.0650              3089.7721
 Red. masses --      1.0352                 1.0859                 1.0947
 Frc consts  --      5.6000                 6.0932                 6.1574
 IR Inten    --     29.2998                17.3664                 9.3852

                     46                     47                     48
                      A                      A                      A
 Frequencies --   3092.7892              3095.9363              3110.8864
 Red. masses --      1.0950                 1.1015                 1.0936
 Frc consts  --      6.1709                 6.2206                 6.2355
 IR Inten    --      5.0460                22.0359                30.5517

                     49                     50                     51
                      A                      A                      A
 Frequencies --   3163.3327              3172.8106              3797.2932
 Red. masses --      1.0887                 1.0917                 1.0661
 Frc consts  --      6.4186                 6.4750                 9.0575
 IR Inten    --      8.9341                15.4255                14.7732

 - Thermochemistry -
 -------------------
 Temperature   298.150 Kelvin.  Pressure   1.00000 Atm.
 Atom     1 has atomic number  6 and mass  12.00000

 Molecular mass:   126.06808 amu.
 Principal axes and moments of inertia in atomic units:
                           1         2         3
     Eigenvalues --   649.621651428.605941704.48194
           X            0.99984   0.00244   0.01744
           Y           -0.00189   0.99949  -0.03187
           Z           -0.01751   0.03183   0.99934
 This molecule is an asymmetric top.
 Rotational symmetry number  1.
 Warning -- assumption of classical behavior for rotation
           may cause significant error
 Rotational temperatures (Kelvin)      0.13333     0.06063     0.05082
 Rotational constants (GHZ):           2.77814     1.26329     1.05882
 Zero-point vibrational energy     416490.5 (Joules/Mol)
                                   99.54363 (Kcal/Mol)
 Warning -- explicit consideration of  11 degrees of freedom as
           vibrations may cause significant error
 Vibrational temperatures:     91.70   209.59   292.84   314.90   364.51
          (Kelvin)            398.37   423.75   554.39   592.27   666.28
                              820.77   944.55  1017.49  1091.92  1144.22
                             1202.67  1282.17  1375.30  1399.14  1453.17
                             1498.10  1512.73  1536.36  1575.73  1622.47
                             1637.26  1671.12  1690.15  1746.62  1792.85
                             1824.54  1833.66  1897.34  1914.20  2037.08
                             2041.34  2080.72  2095.09  2147.78  2161.92
                             2668.96  4353.48  4359.56  4440.15  4445.49
                             4449.83  4454.36  4475.87  4551.32  4564.96
                             5463.45

 Zero-point correction=                           0.158633 (Hartree/Particle)
 Thermal correction to Energy=                    0.167386
 Thermal correction to Enthalpy=                  0.168331
 Thermal correction to Gibbs Free Energy=         0.125183
 Sum of electronic and zero-point Energies=           -423.040893
 Sum of electronic and thermal Energies=              -423.032139
 Sum of electronic and thermal Enthalpies=            -423.031195
 Sum of electronic and thermal Free Energies=         -423.074343

                     E (Thermal)             CV                S
                      KCal/Mol        Cal/Mol-Kelvin    Cal/Mol-Kelvin
 Total                  105.036             33.169             90.812
 Electronic               0.000              0.000              0.000
 Translational            0.889              2.981             40.409
 Rotational               0.889              2.981             28.849
 Vibrational            103.259             27.207             21.554
 Vibration     1          0.597              1.972              4.338
 Vibration     2          0.617              1.907              2.728
 Vibration     3          0.639              1.835              2.101
 Vibration     4          0.647              1.812              1.968
 Vibration     5          0.665              1.757              1.707
 Vibration     6          0.678              1.716              1.553
 Vibration     7          0.689              1.684              1.448
 Vibration     8          0.754              1.502              1.018
 Vibration     9          0.776              1.445              0.921
 Vibration    10          0.821              1.332              0.757
 Vibration    11          0.927              1.095              0.503

 Optimization completed.
    -- Stationary point found.
 Normal termination of Gaussian 09 at Mon Jan 27 23:39:27 2020.
