 Gaussian 09, Revision D.01,
 Gaussian 09:  ES64L-G09RevD.01 24-Apr-2013

 -----------------------------
 # b3lyp 6-31G(2df,p) opt Freq
 -----------------------------

 -----
 titel
 -----
 Symbolic Z-matrix:
 Charge =  0 Multiplicity = 1

 SCF Done:  E(RB3LYP) =  -423.154883397     A.U. after   13 cycles
 Optimization completed.
    -- Stationary point found.
 Normal termination of Gaussian 09 at Mon Jan 27 11:30:02 2020.

 ----------------------------------------------------------------------
 #N Geom=AllCheck Guess=TCheck SCRF=Check GenChk RB3LYP/6-31G(2df,p) Fr
 eq
 ----------------------------------------------------------------------

 Structure from the checkpoint file:  "/scratch/puck/g09_ccbea2da-f954-4776-9116-54288eb03b3e/Gau-61239.chk"
 -----
 titel
 -----
 Charge =  0 Multiplicity = 1

                         Standard orientation:
 ---------------------------------------------------------------------
 Center     Atomic      Atomic             Coordinates (Angstroms)
 Number     Number       Type             X           Y           Z
 ---------------------------------------------------------------------
      1          6           0        0.277005    1.752491    0.778106
      2          6           0        0.681155    1.134809   -0.541034
      3          8           0        1.773796    0.263407   -0.668650
      4          6           0        1.714797   -0.881873    0.155438
      5          8           0        0.508587   -1.581506    0.039184
      6          6           0       -0.569110   -0.820128    0.565449
      7          6           0       -1.896236   -0.978508   -0.216427
      8          6           0       -1.992135    0.574526   -0.352097
      9          6           0       -0.551015    0.656473    0.155043
     10          1           0        0.839950    1.518303    1.676735
     11          1           0       -0.104065    2.768525    0.742532
     12          1           0        0.592112    1.743820   -1.435037
     13          1           0        2.510497   -1.542314   -0.193433
     14          1           0        1.897839   -0.603999    1.209482
     15          1           0       -0.658947   -0.995137    1.647652
     16          1           0       -1.711675   -1.475858   -1.170139
     17          1           0       -2.712889   -1.482124    0.303288
     18          1           0       -2.186943    0.966854   -1.353658
     19          1           0       -2.711711    1.019984    0.341433
 ---------------------------------------------------------------------

 SCF Done:  E(RB3LYP) =  -423.154883397     A.U. after    1 cycles

 The electronic state is 1-A.
 Alpha  occ. eigenvalues --  -19.14597 -19.14479 -10.27363 -10.23770 -10.23502
 Alpha  occ. eigenvalues --  -10.19386 -10.18854 -10.18545 -10.18488  -1.07379
 Alpha  occ. eigenvalues --   -1.00809  -0.87405  -0.79657  -0.70369  -0.64844
 Alpha  occ. eigenvalues --   -0.62023  -0.58518  -0.54130  -0.52142  -0.51478
 Alpha  occ. eigenvalues --   -0.48405  -0.45041  -0.43368  -0.41971  -0.39750
 Alpha  occ. eigenvalues --   -0.38328  -0.37125  -0.35996  -0.33937  -0.31993
 Alpha  occ. eigenvalues --   -0.31222  -0.28093  -0.25720  -0.23431
 Alpha virt. eigenvalues --    0.07884   0.09184   0.09481   0.10402   0.13614
 Alpha virt. eigenvalues --    0.14374   0.14996   0.15812   0.16943   0.17709
 Alpha virt. eigenvalues --    0.18150   0.19156   0.19920   0.20665   0.22162

 Mulliken charges:
               1
     1  C   -0.412908
     2  C    0.083115
     3  O   -0.248803
     4  C    0.003233
     5  O   -0.244807
     6  C    0.064368
     7  C   -0.237843
     8  C   -0.333048
     9  C    0.283711
    10  H    0.116131
    11  H    0.116365
    12  H    0.103468
    13  H    0.121284
    14  H    0.080334
    15  H    0.068005
    16  H    0.122113
    17  H    0.103645
    18  H    0.105288
    19  H    0.106349
 Sum of Mulliken charges =   0.00000

 Dipole moment (field-independent basis, Debye):
    X=             -1.1092    Y=              0.7863    Z=              0.9178  Tot=              1.6404
 Quadrupole moment (field-independent basis, Debye-Ang):
   XX=            -52.8373   YY=            -53.9548   ZZ=            -52.2305
   XY=             -1.4764   XZ=              1.9681   YZ=             -0.9312

  Exact polarizability:  82.076  -0.638  76.030   1.338   0.447  65.651
 Approx polarizability: 110.899  -0.359 107.786  -1.901   1.200 101.996

                      1                      2                      3
                      A                      A                      A
 Frequencies --     98.5399               193.2860               277.6200
 Red. masses --      2.6215                 2.9986                 2.4690
 Frc consts  --      0.0150                 0.0660                 0.1121
 IR Inten    --      1.0746                 1.2199                 2.6113

                      4                      5                      6
                      A                      A                      A
 Frequencies --    308.9384               398.4635               418.7130
 Red. masses --      2.1673                 3.1860                 2.9870
 Frc consts  --      0.1219                 0.2980                 0.3085
 IR Inten    --      1.9662                 4.1568                 3.8160

                      7                      8                      9
                      A                      A                      A
 Frequencies --    487.1117               523.8429               555.2591
 Red. masses --      4.2444                 4.0756                 3.3733
 Frc consts  --      0.5934                 0.6589                 0.6128
 IR Inten    --      4.8597                 1.1036                 0.6564

                     10                     11                     12
                      A                      A                      A
 Frequencies --    682.0453               766.8866               772.4768
 Red. masses --      2.4954                 2.1058                 1.7345
 Frc consts  --      0.6839                 0.7297                 0.6098
 IR Inten    --      5.6615                10.1462                 1.8910

                     13                     14                     15
                      A                      A                      A
 Frequencies --    816.3738               863.6224               901.8488
 Red. masses --      2.0388                 2.1079                 1.8007
 Frc consts  --      0.8006                 0.9263                 0.8629
 IR Inten    --     11.8801                 7.1291                 2.0274

                     16                     17                     18
                      A                      A                      A
 Frequencies --    931.4048               937.1204               989.4751
 Red. masses --      2.3158                 2.3674                 3.8090
 Frc consts  --      1.1837                 1.2249                 2.1972
 IR Inten    --      4.6354                 1.8450                72.1176

                     19                     20                     21
                      A                      A                      A
 Frequencies --   1012.4851              1017.2670              1033.7758
 Red. masses --      1.8630                 1.9531                 3.5401
 Frc consts  --      1.1252                 1.1908                 2.2290
 IR Inten    --      6.0943                28.3021                29.9860

                     22                     23                     24
                      A                      A                      A
 Frequencies --   1070.1897              1103.0761              1110.8866
 Red. masses --      3.1601                 2.3193                 1.6489
 Frc consts  --      2.1324                 1.6627                 1.1989
 IR Inten    --     28.4442                11.1527                15.5314

                     25                     26                     27
                      A                      A                      A
 Frequencies --   1141.4207              1172.2607              1192.8001
 Red. masses --      1.6910                 2.1577                 1.7793
 Frc consts  --      1.2980                 1.7470                 1.4915
 IR Inten    --     13.5010                31.1693                 7.2772

                     28                     29                     30
                      A                      A                      A
 Frequencies --   1224.8392              1230.4483              1245.0333
 Red. masses --      2.4795                 1.3832                 1.3975
 Frc consts  --      2.1917                 1.2338                 1.2763
 IR Inten    --    120.8650                12.6792                17.2879

                     31                     32                     33
                      A                      A                      A
 Frequencies --   1274.6966              1286.6819              1308.9490
 Red. masses --      1.6261                 1.4493                 1.1767
 Frc consts  --      1.5567                 1.4137                 1.1878
 IR Inten    --      2.5362                 7.7708                 6.1724

                     34                     35                     36
                      A                      A                      A
 Frequencies --   1340.3303              1365.4234              1405.4745
 Red. masses --      1.7434                 1.3468                 1.4930
 Frc consts  --      1.8453                 1.4794                 1.7376
 IR Inten    --      2.2653                15.5634                17.7008

                     37                     38                     39
                      A                      A                      A
 Frequencies --   1448.1328              1471.3135              1484.3138
 Red. masses --      1.2081                 1.1199                 1.6551
 Frc consts  --      1.4927                 1.4284                 2.1484
 IR Inten    --     10.6320                 2.7653                26.2784

                     40                     41                     42
                      A                      A                      A
 Frequencies --   1494.9240              1518.8004              2935.1268
 Red. masses --      1.1260                 1.0980                 1.0708
 Frc consts  --      1.4826                 1.4922                 5.4351
 IR Inten    --      1.6729                 2.0905                71.4365

                     43                     44                     45
                      A                      A                      A
 Frequencies --   2990.1964              3050.8351              3079.7750
 Red. masses --      1.0846                 1.0581                 1.0590
 Frc consts  --      5.7137                 5.8026                 5.9181
 IR Inten    --     66.8982                40.9266                31.4274

                     46                     47                     48
                      A                      A                      A
 Frequencies --   3097.1428              3116.0042              3120.6643
 Red. masses --      1.1078                 1.0930                 1.0540
 Frc consts  --      6.2611                 6.2524                 6.0479
 IR Inten    --     15.4571                35.4075                10.2818

                     49                     50                     51
                      A                      A                      A
 Frequencies --   3140.2275              3160.1356              3205.9877
 Red. masses --      1.1085                 1.0908                 1.1155
 Frc consts  --      6.4404                 6.4181                 6.7555
 IR Inten    --     23.3196                16.1712                 8.6326

 - Thermochemistry -
 -------------------
 Temperature   298.150 Kelvin.  Pressure   1.00000 Atm.
 Atom     1 has atomic number  6 and mass  12.00000

 Molecular mass:   126.06808 amu.
 Principal axes and moments of inertia in atomic units:
                           1         2         3
     Eigenvalues --   686.12750 950.066441368.75685
           X            0.99969  -0.01013   0.02260
           Y            0.01006   0.99994   0.00298
           Z           -0.02263  -0.00276   0.99974
 This molecule is an asymmetric top.
 Rotational symmetry number  1.
 Warning -- assumption of classical behavior for rotation
           may cause significant error
 Rotational temperatures (Kelvin)      0.12624     0.09117     0.06328
 Rotational constants (GHZ):           2.63033     1.89959     1.31853
 Zero-point vibrational energy     423314.4 (Joules/Mol)
                                  101.17458 (Kcal/Mol)
 Warning -- explicit consideration of   9 degrees of freedom as
           vibrations may cause significant error
 Vibrational temperatures:    141.78   278.10   399.43   444.49   573.30
          (Kelvin)            602.43   700.84   753.69   798.89   981.31
                             1103.38  1111.42  1174.58  1242.56  1297.56
                             1340.08  1348.31  1423.63  1456.74  1463.62
                             1487.37  1539.76  1587.08  1598.32  1642.25
                             1686.62  1716.17  1762.27  1770.34  1791.32
                             1834.00  1851.25  1883.28  1928.43  1964.54
                             2022.16  2083.54  2116.89  2135.59  2150.86
                             2185.21  4222.99  4302.22  4389.47  4431.10
                             4456.09  4483.23  4489.93  4518.08  4546.72
                             4612.70

 Zero-point correction=                           0.161232 (Hartree/Particle)
 Thermal correction to Energy=                    0.168445
 Thermal correction to Enthalpy=                  0.169389
 Thermal correction to Gibbs Free Energy=         0.129709
 Sum of electronic and zero-point Energies=           -422.993651
 Sum of electronic and thermal Energies=              -422.986438
 Sum of electronic and thermal Enthalpies=            -422.985494
 Sum of electronic and thermal Free Energies=         -423.025175

                     E (Thermal)             CV                S
                      KCal/Mol        Cal/Mol-Kelvin    Cal/Mol-Kelvin
 Total                  105.701             29.241             83.515
 Electronic               0.000              0.000              0.000
 Translational            0.889              2.981             40.409
 Rotational               0.889              2.981             28.280
 Vibrational            103.923             23.280             14.826
 Vibration     1          0.604              1.950              3.483
 Vibration     2          0.635              1.849              2.196
 Vibration     3          0.679              1.715              1.548
 Vibration     4          0.698              1.657              1.368
 Vibration     5          0.765              1.473              0.968
 Vibration     6          0.782              1.430              0.896
 Vibration     7          0.843              1.279              0.691
 Vibration     8          0.879              1.197              0.601
 Vibration     9          0.911              1.128              0.533

 Normal termination of Gaussian 09 at Mon Jan 27 13:53:21 2020.
