 Gaussian 09, Revision D.01,
 Gaussian 09:  ES64L-G09RevD.01 24-Apr-2013

 -----------------------------
 # b3lyp 6-31G(2df,p) opt Freq
 -----------------------------

 -----
 titel
 -----
 Symbolic Z-matrix:
 Charge =  0 Multiplicity = 1

 SCF Done:  E(RB3LYP) =  -423.203695543     A.U. after   14 cycles
 Optimization completed.
    -- Stationary point found.
 Normal termination of Gaussian 09 at Tue Jan 28 03:54:57 2020.

 ----------------------------------------------------------------------
 #N Geom=AllCheck Guess=TCheck SCRF=Check GenChk RB3LYP/6-31G(2df,p) Fr
 eq
 ----------------------------------------------------------------------

 Structure from the checkpoint file:  "/scratch/puck/g09_1be74028-e7d9-4bc0-9228-ff08f5323db5/Gau-62857.chk"
 -----
 titel
 -----
 Charge =  0 Multiplicity = 1

                         Standard orientation:
 ---------------------------------------------------------------------
 Center     Atomic      Atomic             Coordinates (Angstroms)
 Number     Number       Type             X           Y           Z
 ---------------------------------------------------------------------
      1          6           0       -2.592576   -1.264317   -0.089579
      2          6           0       -1.492093   -0.304676    0.333190
      3          6           0       -1.610430    1.081818   -0.310329
      4          6           0       -0.336181    1.863917   -0.129225
      5          6           0        0.799053    1.278074    0.239407
      6          6           0        0.882730   -0.213593    0.440229
      7          8           0       -0.249904   -0.909029   -0.030960
      8          6           0        2.091218   -0.793291   -0.296495
      9          8           0        3.216913   -0.405080   -0.135277
     10          1           0       -3.575214   -0.857535    0.167543
     11          1           0       -2.556993   -1.428890   -1.171024
     12          1           0       -2.473244   -2.229806    0.408819
     13          1           0       -1.513122   -0.180420    1.429108
     14          1           0       -1.846272    0.978578   -1.379188
     15          1           0       -2.454404    1.621549    0.137653
     16          1           0       -0.368300    2.936660   -0.299574
     17          1           0        1.721628    1.826934    0.396602
     18          1           0        1.050946   -0.427227    1.514636
     19          1           0        1.828577   -1.614569   -0.997868
 ---------------------------------------------------------------------

 SCF Done:  E(RB3LYP) =  -423.203695543     A.U. after    1 cycles

 The electronic state is 1-A.
 Alpha  occ. eigenvalues --  -19.14893 -19.14527 -10.27373 -10.24656 -10.24154
 Alpha  occ. eigenvalues --  -10.19228 -10.19193 -10.18916 -10.18100  -1.05662
 Alpha  occ. eigenvalues --   -1.04321  -0.80849  -0.79850  -0.71186  -0.67619
 Alpha  occ. eigenvalues --   -0.61591  -0.57836  -0.53772  -0.51425  -0.49040
 Alpha  occ. eigenvalues --   -0.46572  -0.45176  -0.43869  -0.41766  -0.41146
 Alpha  occ. eigenvalues --   -0.39586  -0.38860  -0.37397  -0.36435  -0.35844
 Alpha  occ. eigenvalues --   -0.31571  -0.27222  -0.26302  -0.24324
 Alpha virt. eigenvalues --   -0.02893   0.01760   0.08341   0.11024   0.12030
 Alpha virt. eigenvalues --    0.13385   0.14102   0.15067   0.15836   0.16642
 Alpha virt. eigenvalues --    0.17327   0.17580   0.19559   0.21385   0.23457

 Mulliken charges:
               1
     1  C   -0.404621
     2  C    0.140832
     3  C   -0.257045
     4  C   -0.081947
     5  C   -0.073984
     6  C   -0.000187
     7  O   -0.285287
     8  C    0.132221
     9  O   -0.247076
    10  H    0.117163
    11  H    0.126161
    12  H    0.124622
    13  H    0.071214
    14  H    0.113842
    15  H    0.107739
    16  H    0.097631
    17  H    0.116320
    18  H    0.103447
    19  H    0.098952
 Sum of Mulliken charges =   0.00000

 Dipole moment (field-independent basis, Debye):
    X=             -2.9113    Y=              0.5724    Z=              0.4051  Tot=              2.9946
 Quadrupole moment (field-independent basis, Debye-Ang):
   XX=            -60.4207   YY=            -51.6087   ZZ=            -52.4263
   XY=             -0.5082   XZ=              0.4210   YZ=             -0.4763

  Exact polarizability:  98.573  -2.391  77.247   4.336   0.314  59.016
 Approx polarizability: 139.209  -7.162 108.798   9.935   0.001  93.305

                      1                      2                      3
                      A                      A                      A
 Frequencies --     43.7052                92.0590               139.5752
 Red. masses --      2.6236                 3.4781                 3.2660
 Frc consts  --      0.0030                 0.0174                 0.0375
 IR Inten    --     12.0405                 0.2984                 1.2273

                      4                      5                      6
                      A                      A                      A
 Frequencies --    195.6948               227.0829               291.9958
 Red. masses --      3.2173                 1.0656                 2.7515
 Frc consts  --      0.0726                 0.0324                 0.1382
 IR Inten    --      2.4957                 0.1333                 0.6837

                      7                      8                      9
                      A                      A                      A
 Frequencies --    338.2996               407.3980               458.1289
 Red. masses --      3.1591                 4.4682                 3.2439
 Frc consts  --      0.2130                 0.4369                 0.4011
 IR Inten    --      6.0039                 0.2415                 2.2545

                     10                     11                     12
                      A                      A                      A
 Frequencies --    470.6921               545.6828               589.2291
 Red. masses --      3.2006                 2.8922                 4.0996
 Frc consts  --      0.4178                 0.5074                 0.8386
 IR Inten    --      4.2221                 1.7298                 2.9950

                     13                     14                     15
                      A                      A                      A
 Frequencies --    712.3440               785.4065               841.6692
 Red. masses --      1.3653                 3.2047                 2.7536
 Frc consts  --      0.4082                 1.1647                 1.1493
 IR Inten    --     45.0763                 9.2136                 3.8828

                     16                     17                     18
                      A                      A                      A
 Frequencies --    858.7312               916.5934               934.6419
 Red. masses --      2.9334                 2.1700                 1.7122
 Frc consts  --      1.2745                 1.0741                 0.8813
 IR Inten    --     14.9122                15.8653                 5.2533

                     19                     20                     21
                      A                      A                      A
 Frequencies --    987.0739              1002.3382              1033.0976
 Red. masses --      1.6930                 1.2736                 1.9205
 Frc consts  --      0.9718                 0.7539                 1.2077
 IR Inten    --      3.1367                 0.7395                 7.1550

                     22                     23                     24
                      A                      A                      A
 Frequencies --   1074.2276              1083.6731              1126.0445
 Red. masses --      2.7489                 2.3257                 2.1564
 Frc consts  --      1.8690                 1.6091                 1.6110
 IR Inten    --     16.1421                10.7108                93.3819

                     25                     26                     27
                      A                      A                      A
 Frequencies --   1129.7604              1175.7205              1208.1980
 Red. masses --      2.0343                 2.0799                 1.4421
 Frc consts  --      1.5298                 1.6939                 1.2402
 IR Inten    --      2.4606                12.3654                46.2044

                     28                     29                     30
                      A                      A                      A
 Frequencies --   1237.6640              1277.3761              1309.2819
 Red. masses --      1.3234                 1.5814                 1.2388
 Frc consts  --      1.1944                 1.5203                 1.2512
 IR Inten    --      3.7357                 0.4494                17.7688

                     31                     32                     33
                      A                      A                      A
 Frequencies --   1324.7504              1372.9454              1393.0268
 Red. masses --      1.4021                 1.2465                 1.5454
 Frc consts  --      1.4497                 1.3844                 1.7669
 IR Inten    --      4.8868                 6.1266                11.6478

                     34                     35                     36
                      A                      A                      A
 Frequencies --   1399.4573              1403.4863              1416.7782
 Red. masses --      1.4296                 1.2806                 1.4429
 Frc consts  --      1.6496                 1.4862                 1.7064
 IR Inten    --      8.9688                 7.7877                15.5405

                     37                     38                     39
                      A                      A                      A
 Frequencies --   1469.7754              1484.2082              1499.5837
 Red. masses --      1.0988                 1.0488                 1.0531
 Frc consts  --      1.3985                 1.3613                 1.3952
 IR Inten    --      1.2565                 3.9277                 2.2645

                     40                     41                     42
                      A                      A                      A
 Frequencies --   1723.0995              1839.6538              2906.4922
 Red. masses --      6.8520                10.8608                 1.0788
 Frc consts  --     11.9863                21.6562                 5.3695
 IR Inten    --      0.9570               171.4654                46.2959

                     43                     44                     45
                      A                      A                      A
 Frequencies --   2907.0022              2959.7345              3008.7209
 Red. masses --      1.0851                 1.0826                 1.0633
 Frc consts  --      5.4025                 5.5873                 5.6711
 IR Inten    --     80.7049                37.1161                27.6000

                     46                     47                     48
                      A                      A                      A
 Frequencies --   3042.6755              3048.3769              3116.1757
 Red. masses --      1.0363                 1.0957                 1.1016
 Frc consts  --      5.6528                 5.9989                 6.3026
 IR Inten    --     16.7438                23.8222                23.9941

                     49                     50                     51
                      A                      A                      A
 Frequencies --   3123.2481              3160.6583              3195.5347
 Red. masses --      1.1021                 1.0865                 1.0958
 Frc consts  --      6.3339                 6.3947                 6.5928
 IR Inten    --     18.1741                11.8655                 8.5382

 - Thermochemistry -
 -------------------
 Temperature   298.150 Kelvin.  Pressure   1.00000 Atm.
 Atom     1 has atomic number  6 and mass  12.00000

 Molecular mass:   126.06808 amu.
 Principal axes and moments of inertia in atomic units:
                           1         2         3
     Eigenvalues --   578.801391558.822032021.28650
           X            0.99980   0.01926   0.00485
           Y           -0.01927   0.99981   0.00053
           Z           -0.00484  -0.00063   0.99999
 This molecule is an asymmetric top.
 Rotational symmetry number  1.
 Warning -- assumption of classical behavior for rotation
           may cause significant error
 Rotational temperatures (Kelvin)      0.14964     0.05556     0.04285
 Rotational constants (GHZ):           3.11807     1.15776     0.89287
 Zero-point vibrational energy     414438.9 (Joules/Mol)
                                   99.05327 (Kcal/Mol)
 Warning -- explicit consideration of  12 degrees of freedom as
           vibrations may cause significant error
 Vibrational temperatures:     62.88   132.45   200.82   281.56   326.72
          (Kelvin)            420.12   486.74   586.15   659.14   677.22
                              785.11   847.77  1024.90  1130.02  1210.97
                             1235.52  1318.77  1344.74  1420.18  1442.14
                             1486.40  1545.57  1559.16  1620.12  1625.47
                             1691.60  1738.33  1780.72  1837.86  1883.76
                             1906.02  1975.36  2004.25  2013.50  2019.30
                             2038.43  2114.68  2135.44  2157.56  2479.15
                             2646.85  4181.79  4182.52  4258.39  4328.87
                             4377.73  4385.93  4483.48  4493.65  4547.48
                             4597.66

 Zero-point correction=                           0.157851 (Hartree/Particle)
 Thermal correction to Energy=                    0.166764
 Thermal correction to Enthalpy=                  0.167708
 Thermal correction to Gibbs Free Energy=         0.123476
 Sum of electronic and zero-point Energies=           -423.045844
 Sum of electronic and thermal Energies=              -423.036932
 Sum of electronic and thermal Enthalpies=            -423.035988
 Sum of electronic and thermal Free Energies=         -423.080219

                     E (Thermal)             CV                S
                      KCal/Mol        Cal/Mol-Kelvin    Cal/Mol-Kelvin
 Total                  104.646             32.707             93.093
 Electronic               0.000              0.000              0.000
 Translational            0.889              2.981             40.409
 Rotational               0.889              2.981             28.991
 Vibrational            102.868             26.745             23.694
 Vibration     1          0.595              1.980              5.084
 Vibration     2          0.602              1.955              3.616
 Vibration     3          0.615              1.914              2.810
 Vibration     4          0.636              1.846              2.173
 Vibration     5          0.651              1.800              1.902
 Vibration     6          0.687              1.689              1.462
 Vibration     7          0.719              1.599              1.220
 Vibration     8          0.772              1.454              0.936
 Vibration     9          0.816              1.343              0.772
 Vibration    10          0.828              1.315              0.736
 Vibration    11          0.901              1.149              0.553
 Vibration    12          0.947              1.055              0.469

 Optimization completed.
    -- Stationary point found.
 Normal termination of Gaussian 09 at Tue Jan 28 04:37:21 2020.
