 Gaussian 09, Revision D.01,
 Gaussian 09:  ES64L-G09RevD.01 24-Apr-2013

 -----------------------------
 # b3lyp 6-31G(2df,p) opt Freq
 -----------------------------

 -----
 titel
 -----
 Symbolic Z-matrix:
 Charge =  0 Multiplicity = 1

 SCF Done:  E(RB3LYP) =  -423.175393208     A.U. after   14 cycles
 Optimization completed.
    -- Stationary point found.
 Normal termination of Gaussian 09 at Mon Jan 27 13:36:16 2020.

 ----------------------------------------------------------------------
 #N Geom=AllCheck Guess=TCheck SCRF=Check GenChk RB3LYP/6-31G(2df,p) Fr
 eq
 ----------------------------------------------------------------------

 Structure from the checkpoint file:  "/scratch/puck/g09_939a0694-cbf8-4a4c-8519-031a17739b5f/Gau-102117.chk"
 -----
 titel
 -----
 Charge =  0 Multiplicity = 1

                         Standard orientation:
 ---------------------------------------------------------------------
 Center     Atomic      Atomic             Coordinates (Angstroms)
 Number     Number       Type             X           Y           Z
 ---------------------------------------------------------------------
      1          8           0       -3.294848    0.018816    0.467596
      2          6           0       -2.269274    0.413688   -0.025627
      3          6           0       -1.266167   -0.478521   -0.733267
      4          6           0        0.146832   -0.264040   -0.241659
      5          6           0        1.379022   -1.093509   -0.691400
      6          6           0        2.018217   -0.339308    0.517596
      7          6           0        0.632154   -0.490741    1.217549
      8          6           0        1.910375    1.106264    0.020560
      9          8           0        0.564090    1.093601   -0.509590
     10          1           0       -1.986606    1.487099    0.003297
     11          1           0       -1.571822   -1.520438   -0.609410
     12          1           0       -1.296874   -0.229568   -1.803621
     13          1           0        1.269165   -2.164214   -0.512172
     14          1           0        1.768146   -0.898733   -1.694082
     15          1           0        2.952922   -0.651061    0.980645
     16          1           0        0.446948   -1.502873    1.580327
     17          1           0        0.341099    0.252830    1.963903
     18          1           0        1.993000    1.852220    0.819397
     19          1           0        2.623135    1.352402   -0.774843
 ---------------------------------------------------------------------

 SCF Done:  E(RB3LYP) =  -423.175393208     A.U. after    1 cycles

 The electronic state is 1-A.
 Alpha  occ. eigenvalues --  -19.14129 -19.13592 -10.26767 -10.25240 -10.23205
 Alpha  occ. eigenvalues --  -10.20663 -10.19544 -10.19266 -10.19194  -1.04776
 Alpha  occ. eigenvalues --   -1.04174  -0.84325  -0.78315  -0.70121  -0.67589
 Alpha  occ. eigenvalues --   -0.59077  -0.57379  -0.55362  -0.51853  -0.48327
 Alpha  occ. eigenvalues --   -0.47133  -0.46355  -0.43618  -0.43119  -0.38648
 Alpha  occ. eigenvalues --   -0.37990  -0.37402  -0.36806  -0.36143  -0.34177
 Alpha  occ. eigenvalues --   -0.32596  -0.31291  -0.25709  -0.23881
 Alpha virt. eigenvalues --   -0.01945   0.08353   0.09471   0.10911   0.12564
 Alpha virt. eigenvalues --    0.13789   0.14296   0.14991   0.15208   0.16220
 Alpha virt. eigenvalues --    0.17163   0.18688   0.19097   0.19763   0.20976

 Mulliken charges:
               1
     1  O   -0.244332
     2  C    0.158479
     3  C   -0.392292
     4  C    0.439965
     5  C   -0.276587
     6  C   -0.074314
     7  C   -0.268781
     8  C   -0.076094
     9  O   -0.318067
    10  H    0.098917
    11  H    0.121261
    12  H    0.130974
    13  H    0.104835
    14  H    0.100499
    15  H    0.077785
    16  H    0.107717
    17  H    0.103574
    18  H    0.103358
    19  H    0.103105
 Sum of Mulliken charges =   0.00000

 Dipole moment (field-independent basis, Debye):
    X=              3.2437    Y=             -0.7637    Z=             -0.4092  Tot=              3.3574
 Quadrupole moment (field-independent basis, Debye-Ang):
   XX=            -61.5456   YY=            -52.5036   ZZ=            -52.3635
   XY=             -0.4506   XZ=              3.9352   YZ=              1.0985

  Exact polarizability:  87.148   3.166  72.171  -3.170   1.474  67.684
 Approx polarizability: 118.993   5.906 108.603  -7.504  -0.822 103.744

                      1                      2                      3
                      A                      A                      A
 Frequencies --     48.6940                74.5900               153.0883
 Red. masses --      4.5517                 3.3813                 2.9030
 Frc consts  --      0.0064                 0.0111                 0.0401
 IR Inten    --      6.2075                 1.8343                 2.7303

                      4                      5                      6
                      A                      A                      A
 Frequencies --    281.1333               339.2919               380.3000
 Red. masses --      2.8644                 2.8534                 2.3021
 Frc consts  --      0.1334                 0.1935                 0.1962
 IR Inten    --      2.8347                 4.7227                 1.2677

                      7                      8                      9
                      A                      A                      A
 Frequencies --    451.4358               490.9091               520.4492
 Red. masses --      3.3167                 2.3944                 1.8331
 Frc consts  --      0.3982                 0.3400                 0.2925
 IR Inten    --     11.8556                 0.9785                 1.8837

                     10                     11                     12
                      A                      A                      A
 Frequencies --    643.4380               669.3773               814.9032
 Red. masses --      3.1373                 2.5846                 2.1048
 Frc consts  --      0.7653                 0.6823                 0.8235
 IR Inten    --      3.3057                 0.8084                 6.5008

                     13                     14                     15
                      A                      A                      A
 Frequencies --    825.3324               862.4834               877.2363
 Red. masses --      2.6155                 4.6523                 1.8390
 Frc consts  --      1.0497                 2.0390                 0.8338
 IR Inten    --      0.1657                 8.0103                 1.4223

                     16                     17                     18
                      A                      A                      A
 Frequencies --    910.7127               930.3905               958.2313
 Red. masses --      2.5091                 2.3192                 1.8359
 Frc consts  --      1.2261                 1.1828                 0.9932
 IR Inten    --      0.3976                14.2635                21.9776

                     19                     20                     21
                      A                      A                      A
 Frequencies --    964.5775               987.4107              1016.3801
 Red. masses --      1.6061                 4.8207                 1.3888
 Frc consts  --      0.8804                 2.7692                 0.8453
 IR Inten    --      1.9170                54.3360                 2.2361

                     22                     23                     24
                      A                      A                      A
 Frequencies --   1048.7847              1072.9745              1095.8325
 Red. masses --      2.1123                 1.4509                 1.6220
 Frc consts  --      1.3689                 0.9842                 1.1476
 IR Inten    --     27.4141                11.6715                19.0003

                     25                     26                     27
                      A                      A                      A
 Frequencies --   1115.6496              1150.6226              1153.9079
 Red. masses --      1.7953                 1.5853                 1.6420
 Frc consts  --      1.3166                 1.2366                 1.2881
 IR Inten    --     10.5251                 2.3193                 9.8729

                     28                     29                     30
                      A                      A                      A
 Frequencies --   1190.3826              1212.4477              1243.8016
 Red. masses --      1.1982                 1.6704                 1.4746
 Frc consts  --      1.0003                 1.4467                 1.3440
 IR Inten    --      0.2698                 7.9369                 6.4566

                     31                     32                     33
                      A                      A                      A
 Frequencies --   1252.3144              1292.2385              1296.4971
 Red. masses --      1.5074                 1.7253                 1.6969
 Frc consts  --      1.3929                 1.6975                 1.6805
 IR Inten    --     13.0702                 5.5008                 2.8227

                     34                     35                     36
                      A                      A                      A
 Frequencies --   1345.1035              1370.0641              1421.7839
 Red. masses --      2.2370                 1.7433                 1.2173
 Frc consts  --      2.3847                 1.9280                 1.4498
 IR Inten    --     32.8874                11.7326                 8.2650

                     37                     38                     39
                      A                      A                      A
 Frequencies --   1448.0039              1475.0807              1506.3990
 Red. masses --      1.1052                 1.1016                 1.1376
 Frc consts  --      1.3653                 1.4122                 1.5210
 IR Inten    --      7.7812                 2.4197                 3.8885

                     40                     41                     42
                      A                      A                      A
 Frequencies --   1532.3898              1830.8643              2917.2567
 Red. masses --      1.1159                 9.8728                 1.0840
 Frc consts  --      1.5439                19.4986                 5.4352
 IR Inten    --      0.2685               179.9105                66.1077

                     43                     44                     45
                      A                      A                      A
 Frequencies --   3020.7814              3026.5271              3063.2959
 Red. masses --      1.0652                 1.0557                 1.0620
 Frc consts  --      5.7267                 5.6975                 5.8716
 IR Inten    --      7.6608                68.6915                21.4090

                     46                     47                     48
                      A                      A                      A
 Frequencies --   3068.8162              3070.0941              3110.0717
 Red. masses --      1.1042                 1.0598                 1.0958
 Frc consts  --      6.1267                 5.8853                 6.2448
 IR Inten    --     56.5321                 3.4351                 5.9714

                     49                     50                     51
                      A                      A                      A
 Frequencies --   3133.1332              3133.5770              3140.5252
 Red. masses --      1.1087                 1.0943                 1.1054
 Frc consts  --      6.4125                 6.3311                 6.4236
 IR Inten    --     13.2580                30.9454                35.2001

 - Thermochemistry -
 -------------------
 Temperature   298.150 Kelvin.  Pressure   1.00000 Atm.
 Atom     1 has atomic number  8 and mass  15.99491

 Molecular mass:   126.06808 amu.
 Principal axes and moments of inertia in atomic units:
                           1         2         3
     Eigenvalues --   475.845781677.663981747.83871
           X            0.99995  -0.00093   0.00973
           Y           -0.00003   0.99521   0.09779
           Z           -0.00977  -0.09778   0.99516
 This molecule is an asymmetric top.
 Rotational symmetry number  1.
 Warning -- assumption of classical behavior for rotation
           may cause significant error
 Rotational temperatures (Kelvin)      0.18202     0.05163     0.04955
 Rotational constants (GHZ):           3.79270     1.07575     1.03256
 Zero-point vibrational energy     418331.6 (Joules/Mol)
                                   99.98366 (Kcal/Mol)
 Warning -- explicit consideration of   9 degrees of freedom as
           vibrations may cause significant error
 Vibrational temperatures:     70.06   107.32   220.26   404.49   488.16
          (Kelvin)            547.17   649.51   706.31   748.81   925.76
                              963.08  1172.46  1187.47  1240.92  1262.15
                             1310.31  1338.62  1378.68  1387.81  1420.66
                             1462.34  1508.97  1543.77  1576.66  1605.17
                             1655.49  1660.21  1712.69  1744.44  1789.55
                             1801.80  1859.24  1865.37  1935.30  1971.21
                             2045.63  2083.35  2122.31  2167.37  2204.76
                             2634.20  4197.28  4346.23  4354.49  4407.39
                             4415.34  4417.18  4474.69  4507.87  4508.51
                             4518.51

 Zero-point correction=                           0.159334 (Hartree/Particle)
 Thermal correction to Energy=                    0.167343
 Thermal correction to Enthalpy=                  0.168287
 Thermal correction to Gibbs Free Energy=         0.125858
 Sum of electronic and zero-point Energies=           -423.016059
 Sum of electronic and thermal Energies=              -423.008051
 Sum of electronic and thermal Enthalpies=            -423.007106
 Sum of electronic and thermal Free Energies=         -423.049535

                     E (Thermal)             CV                S
                      KCal/Mol        Cal/Mol-Kelvin    Cal/Mol-Kelvin
 Total                  105.009             30.543             89.299
 Electronic               0.000              0.000              0.000
 Translational            0.889              2.981             40.409
 Rotational               0.889              2.981             28.725
 Vibrational            103.232             24.581             20.166
 Vibration     1          0.595              1.978              4.870
 Vibration     2          0.599              1.966              4.028
 Vibration     3          0.619              1.899              2.633
 Vibration     4          0.681              1.709              1.527
 Vibration     5          0.719              1.597              1.215
 Vibration     6          0.750              1.512              1.038
 Vibration     7          0.810              1.358              0.791
 Vibration     8          0.847              1.270              0.681
 Vibration     9          0.875              1.205              0.609

 Optimization completed.
    -- Stationary point found.
 Normal termination of Gaussian 09 at Mon Jan 27 14:18:27 2020.
