 Gaussian 09, Revision D.01,
 Gaussian 09:  ES64L-G09RevD.01 24-Apr-2013

 -----------------------------
 # b3lyp 6-31G(2df,p) opt Freq
 -----------------------------

 -----
 titel
 -----
 Symbolic Z-matrix:
 Charge =  0 Multiplicity = 1

 SCF Done:  E(RB3LYP) =  -423.200852058     A.U. after   14 cycles
 Optimization completed.
    -- Stationary point found.
 Normal termination of Gaussian 09 at Mon Jan 27 13:11:37 2020.

 ----------------------------------------------------------------------
 #N Geom=AllCheck Guess=TCheck SCRF=Check GenChk RB3LYP/6-31G(2df,p) Fr
 eq
 ----------------------------------------------------------------------

 Structure from the checkpoint file:  "/scratch/puck/g09_30e46fae-6355-479c-bc55-07294e5688cb/Gau-48063.chk"
 -----
 titel
 -----
 Charge =  0 Multiplicity = 1

                         Standard orientation:
 ---------------------------------------------------------------------
 Center     Atomic      Atomic             Coordinates (Angstroms)
 Number     Number       Type             X           Y           Z
 ---------------------------------------------------------------------
      1          8           0       -0.838493    2.052410   -0.131677
      2          6           0       -0.121336    1.077945   -0.057886
      3          6           0        1.373798    1.202854    0.220909
      4          6           0        2.193509   -0.034105   -0.172271
      5          6           0        1.439779   -1.301119    0.220344
      6          8           0        0.193393   -1.354420   -0.461682
      7          6           0       -0.680437   -0.315783   -0.117725
      8          6           0       -1.785517   -0.627251    0.897171
      9          6           0       -2.097683   -0.500696   -0.566485
     10          1           0        1.734022    2.122713   -0.247153
     11          1           0        1.448971    1.360840    1.306753
     12          1           0        2.355259   -0.053676   -1.255798
     13          1           0        3.179399   -0.009476    0.304869
     14          1           0        1.983499   -2.200827   -0.079318
     15          1           0        1.283626   -1.341993    1.310972
     16          1           0       -1.752805   -1.623133    1.324348
     17          1           0       -2.098512    0.169167    1.562434
     18          1           0       -2.294132   -1.410326   -1.121550
     19          1           0       -2.611205    0.391727   -0.903026
 ---------------------------------------------------------------------

 SCF Done:  E(RB3LYP) =  -423.200852058     A.U. after    1 cycles

 The electronic state is 1-A.
 Alpha  occ. eigenvalues --  -19.15220 -19.12581 -10.26833 -10.24522 -10.23697
 Alpha  occ. eigenvalues --  -10.19627 -10.19493 -10.19473 -10.18981  -1.05319
 Alpha  occ. eigenvalues --   -1.03388  -0.85766  -0.79953  -0.71931  -0.63206
 Alpha  occ. eigenvalues --   -0.62510  -0.60458  -0.53691  -0.50316  -0.49133
 Alpha  occ. eigenvalues --   -0.46320  -0.44760  -0.44140  -0.42707  -0.41114
 Alpha  occ. eigenvalues --   -0.39498  -0.38123  -0.37065  -0.34130  -0.33597
 Alpha  occ. eigenvalues --   -0.32295  -0.30573  -0.25927  -0.23070
 Alpha virt. eigenvalues --   -0.01900   0.08528   0.10477   0.11579   0.12899
 Alpha virt. eigenvalues --    0.13131   0.14312   0.14658   0.16018   0.16862
 Alpha virt. eigenvalues --    0.18146   0.19154   0.19521   0.20698   0.22794

 Mulliken charges:
               1
     1  O   -0.326424
     2  C    0.326439
     3  C   -0.314341
     4  C   -0.215449
     5  C   -0.089869
     6  O   -0.297776
     7  C    0.327216
     8  C   -0.309731
     9  C   -0.310081
    10  H    0.129701
    11  H    0.133711
    12  H    0.116923
    13  H    0.102389
    14  H    0.110822
    15  H    0.090612
    16  H    0.124119
    17  H    0.131180
    18  H    0.128217
    19  H    0.142343
 Sum of Mulliken charges =   0.00000

 Dipole moment (field-independent basis, Debye):
    X=              1.8692    Y=             -1.4835    Z=              1.0145  Tot=              2.5930
 Quadrupole moment (field-independent basis, Debye-Ang):
   XX=            -49.7332   YY=            -58.7181   ZZ=            -51.8995
   XY=              2.8418   XZ=              0.3116   YZ=             -0.5529

  Exact polarizability:  88.575   0.539  76.819   0.891  -1.332  63.414
 Approx polarizability: 116.454  -3.960 114.773   1.608  -2.057  99.971

                      1                      2                      3
                      A                      A                      A
 Frequencies --     66.0039               125.6509               234.4979
 Red. masses --      3.8745                 2.5006                 2.8165
 Frc consts  --      0.0099                 0.0233                 0.0913
 IR Inten    --      4.3106                 0.3812                 1.2117

                      4                      5                      6
                      A                      A                      A
 Frequencies --    272.2289               296.8155               380.5797
 Red. masses --      2.6935                 2.0639                 3.6405
 Frc consts  --      0.1176                 0.1071                 0.3107
 IR Inten    --      4.4267                 0.9045                 7.2618

                      7                      8                      9
                      A                      A                      A
 Frequencies --    426.0213               444.4780               510.4083
 Red. masses --      3.8619                 3.9210                 3.0065
 Frc consts  --      0.4130                 0.4564                 0.4615
 IR Inten    --      3.1517                 4.2441                 9.6033

                     10                     11                     12
                      A                      A                      A
 Frequencies --    569.0084               632.1518               658.2214
 Red. masses --      2.4392                 4.1264                 3.0445
 Frc consts  --      0.4653                 0.9715                 0.7772
 IR Inten    --      0.0737                 2.8922                 2.0725

                     13                     14                     15
                      A                      A                      A
 Frequencies --    779.2242               820.7402               845.0937
 Red. masses --      1.0990                 2.2517                 2.2768
 Frc consts  --      0.3932                 0.8937                 0.9580
 IR Inten    --      0.1031                 8.7376                 4.9456

                     16                     17                     18
                      A                      A                      A
 Frequencies --    867.9771               904.9873               931.5937
 Red. masses --      2.4081                 2.1103                 2.1330
 Frc consts  --      1.0689                 1.0183                 1.0907
 IR Inten    --      2.3142                 7.2541                 7.3953

                     19                     20                     21
                      A                      A                      A
 Frequencies --    957.4520              1002.3440              1019.3912
 Red. masses --      1.5357                 2.9968                 1.6412
 Frc consts  --      0.8294                 1.7740                 1.0048
 IR Inten    --      7.1057                10.7821                26.5240

                     22                     23                     24
                      A                      A                      A
 Frequencies --   1051.6939              1082.1001              1098.4592
 Red. masses --      1.3221                 1.5792                 1.8055
 Frc consts  --      0.8616                 1.0895                 1.2836
 IR Inten    --      4.7465                 3.0393                 5.6556

                     25                     26                     27
                      A                      A                      A
 Frequencies --   1111.7385              1141.8055              1202.1001
 Red. masses --      3.8733                 2.7345                 1.2780
 Frc consts  --      2.8205                 2.1005                 1.0880
 IR Inten    --     83.5069                49.8628                 0.8466

                     28                     29                     30
                      A                      A                      A
 Frequencies --   1211.8718              1227.3270              1289.8482
 Red. masses --      1.3876                 1.5360                 2.3940
 Frc consts  --      1.2007                 1.3632                 2.3467
 IR Inten    --      2.0626                 9.9063                73.0955

                     31                     32                     33
                      A                      A                      A
 Frequencies --   1297.0125              1339.8842              1350.3206
 Red. masses --      1.3284                 1.7076                 2.1963
 Frc consts  --      1.3166                 1.8062                 2.3594
 IR Inten    --     16.7028                22.9706                54.5102

                     34                     35                     36
                      A                      A                      A
 Frequencies --   1376.5741              1406.1499              1437.3650
 Red. masses --      1.5064                 1.3394                 1.0930
 Frc consts  --      1.6819                 1.5604                 1.3305
 IR Inten    --      4.3293                 6.3158                 4.0053

                     37                     38                     39
                      A                      A                      A
 Frequencies --   1451.4585              1472.2454              1484.2535
 Red. masses --      1.0870                 1.3670                 1.0959
 Frc consts  --      1.3492                 1.7457                 1.4224
 IR Inten    --      6.5030                 8.0686                 3.6811

                     40                     41                     42
                      A                      A                      A
 Frequencies --   1501.2158              1793.2126              2974.1436
 Red. masses --      1.1115                12.0571                 1.0704
 Frc consts  --      1.4758                22.8433                 5.5784
 IR Inten    --      3.0968               130.2710                45.8580

                     43                     44                     45
                      A                      A                      A
 Frequencies --   3015.7467              3039.4667              3082.8118
 Red. masses --      1.0694                 1.0596                 1.1016
 Frc consts  --      5.7305                 5.7674                 6.1684
 IR Inten    --      7.8606                26.9839                27.6826

                     46                     47                     48
                      A                      A                      A
 Frequencies --   3094.4671              3100.0732              3138.3945
 Red. masses --      1.0931                 1.0944                 1.0523
 Frc consts  --      6.1672                 6.1967                 6.1066
 IR Inten    --     36.7720                14.3001                 6.9518

                     49                     50                     51
                      A                      A                      A
 Frequencies --   3147.9327              3232.8224              3249.2365
 Red. masses --      1.0535                 1.1197                 1.1174
 Frc consts  --      6.1507                 6.8950                 6.9504
 IR Inten    --      5.8915                 1.3409                 1.9073

 - Thermochemistry -
 -------------------
 Temperature   298.150 Kelvin.  Pressure   1.00000 Atm.
 Atom     1 has atomic number  8 and mass  15.99491

 Molecular mass:   126.06808 amu.
 Principal axes and moments of inertia in atomic units:
                           1         2         3
     Eigenvalues --   733.495431038.003771554.34861
           X            0.99889   0.04703   0.00156
           Y           -0.04702   0.99887  -0.00658
           Z           -0.00187   0.00650   0.99998
 This molecule is an asymmetric top.
 Rotational symmetry number  1.
 Warning -- assumption of classical behavior for rotation
           may cause significant error
 Rotational temperatures (Kelvin)      0.11808     0.08344     0.05572
 Rotational constants (GHZ):           2.46047     1.73867     1.16109
 Zero-point vibrational energy     419569.8 (Joules/Mol)
                                  100.27960 (Kcal/Mol)
 Warning -- explicit consideration of  10 degrees of freedom as
           vibrations may cause significant error
 Vibrational temperatures:     94.96   180.78   337.39   391.68   427.05
          (Kelvin)            547.57   612.95   639.50   734.36   818.68
                              909.52   947.03  1121.13  1180.86  1215.90
                             1248.82  1302.07  1340.35  1377.56  1442.15
                             1466.67  1513.15  1556.90  1580.44  1599.54
                             1642.80  1729.55  1743.61  1765.85  1855.80
                             1866.11  1927.79  1942.81  1980.58  2023.13
                             2068.05  2088.32  2118.23  2135.51  2159.91
                             2580.03  4279.12  4338.98  4373.11  4435.47
                             4452.24  4460.31  4515.44  4529.17  4651.30
                             4674.92

 Zero-point correction=                           0.159806 (Hartree/Particle)
 Thermal correction to Energy=                    0.167826
 Thermal correction to Enthalpy=                  0.168771
 Thermal correction to Gibbs Free Energy=         0.127115
 Sum of electronic and zero-point Energies=           -423.041046
 Sum of electronic and thermal Energies=              -423.033026
 Sum of electronic and thermal Enthalpies=            -423.032081
 Sum of electronic and thermal Free Energies=         -423.073737

                     E (Thermal)             CV                S
                      KCal/Mol        Cal/Mol-Kelvin    Cal/Mol-Kelvin
 Total                  105.313             31.314             87.671
 Electronic               0.000              0.000              0.000
 Translational            0.889              2.981             40.409
 Rotational               0.889              2.981             28.561
 Vibrational            103.535             25.352             18.702
 Vibration     1          0.597              1.970              4.269
 Vibration     2          0.611              1.927              3.012
 Vibration     3          0.654              1.788              1.844
 Vibration     4          0.675              1.724              1.582
 Vibration     5          0.690              1.680              1.435
 Vibration     6          0.750              1.512              1.037
 Vibration     7          0.788              1.414              0.872
 Vibration     8          0.804              1.373              0.813
 Vibration     9          0.866              1.227              0.633
 Vibration    10          0.925              1.098              0.506

 Optimization completed.
    -- Stationary point found.
 Normal termination of Gaussian 09 at Mon Jan 27 13:55:33 2020.
