 Gaussian 09, Revision D.01,
 Gaussian 09:  ES64L-G09RevD.01 24-Apr-2013

 -----------------------------
 # b3lyp 6-31G(2df,p) opt Freq
 -----------------------------

 -----
 titel
 -----
 Symbolic Z-matrix:
 Charge =  0 Multiplicity = 1

 SCF Done:  E(RB3LYP) =  -423.171087183     A.U. after   14 cycles
 Optimization completed.
    -- Stationary point found.
 Normal termination of Gaussian 09 at Tue Jan 28 00:43:38 2020.

 ----------------------------------------------------------------------
 #N Geom=AllCheck Guess=TCheck SCRF=Check GenChk RB3LYP/6-31G(2df,p) Fr
 eq
 ----------------------------------------------------------------------

 Structure from the checkpoint file:  "/scratch/puck/g09_add98371-07c9-4dfa-b64a-ea3a7141abd6/Gau-189747.chk"
 -----
 titel
 -----
 Charge =  0 Multiplicity = 1

                         Standard orientation:
 ---------------------------------------------------------------------
 Center     Atomic      Atomic             Coordinates (Angstroms)
 Number     Number       Type             X           Y           Z
 ---------------------------------------------------------------------
      1          8           0       -3.046863   -0.277254   -0.355991
      2          6           0       -1.879366   -0.417221    0.392838
      3          6           0       -0.709799   -1.354012   -0.075433
      4          6           0        0.335044   -0.277574    0.387946
      5          6           0        1.562122    0.005012   -0.429228
      6          6           0        2.743048    0.713146    0.186303
      7          6           0        2.846229   -0.747403   -0.170128
      8          6           0       -0.845246    0.705858    0.296653
      9          8           0       -0.961647    1.828603   -0.113689
     10          1           0       -2.966157    0.549803   -0.848623
     11          1           0       -2.132073   -0.646418    1.436598
     12          1           0       -0.653605   -2.335889    0.394257
     13          1           0       -0.715229   -1.458725   -1.163210
     14          1           0        0.600191   -0.449091    1.438216
     15          1           0        1.351921    0.250345   -1.466740
     16          1           0        3.277835    1.434261   -0.420963
     17          1           0        2.683099    0.978191    1.236701
     18          1           0        3.454026   -1.030418   -1.022186
     19          1           0        2.855892   -1.469687    0.639681
 ---------------------------------------------------------------------

 SCF Done:  E(RB3LYP) =  -423.171087183     A.U. after    1 cycles

 The electronic state is 1-A.
 Alpha  occ. eigenvalues --  -19.14685 -19.14577 -10.27121 -10.24205 -10.20678
 Alpha  occ. eigenvalues --  -10.20007 -10.19761 -10.19116 -10.18997  -1.05836
 Alpha  occ. eigenvalues --   -1.02687  -0.87193  -0.83634  -0.68607  -0.63453
 Alpha  occ. eigenvalues --   -0.60378  -0.59303  -0.56000  -0.50574  -0.49275
 Alpha  occ. eigenvalues --   -0.47173  -0.46535  -0.44651  -0.40234  -0.39582
 Alpha  occ. eigenvalues --   -0.38518  -0.37970  -0.36879  -0.34979  -0.34658
 Alpha  occ. eigenvalues --   -0.30468  -0.29373  -0.26978  -0.24353
 Alpha virt. eigenvalues --   -0.02577   0.08765   0.09286   0.09555   0.10939
 Alpha virt. eigenvalues --    0.12415   0.13501   0.14149   0.15493   0.16694
 Alpha virt. eigenvalues --    0.17386   0.18005   0.19790   0.22195   0.23859

 Mulliken charges:
               1
     1  O   -0.436555
     2  C    0.072013
     3  C   -0.301439
     4  C   -0.109806
     5  C    0.027375
     6  C   -0.262541
     7  C   -0.278397
     8  C    0.322358
     9  O   -0.313461
    10  H    0.295185
    11  H    0.105521
    12  H    0.114630
    13  H    0.120128
    14  H    0.096693
    15  H    0.088479
    16  H    0.119094
    17  H    0.113733
    18  H    0.115975
    19  H    0.111016
 Sum of Mulliken charges =   0.00000

 Dipole moment (field-independent basis, Debye):
    X=              1.7243    Y=             -1.4869    Z=              0.4742  Tot=              2.3257
 Quadrupole moment (field-independent basis, Debye-Ang):
   XX=            -57.8068   YY=            -57.4074   ZZ=            -49.1514
   XY=             -0.7287   XZ=             -0.6900   YZ=             -1.2695

  Exact polarizability:  90.992  -0.345  75.704   0.795  -2.532  63.549
 Approx polarizability: 113.231  -1.601 120.276   3.340  -6.460  99.713

                      1                      2                      3
                      A                      A                      A
 Frequencies --     55.0071                81.4223               125.1368
 Red. masses --      3.1162                 4.8831                 3.7600
 Frc consts  --      0.0056                 0.0191                 0.0347
 IR Inten    --      0.2768                 1.1097                 1.4784

                      4                      5                      6
                      A                      A                      A
 Frequencies --    176.1309               219.5724               279.9479
 Red. masses --      2.5520                 2.0920                 1.7170
 Frc consts  --      0.0466                 0.0594                 0.0793
 IR Inten    --     30.9418                14.1517                42.0615

                      7                      8                      9
                      A                      A                      A
 Frequencies --    296.4114               370.6042               398.6419
 Red. masses --      3.7962                 3.1075                 3.4761
 Frc consts  --      0.1965                 0.2515                 0.3255
 IR Inten    --      1.5463                 0.2520                 0.3306

                     10                     11                     12
                      A                      A                      A
 Frequencies --    524.1486               622.0610               705.5217
 Red. masses --      3.3435                 2.9069                 2.0143
 Frc consts  --      0.5412                 0.6628                 0.5907
 IR Inten    --      1.0163                 2.0363                 3.4432

                     13                     14                     15
                      A                      A                      A
 Frequencies --    767.6652               803.8209               812.6358
 Red. masses --      1.3836                 2.0115                 1.7023
 Frc consts  --      0.4804                 0.7658                 0.6623
 IR Inten    --      0.3694                 3.9151                 0.7296

                     16                     17                     18
                      A                      A                      A
 Frequencies --    839.2563               887.4916               924.3240
 Red. masses --      1.8544                 3.5299                 3.4084
 Frc consts  --      0.7696                 1.6381                 1.7157
 IR Inten    --      6.7354                14.4254                 3.9180

                     19                     20                     21
                      A                      A                      A
 Frequencies --    963.6993               986.0783              1004.0017
 Red. masses --      4.0922                 1.5193                 2.8633
 Frc consts  --      2.2392                 0.8704                 1.7005
 IR Inten    --    120.1832                 4.3292                 0.8845

                     22                     23                     24
                      A                      A                      A
 Frequencies --   1024.5934              1060.4741              1069.6116
 Red. masses --      1.4685                 1.3251                 2.7660
 Frc consts  --      0.9083                 0.8780                 1.8645
 IR Inten    --      5.4194                 2.1275                 2.9830

                     25                     26                     27
                      A                      A                      A
 Frequencies --   1080.3248              1131.7302              1143.9911
 Red. masses --      1.3927                 1.1384                 1.4892
 Frc consts  --      0.9576                 0.8590                 1.1483
 IR Inten    --      1.1703                 0.2114                 2.1001

                     28                     29                     30
                      A                      A                      A
 Frequencies --   1164.1139              1196.5209              1217.1040
 Red. masses --      1.5800                 1.3814                 2.2352
 Frc consts  --      1.2615                 1.1652                 1.9508
 IR Inten    --    117.8881                 0.1177                 7.4744

                     31                     32                     33
                      A                      A                      A
 Frequencies --   1229.7432              1238.2953              1254.8346
 Red. masses --      1.3853                 1.6018                 1.5653
 Frc consts  --      1.2343                 1.4472                 1.4522
 IR Inten    --      7.0316                 0.0295                 2.0213

                     34                     35                     36
                      A                      A                      A
 Frequencies --   1298.3749              1344.7340              1409.2955
 Red. masses --      1.5177                 1.5585                 1.2840
 Frc consts  --      1.5074                 1.6605                 1.5025
 IR Inten    --      0.2138                 5.4459                56.6930

                     37                     38                     39
                      A                      A                      A
 Frequencies --   1429.5640              1471.5093              1482.2951
 Red. masses --      1.7447                 1.0863                 1.1021
 Frc consts  --      2.1007                 1.3859                 1.4268
 IR Inten    --      8.2771                 1.3191                 1.7206

                     40                     41                     42
                      A                      A                      A
 Frequencies --   1506.8844              1861.5729              3022.7842
 Red. masses --      1.3867                12.7297                 1.0825
 Frc consts  --      1.8551                25.9913                 5.8275
 IR Inten    --      1.8108               212.9387                15.2895

                     43                     44                     45
                      A                      A                      A
 Frequencies --   3040.7566              3076.6684              3131.7388
 Red. masses --      1.0828                 1.0582                 1.0515
 Frc consts  --      5.8986                 5.9016                 6.0761
 IR Inten    --     11.2305                14.6190                17.4509

                     46                     47                     48
                      A                      A                      A
 Frequencies --   3137.0405              3143.4989              3145.9879
 Red. masses --      1.0586                 1.0922                 1.1046
 Frc consts  --      6.1380                 6.3586                 6.4415
 IR Inten    --     12.6799                 1.5375                20.4088

                     49                     50                     51
                      A                      A                      A
 Frequencies --   3210.4828              3225.9141              3766.0357
 Red. masses --      1.1176                 1.1153                 1.0660
 Frc consts  --      6.7871                 6.8382                 8.9079
 IR Inten    --      0.6119                18.3204                29.6275

 - Thermochemistry -
 -------------------
 Temperature   298.150 Kelvin.  Pressure   1.00000 Atm.
 Atom     1 has atomic number  8 and mass  15.99491

 Molecular mass:   126.06808 amu.
 Principal axes and moments of inertia in atomic units:
                           1         2         3
     Eigenvalues --   482.244981837.768222164.71545
           X            0.99999   0.00441  -0.00180
           Y           -0.00443   0.99994  -0.01002
           Z            0.00175   0.01002   0.99995
 This molecule is an asymmetric top.
 Rotational symmetry number  1.
 Warning -- assumption of classical behavior for rotation
           may cause significant error
 Rotational temperatures (Kelvin)      0.17961     0.04713     0.04001
 Rotational constants (GHZ):           3.74237     0.98203     0.83371
 Zero-point vibrational energy     414865.2 (Joules/Mol)
                                   99.15517 (Kcal/Mol)
 Warning -- explicit consideration of  10 degrees of freedom as
           vibrations may cause significant error
 Vibrational temperatures:     79.14   117.15   180.04   253.41   315.92
          (Kelvin)            402.78   426.47   533.22   573.56   754.13
                              895.01  1015.09  1104.50  1156.52  1169.20
                             1207.50  1276.90  1329.89  1386.55  1418.74
                             1444.53  1474.16  1525.78  1538.93  1554.34
                             1628.31  1645.95  1674.90  1721.52  1751.14
                             1769.32  1781.63  1805.42  1868.07  1934.77
                             2027.66  2056.82  2117.17  2132.69  2168.07
                             2678.38  4349.11  4374.97  4426.63  4505.87
                             4513.50  4522.79  4526.37  4619.16  4641.37
                             5418.48

 Zero-point correction=                           0.158014 (Hartree/Particle)
 Thermal correction to Energy=                    0.167083
 Thermal correction to Enthalpy=                  0.168027
 Thermal correction to Gibbs Free Energy=         0.123478
 Sum of electronic and zero-point Energies=           -423.013073
 Sum of electronic and thermal Energies=              -423.004005
 Sum of electronic and thermal Enthalpies=            -423.003060
 Sum of electronic and thermal Free Energies=         -423.047609

                     E (Thermal)             CV                S
                      KCal/Mol        Cal/Mol-Kelvin    Cal/Mol-Kelvin
 Total                  104.846             33.315             93.761
 Electronic               0.000              0.000              0.000
 Translational            0.889              2.981             40.409
 Rotational               0.889              2.981             29.041
 Vibrational            103.068             27.354             24.312
 Vibration     1          0.596              1.976              4.629
 Vibration     2          0.600              1.962              3.856
 Vibration     3          0.610              1.928              3.019
 Vibration     4          0.628              1.872              2.369
 Vibration     5          0.647              1.811              1.963
 Vibration     6          0.680              1.711              1.534
 Vibration     7          0.690              1.680              1.437
 Vibration     8          0.743              1.533              1.077
 Vibration     9          0.765              1.473              0.968
 Vibration    10          0.879              1.197              0.600

 Optimization completed.
    -- Stationary point found.
 Normal termination of Gaussian 09 at Tue Jan 28 01:23:27 2020.
