 Gaussian 09, Revision D.01,
 Gaussian 09:  ES64L-G09RevD.01 24-Apr-2013

 -----------------------------
 # b3lyp 6-31G(2df,p) opt Freq
 -----------------------------

 -----
 titel
 -----
 Symbolic Z-matrix:
 Charge =  0 Multiplicity = 1

 SCF Done:  E(RB3LYP) =  -423.155739486     A.U. after   14 cycles
 Optimization completed.
    -- Stationary point found.
 Normal termination of Gaussian 09 at Mon Jan 27 16:57:52 2020.

 ----------------------------------------------------------------------
 #N Geom=AllCheck Guess=TCheck SCRF=Check GenChk RB3LYP/6-31G(2df,p) Fr
 eq
 ----------------------------------------------------------------------

 Structure from the checkpoint file:  "/scratch/puck/g09_62e527db-d39c-44ed-810b-156cdf734f9b/Gau-58606.chk"
 -----
 titel
 -----
 Charge =  0 Multiplicity = 1

                         Standard orientation:
 ---------------------------------------------------------------------
 Center     Atomic      Atomic             Coordinates (Angstroms)
 Number     Number       Type             X           Y           Z
 ---------------------------------------------------------------------
      1          8           0       -1.590700   -1.586499    0.012887
      2          6           0       -0.687929   -0.479558    0.016414
      3          6           0        0.195593   -0.491474    1.285752
      4          6           0        1.371585    0.482441    1.155671
      5          8           0        2.151442    0.204543    0.006737
      6          6           0        1.395204    0.314304   -1.187193
      7          6           0        0.223098   -0.669589   -1.210371
      8          6           0       -1.441149    0.781615   -0.072797
      9          6           0       -2.079793    1.800001   -0.115747
     10          1           0       -2.257852   -1.424136    0.689337
     11          1           0       -0.404945   -0.243672    2.168307
     12          1           0        0.573626   -1.512121    1.403867
     13          1           0        0.997850    1.519021    1.123129
     14          1           0        2.043241    0.392188    2.013991
     15          1           0        1.022413    1.344592   -1.308424
     16          1           0        2.085763    0.106076   -2.008922
     17          1           0       -0.361091   -0.553971   -2.127777
     18          1           0        0.601078   -1.696452   -1.174626
     19          1           0       -2.645678    2.697686   -0.166252
 ---------------------------------------------------------------------

 SCF Done:  E(RB3LYP) =  -423.155739487     A.U. after    1 cycles

 The electronic state is 1-A.
 Alpha  occ. eigenvalues --  -19.14337 -19.13705 -10.26385 -10.22765 -10.22652
 Alpha  occ. eigenvalues --  -10.18722 -10.18628 -10.18422 -10.18355  -1.03419
 Alpha  occ. eigenvalues --   -1.02619  -0.80899  -0.76523  -0.74281  -0.65096
 Alpha  occ. eigenvalues --   -0.64324  -0.59008  -0.53570  -0.51555  -0.49362
 Alpha  occ. eigenvalues --   -0.47397  -0.45495  -0.44867  -0.41666  -0.39508
 Alpha  occ. eigenvalues --   -0.38651  -0.36835  -0.35516  -0.33700  -0.30571
 Alpha  occ. eigenvalues --   -0.29411  -0.27598  -0.26697  -0.25194
 Alpha virt. eigenvalues --    0.03014   0.04836   0.08821   0.10517   0.11914
 Alpha virt. eigenvalues --    0.12343   0.13689   0.14019   0.15339   0.16881
 Alpha virt. eigenvalues --    0.17179   0.18263   0.19540   0.20950   0.23421

 Mulliken charges:
               1
     1  O   -0.460991
     2  C    0.198200
     3  C   -0.244763
     4  C   -0.084369
     5  O   -0.243139
     6  C   -0.090864
     7  C   -0.220232
     8  C    0.329064
     9  C   -0.516917
    10  H    0.279475
    11  H    0.094025
    12  H    0.114263
    13  H    0.098698
    14  H    0.109264
    15  H    0.098844
    16  H    0.110060
    17  H    0.110938
    18  H    0.116056
    19  H    0.202388
 Sum of Mulliken charges =   0.00000

 Dipole moment (field-independent basis, Debye):
    X=             -1.1395    Y=              0.9682    Z=              0.8357  Tot=              1.7130
 Quadrupole moment (field-independent basis, Debye-Ang):
   XX=            -54.9554   YY=            -52.6591   ZZ=            -49.6820
   XY=             -3.1510   XZ=             -2.5565   YZ=             -1.3941

  Exact polarizability:  79.151  -9.066  79.461  -0.912  -0.747  70.817
 Approx polarizability: 111.486 -19.413 128.417  -1.142  -0.910  99.194

                      1                      2                      3
                      A                      A                      A
 Frequencies --    114.9835               142.2070               206.1633
 Red. masses --      4.3958                 3.1071                 3.2505
 Frc consts  --      0.0342                 0.0370                 0.0814
 IR Inten    --      0.7810                 0.0850                 2.0968

                      4                      5                      6
                      A                      A                      A
 Frequencies --    250.3774               279.4489               330.6387
 Red. masses --      1.9508                 1.1556                 4.0671
 Frc consts  --      0.0721                 0.0532                 0.2620
 IR Inten    --      2.9115                91.5248                 7.2980

                      7                      8                      9
                      A                      A                      A
 Frequencies --    340.7455               390.3875               433.3668
 Red. masses --      3.2467                 3.1636                 2.6806
 Frc consts  --      0.2221                 0.2841                 0.2966
 IR Inten    --      2.0326                 3.2560                 8.3064

                     10                     11                     12
                      A                      A                      A
 Frequencies --    481.8068               562.3016               566.9327
 Red. masses --      3.0519                 3.7616                 4.5722
 Frc consts  --      0.4174                 0.7007                 0.8658
 IR Inten    --      1.7624                22.5337                 5.5805

                     13                     14                     15
                      A                      A                      A
 Frequencies --    631.3149               641.9035               667.1511
 Red. masses --      1.2192                 2.5866                 1.2561
 Frc consts  --      0.2863                 0.6279                 0.3294
 IR Inten    --     42.5800                 4.3825                36.8480

                     16                     17                     18
                      A                      A                      A
 Frequencies --    681.7817               819.3485               858.4208
 Red. masses --      4.2814                 1.5581                 3.1339
 Frc consts  --      1.1725                 0.6163                 1.3606
 IR Inten    --      1.8978                 2.8268                17.6943

                     19                     20                     21
                      A                      A                      A
 Frequencies --    919.6466               943.1520              1000.6313
 Red. masses --      2.2009                 2.2036                 2.1790
 Frc consts  --      1.0967                 1.1549                 1.2855
 IR Inten    --      3.4657                 0.2546                40.9748

                     22                     23                     24
                      A                      A                      A
 Frequencies --   1017.2666              1047.4580              1084.6066
 Red. masses --      2.6289                 1.5901                 2.9721
 Frc consts  --      1.6028                 1.0279                 2.0600
 IR Inten    --     11.6333                11.6288                70.9758

                     25                     26                     27
                      A                      A                      A
 Frequencies --   1110.3380              1153.9288              1179.0377
 Red. masses --      3.8350                 3.6230                 2.4825
 Frc consts  --      2.7857                 2.8423                 2.0332
 IR Inten    --     11.2314                74.1231                30.6473

                     28                     29                     30
                      A                      A                      A
 Frequencies --   1204.0996              1253.7032              1285.9053
 Red. masses --      1.1857                 1.3503                 1.4735
 Frc consts  --      1.0128                 1.2505                 1.4356
 IR Inten    --      6.4078                40.1624                18.5691

                     31                     32                     33
                      A                      A                      A
 Frequencies --   1323.1027              1336.6309              1361.6632
 Red. masses --      1.3501                 1.3692                 1.3527
 Frc consts  --      1.3926                 1.4413                 1.4778
 IR Inten    --      9.1103                 1.2969                45.2456

                     34                     35                     36
                      A                      A                      A
 Frequencies --   1375.5875              1391.0273              1424.5639
 Red. masses --      1.4671                 1.3768                 1.3285
 Frc consts  --      1.6356                 1.5696                 1.5885
 IR Inten    --      5.0935                21.0383                11.8771

                     37                     38                     39
                      A                      A                      A
 Frequencies --   1466.2704              1484.0458              1492.4789
 Red. masses --      1.0881                 1.0969                 1.0775
 Frc consts  --      1.3783                 1.4233                 1.4141
 IR Inten    --      1.9197                 3.8712                 0.6263

                     40                     41                     42
                      A                      A                      A
 Frequencies --   1505.7453              2224.8775              2975.3899
 Red. masses --      1.1041                 5.9074                 1.0700
 Frc consts  --      1.4749                17.2289                 5.5809
 IR Inten    --      4.6924                 0.7847                19.9357

                     43                     44                     45
                      A                      A                      A
 Frequencies --   2979.5454              3040.0262              3053.7077
 Red. masses --      1.0699                 1.0595                 1.0599
 Frc consts  --      5.5964                 5.7692                 5.8235
 IR Inten    --     65.9215                18.6786                11.3695

                     46                     47                     48
                      A                      A                      A
 Frequencies --   3086.0321              3090.9991              3095.0145
 Red. masses --      1.0930                 1.0930                 1.1032
 Frc consts  --      6.1330                 6.1526                 6.2261
 IR Inten    --     46.6420                23.3958                26.5985

                     49                     50                     51
                      A                      A                      A
 Frequencies --   3106.7296              3498.3953              3802.0783
 Red. masses --      1.1050                 1.1619                 1.0661
 Frc consts  --      6.2839                 8.3784                 9.0805
 IR Inten    --     21.6535                64.2598                18.9595

 - Thermochemistry -
 -------------------
 Temperature   298.150 Kelvin.  Pressure   1.00000 Atm.
 Atom     1 has atomic number  8 and mass  15.99491

 Molecular mass:   126.06808 amu.
 Principal axes and moments of inertia in atomic units:
                           1         2         3
     Eigenvalues --   772.471351295.415201390.05434
           X            0.99991  -0.01079  -0.00797
           Y            0.01068   0.99985  -0.01388
           Z            0.00812   0.01379   0.99987
 This molecule is an asymmetric top.
 Rotational symmetry number  1.
 Warning -- assumption of classical behavior for rotation
           may cause significant error
 Rotational temperatures (Kelvin)      0.11213     0.06686     0.06231
 Rotational constants (GHZ):           2.33632     1.39318     1.29832
 Zero-point vibrational energy     416976.1 (Joules/Mol)
                                   99.65969 (Kcal/Mol)
 Warning -- explicit consideration of  12 degrees of freedom as
           vibrations may cause significant error
 Vibrational temperatures:    165.44   204.60   296.62   360.24   402.06
          (Kelvin)            475.71   490.26   561.68   623.52   693.21
                              809.03   815.69   908.32   923.55   959.88
                              980.93  1178.86  1235.07  1323.16  1356.98
                             1439.68  1463.62  1507.06  1560.50  1597.53
                             1660.24  1696.37  1732.43  1803.80  1850.13
                             1903.65  1923.11  1959.13  1979.16  2001.38
                             2049.63  2109.63  2135.21  2147.34  2166.43
                             3201.10  4280.92  4286.90  4373.91  4393.60
                             4440.11  4447.25  4453.03  4469.89  5033.40
                             5470.34

 Zero-point correction=                           0.158818 (Hartree/Particle)
 Thermal correction to Energy=                    0.167514
 Thermal correction to Enthalpy=                  0.168458
 Thermal correction to Gibbs Free Energy=         0.126032
 Sum of electronic and zero-point Energies=           -422.996922
 Sum of electronic and thermal Energies=              -422.988226
 Sum of electronic and thermal Enthalpies=            -422.987282
 Sum of electronic and thermal Free Energies=         -423.029708

                     E (Thermal)             CV                S
                      KCal/Mol        Cal/Mol-Kelvin    Cal/Mol-Kelvin
 Total                  105.116             34.125             89.293
 Electronic               0.000              0.000              0.000
 Translational            0.889              2.981             40.409
 Rotational               0.889              2.981             28.722
 Vibrational            103.339             28.164             20.163
 Vibration     1          0.608              1.937              3.183
 Vibration     2          0.616              1.911              2.774
 Vibration     3          0.641              1.831              2.077
 Vibration     4          0.663              1.762              1.728
 Vibration     5          0.680              1.712              1.537
 Vibration     6          0.713              1.614              1.257
 Vibration     7          0.720              1.594              1.209
 Vibration     8          0.758              1.491              0.999
 Vibration     9          0.794              1.398              0.848
 Vibration    10          0.838              1.290              0.705
 Vibration    11          0.918              1.113              0.519
 Vibration    12          0.923              1.103              0.510

 Optimization completed.
    -- Stationary point found.
 Normal termination of Gaussian 09 at Mon Jan 27 17:41:05 2020.
