 Gaussian 09, Revision D.01,
 Gaussian 09:  ES64L-G09RevD.01 24-Apr-2013

 -----------------------------
 # b3lyp 6-31G(2df,p) opt Freq
 -----------------------------

 -----
 titel
 -----
 Symbolic Z-matrix:
 Charge =  0 Multiplicity = 1

 SCF Done:  E(RB3LYP) =  -423.144591987     A.U. after   13 cycles
 Optimization completed.
    -- Stationary point found.
 Normal termination of Gaussian 09 at Tue Jan 28 02:57:38 2020.

 ----------------------------------------------------------------------
 #N Geom=AllCheck Guess=TCheck SCRF=Check GenChk RB3LYP/6-31G(2df,p) Fr
 eq
 ----------------------------------------------------------------------

 Structure from the checkpoint file:  "/scratch/puck/g09_4482e966-4b57-474e-9ed0-98dba600b684/Gau-195906.chk"
 -----
 titel
 -----
 Charge =  0 Multiplicity = 1

                         Standard orientation:
 ---------------------------------------------------------------------
 Center     Atomic      Atomic             Coordinates (Angstroms)
 Number     Number       Type             X           Y           Z
 ---------------------------------------------------------------------
      1          6           0        2.395096    0.201970    0.473752
      2          6           0        1.238326   -0.130716   -0.453513
      3          8           0        0.792760   -1.489467   -0.278574
      4          6           0       -0.575594   -1.327731    0.034762
      5          6           0       -1.222353   -0.218582   -0.843221
      6          6           0       -2.151038    0.133681    0.342173
      7          6           0       -0.785992   -0.139921    1.017337
      8          6           0       -0.067592    0.613235   -0.168431
      9          8           0        0.053176    1.990707   -0.257014
     10          1           0        2.107109    0.070109    1.521058
     11          1           0        3.248041   -0.450757    0.268170
     12          1           0        2.705200    1.240600    0.325392
     13          1           0        1.540968    0.014425   -1.499735
     14          1           0       -1.068151   -2.285432    0.191142
     15          1           0       -1.461773   -0.271126   -1.905879
     16          1           0       -2.532007    1.159073    0.387619
     17          1           0       -2.959098   -0.569479    0.562050
     18          1           0       -0.534916   -0.105373    2.077673
     19          1           0       -0.797983    2.396421   -0.059948
 ---------------------------------------------------------------------

 SCF Done:  E(RB3LYP) =  -423.144591987     A.U. after    1 cycles

 The electronic state is 1-A.
 Alpha  occ. eigenvalues --  -19.15340 -19.13395 -10.24555 -10.23764 -10.22585
 Alpha  occ. eigenvalues --  -10.19628 -10.19512 -10.19461 -10.16979  -1.05333
 Alpha  occ. eigenvalues --   -1.03066  -0.89234  -0.76007  -0.67934  -0.65309
 Alpha  occ. eigenvalues --   -0.63649  -0.57559  -0.56564  -0.50675  -0.49508
 Alpha  occ. eigenvalues --   -0.47465  -0.44519  -0.41740  -0.39709  -0.38920
 Alpha  occ. eigenvalues --   -0.38602  -0.36663  -0.35242  -0.34242  -0.32809
 Alpha  occ. eigenvalues --   -0.32320  -0.29130  -0.26376  -0.23646
 Alpha virt. eigenvalues --    0.05855   0.10683   0.11897   0.12794   0.13486
 Alpha virt. eigenvalues --    0.14016   0.15215   0.16121   0.16729   0.17529
 Alpha virt. eigenvalues --    0.17937   0.18654   0.19317   0.19940   0.21194

 Mulliken charges:
               1
     1  C   -0.405970
     2  C    0.095347
     3  O   -0.297085
     4  C    0.148071
     5  C   -0.156342
     6  C   -0.289136
     7  C   -0.156691
     8  C    0.394201
     9  O   -0.490703
    10  H    0.116221
    11  H    0.122132
    12  H    0.128709
    13  H    0.080736
    14  H    0.090455
    15  H    0.074675
    16  H    0.082020
    17  H    0.099619
    18  H    0.075682
    19  H    0.288059
 Sum of Mulliken charges =   0.00000

 Dipole moment (field-independent basis, Debye):
    X=             -1.6981    Y=              0.8590    Z=              0.4457  Tot=              1.9544
 Quadrupole moment (field-independent basis, Debye-Ang):
   XX=            -51.0349   YY=            -54.8331   ZZ=            -52.7366
   XY=             -0.4255   XZ=             -0.0959   YZ=              0.0790

  Exact polarizability:  86.020   1.442  71.011  -1.200  -0.213  66.133
 Approx polarizability: 114.911   1.123 110.509  -2.786  -0.726 104.038

                      1                      2                      3
                      A                      A                      A
 Frequencies --    147.1686               212.0372               235.5928
 Red. masses --      3.3765                 1.0603                 2.5119
 Frc consts  --      0.0431                 0.0281                 0.0821
 IR Inten    --      1.3943                 0.7167                 3.4263

                      4                      5                      6
                      A                      A                      A
 Frequencies --    265.5822               320.6386               373.8509
 Red. masses --      1.1475                 3.0663                 3.1766
 Frc consts  --      0.0477                 0.1857                 0.2616
 IR Inten    --     69.0213                 2.2396                17.2026

                      7                      8                      9
                      A                      A                      A
 Frequencies --    432.2743               486.7507               488.8140
 Red. masses --      3.6272                 2.9992                 3.3623
 Frc consts  --      0.3993                 0.4187                 0.4733
 IR Inten    --      4.3947                 3.1820                 0.3836

                     10                     11                     12
                      A                      A                      A
 Frequencies --    648.1169               674.0692               704.0533
 Red. masses --      4.4624                 3.5643                 4.7193
 Frc consts  --      1.1044                 0.9542                 1.3783
 IR Inten    --      0.2615                 0.7294                 2.0128

                     13                     14                     15
                      A                      A                      A
 Frequencies --    773.3645               848.7522               866.1971
 Red. masses --      3.4098                 2.3938                 2.3901
 Frc consts  --      1.2015                 1.0160                 1.0566
 IR Inten    --      1.6285                 0.3787                 7.8901

                     16                     17                     18
                      A                      A                      A
 Frequencies --    901.0760               906.8648               935.5234
 Red. masses --      1.7418                 1.9940                 2.9054
 Frc consts  --      0.8332                 0.9662                 1.4982
 IR Inten    --     11.1129                 6.3305                29.0770

                     19                     20                     21
                      A                      A                      A
 Frequencies --    939.4083              1000.6059              1039.4072
 Red. masses --      1.7923                 1.1388                 2.0264
 Frc consts  --      0.9319                 0.6718                 1.2899
 IR Inten    --      2.1271                 3.4538                48.3578

                     22                     23                     24
                      A                      A                      A
 Frequencies --   1081.6728              1086.7615              1090.4388
 Red. masses --      2.6496                 2.0752                 1.5485
 Frc consts  --      1.8265                 1.4440                 1.0849
 IR Inten    --     50.3235                18.5983                14.3772

                     25                     26                     27
                      A                      A                      A
 Frequencies --   1096.1025              1108.3505              1138.0436
 Red. masses --      2.6023                 1.7783                 1.8419
 Frc consts  --      1.8421                 1.2871                 1.4055
 IR Inten    --     44.6959                14.4162                19.7268

                     28                     29                     30
                      A                      A                      A
 Frequencies --   1148.8333              1169.9672              1203.8837
 Red. masses --      1.8965                 1.4303                 2.3119
 Frc consts  --      1.4747                 1.1535                 1.9742
 IR Inten    --      1.8001                 0.6217                 8.7582

                     31                     32                     33
                      A                      A                      A
 Frequencies --   1234.6353              1247.7513              1283.0981
 Red. masses --      1.6481                 1.9099                 1.4493
 Frc consts  --      1.4802                 1.7519                 1.4058
 IR Inten    --      5.1962                42.1139                 0.5126

                     34                     35                     36
                      A                      A                      A
 Frequencies --   1304.0904              1364.8101              1368.6119
 Red. masses --      2.3090                 1.4933                 1.6077
 Frc consts  --      2.3136                 1.6388                 1.7743
 IR Inten    --    140.5055                 1.4960                61.7670

                     37                     38                     39
                      A                      A                      A
 Frequencies --   1405.5607              1411.6620              1487.5747
 Red. masses --      1.2936                 2.0256                 1.0766
 Frc consts  --      1.5057                 2.3783                 1.4036
 IR Inten    --     13.9804                 1.7325                 3.7711

                     40                     41                     42
                      A                      A                      A
 Frequencies --   1494.2917              1530.7378              3011.0624
 Red. masses --      1.0506                 1.1219                 1.0843
 Frc consts  --      1.3822                 1.5488                 5.7924
 IR Inten    --      3.2162                 0.5335                40.1664

                     43                     44                     45
                      A                      A                      A
 Frequencies --   3041.7126              3042.6680              3096.4260
 Red. masses --      1.0563                 1.0351                 1.1068
 Frc consts  --      5.7578                 5.6462                 6.2524
 IR Inten    --     61.7454                 9.9789                35.8720

                     46                     47                     48
                      A                      A                      A
 Frequencies --   3109.1972              3113.3040              3118.7437
 Red. masses --      1.0904                 1.0922                 1.1009
 Frc consts  --      6.2104                 6.2373                 6.3090
 IR Inten    --     66.4657                 2.8246                36.9352

                     49                     50                     51
                      A                      A                      A
 Frequencies --   3121.0971              3148.9838              3805.9220
 Red. masses --      1.1016                 1.0926                 1.0655
 Frc consts  --      6.3226                 6.3834                 9.0937
 IR Inten    --     15.6772                31.9848                16.0006

 - Thermochemistry -
 -------------------
 Temperature   298.150 Kelvin.  Pressure   1.00000 Atm.
 Atom     1 has atomic number  6 and mass  12.00000

 Molecular mass:   126.06808 amu.
 Principal axes and moments of inertia in atomic units:
                           1         2         3
     Eigenvalues --   657.85281 964.572211312.24141
           X            0.99975   0.02065   0.00826
           Y           -0.02067   0.99978   0.00251
           Z           -0.00821  -0.00268   0.99996
 This molecule is an asymmetric top.
 Rotational symmetry number  1.
 Warning -- assumption of classical behavior for rotation
           may cause significant error
 Rotational temperatures (Kelvin)      0.13166     0.08980     0.06600
 Rotational constants (GHZ):           2.74338     1.87103     1.37531
 Zero-point vibrational energy     419088.6 (Joules/Mol)
                                  100.16458 (Kcal/Mol)
 Warning -- explicit consideration of   9 degrees of freedom as
           vibrations may cause significant error
 Vibrational temperatures:    211.74   305.07   338.97   382.11   461.33
          (Kelvin)            537.89   621.95   700.32   703.29   932.49
                              969.83  1012.97  1112.70  1221.16  1246.26
                             1296.45  1304.77  1346.01  1351.60  1439.65
                             1495.47  1556.28  1563.61  1568.90  1577.05
                             1594.67  1637.39  1652.91  1683.32  1732.12
                             1776.36  1795.23  1846.09  1876.29  1963.65
                             1969.12  2022.29  2031.06  2140.29  2149.95
                             2202.39  4332.24  4376.34  4377.72  4455.06
                             4473.44  4479.34  4487.17  4490.56  4530.68
                             5475.87

 Zero-point correction=                           0.159622 (Hartree/Particle)
 Thermal correction to Energy=                    0.167249
 Thermal correction to Enthalpy=                  0.168193
 Thermal correction to Gibbs Free Energy=         0.128078
 Sum of electronic and zero-point Energies=           -422.984970
 Sum of electronic and thermal Energies=              -422.977343
 Sum of electronic and thermal Enthalpies=            -422.976399
 Sum of electronic and thermal Free Energies=         -423.016514

                     E (Thermal)             CV                S
                      KCal/Mol        Cal/Mol-Kelvin    Cal/Mol-Kelvin
 Total                  104.950             31.057             84.429
 Electronic               0.000              0.000              0.000
 Translational            0.889              2.981             40.409
 Rotational               0.889              2.981             28.212
 Vibrational            103.173             25.095             15.809
 Vibration     1          0.617              1.906              2.709
 Vibration     2          0.643              1.823              2.026
 Vibration     3          0.655              1.786              1.836
 Vibration     4          0.671              1.736              1.625
 Vibration     5          0.706              1.634              1.307
 Vibration     6          0.745              1.526              1.064
 Vibration     7          0.793              1.400              0.851
 Vibration     8          0.843              1.279              0.692
 Vibration     9          0.845              1.275              0.687

 Normal termination of Gaussian 09 at Tue Jan 28 03:43:05 2020.
