 Gaussian 09, Revision D.01,
 Gaussian 09:  ES64L-G09RevD.01 24-Apr-2013

 -----------------------------
 # b3lyp 6-31G(2df,p) opt Freq
 -----------------------------

 -----
 titel
 -----
 Symbolic Z-matrix:
 Charge =  0 Multiplicity = 1

 SCF Done:  E(RB3LYP) =  -423.110439614     A.U. after   13 cycles
 Optimization completed.
    -- Stationary point found.
 Normal termination of Gaussian 09 at Mon Jan 27 18:45:08 2020.

 ----------------------------------------------------------------------
 #N Geom=AllCheck Guess=TCheck SCRF=Check GenChk RB3LYP/6-31G(2df,p) Fr
 eq
 ----------------------------------------------------------------------

 Structure from the checkpoint file:  "/scratch/puck/g09_5cecf197-73c2-405f-9049-e6b67bdce67a/Gau-70133.chk"
 -----
 titel
 -----
 Charge =  0 Multiplicity = 1

                         Standard orientation:
 ---------------------------------------------------------------------
 Center     Atomic      Atomic             Coordinates (Angstroms)
 Number     Number       Type             X           Y           Z
 ---------------------------------------------------------------------
      1          6           0        1.293666    1.959778   -0.277050
      2          6           0        0.930304    0.509609   -0.150823
      3          6           0        1.769673   -0.667890   -0.652081
      4          8           0        1.386297   -1.490995    0.483946
      5          6           0        0.652445   -0.396103    1.039254
      6          6           0       -0.460639   -0.012842    0.125974
      7          6           0       -1.409578   -0.906894   -0.663356
      8          8           0       -2.539009   -0.111182   -0.228388
      9          6           0       -1.693714    0.810390    0.490582
     10          1           0        0.676043    2.583681    0.376387
     11          1           0        2.341277    2.130887   -0.006467
     12          1           0        1.149769    2.319612   -1.303002
     13          1           0        1.496196   -1.123653   -1.611376
     14          1           0        2.847614   -0.468130   -0.632494
     15          1           0        0.676724   -0.251840    2.114886
     16          1           0       -1.295302   -0.886844   -1.755571
     17          1           0       -1.476344   -1.946987   -0.324378
     18          1           0       -1.738443    1.822507    0.065114
     19          1           0       -1.948773    0.861901    1.557429
 ---------------------------------------------------------------------

 SCF Done:  E(RB3LYP) =  -423.110439614     A.U. after    1 cycles

 The electronic state is 1-A.
 Alpha  occ. eigenvalues --  -19.14253 -19.13238 -10.24045 -10.23884 -10.23486
 Alpha  occ. eigenvalues --  -10.22850 -10.20798 -10.20219 -10.19304  -1.05630
 Alpha  occ. eigenvalues --   -1.03541  -0.84569  -0.73971  -0.69717  -0.68545
 Alpha  occ. eigenvalues --   -0.67404  -0.55893  -0.53541  -0.50552  -0.49353
 Alpha  occ. eigenvalues --   -0.47990  -0.46204  -0.42954  -0.41798  -0.41288
 Alpha  occ. eigenvalues --   -0.41142  -0.40018  -0.34763  -0.33825  -0.33059
 Alpha  occ. eigenvalues --   -0.31592  -0.26794  -0.24822  -0.23266
 Alpha virt. eigenvalues --    0.05995   0.07895   0.09089   0.09619   0.12543
 Alpha virt. eigenvalues --    0.12980   0.13316   0.13577   0.15064   0.16353
 Alpha virt. eigenvalues --    0.17567   0.17884   0.18662   0.20917   0.21108

 Mulliken charges:
               1
     1  C   -0.501808
     2  C    0.163365
     3  C   -0.127388
     4  O   -0.289849
     5  C   -0.019437
     6  C    0.237820
     7  C   -0.144292
     8  O   -0.276883
     9  C   -0.157583
    10  H    0.126764
    11  H    0.125123
    12  H    0.126890
    13  H    0.106212
    14  H    0.108902
    15  H    0.104049
    16  H    0.098330
    17  H    0.115994
    18  H    0.099381
    19  H    0.104410
 Sum of Mulliken charges =   0.00000

 Dipole moment (field-independent basis, Debye):
    X=              1.6108    Y=              1.8398    Z=             -0.2056  Tot=              2.4540
 Quadrupole moment (field-independent basis, Debye-Ang):
   XX=            -59.5777   YY=            -54.2508   ZZ=            -50.2577
   XY=              1.9478   XZ=             -2.7372   YZ=              2.2462

  Exact polarizability:  81.153  -0.198  74.916  -3.544   2.465  69.815
 Approx polarizability: 111.017  -2.196 107.476  -3.838   0.274 107.127

                      1                      2                      3
                      A                      A                      A
 Frequencies --     91.6382               155.2954               170.6672
 Red. masses --      3.8758                 2.8368                 1.8163
 Frc consts  --      0.0192                 0.0403                 0.0312
 IR Inten    --      4.0357                 1.7614                 0.1078

                      4                      5                      6
                      A                      A                      A
 Frequencies --    178.7738               239.0190               260.9020
 Red. masses --      1.3289                 3.0757                 2.2244
 Frc consts  --      0.0250                 0.1035                 0.0892
 IR Inten    --      0.2757                 1.3020                 3.6906

                      7                      8                      9
                      A                      A                      A
 Frequencies --    332.5162               421.0228               500.4735
 Red. masses --      2.6244                 2.3879                 3.4590
 Frc consts  --      0.1710                 0.2494                 0.5105
 IR Inten    --      1.5527                 1.8987                 0.6224

                     10                     11                     12
                      A                      A                      A
 Frequencies --    569.8723               656.1064               761.1863
 Red. masses --      3.6784                 3.7057                 3.0836
 Frc consts  --      0.7038                 0.9399                 1.0527
 IR Inten    --      3.2508                 1.1586                12.2890

                     13                     14                     15
                      A                      A                      A
 Frequencies --    855.4248               900.5348               920.9256
 Red. masses --      4.0793                 2.0939                 2.4232
 Frc consts  --      1.7587                 1.0005                 1.2108
 IR Inten    --      8.7267                15.1697                10.7726

                     16                     17                     18
                      A                      A                      A
 Frequencies --    954.3638               977.7296               981.4484
 Red. masses --      1.5271                 3.4808                 1.7559
 Frc consts  --      0.8195                 1.9605                 0.9965
 IR Inten    --      7.1596                 9.1310                13.1822

                     19                     20                     21
                      A                      A                      A
 Frequencies --    995.6570              1010.1815              1027.0681
 Red. masses --      2.8278                 1.5309                 6.2508
 Frc consts  --      1.6516                 0.9204                 3.8850
 IR Inten    --     28.3760                 6.3302                33.9397

                     22                     23                     24
                      A                      A                      A
 Frequencies --   1034.8494              1117.9780              1131.2408
 Red. masses --      4.2268                 1.8766                 2.0730
 Frc consts  --      2.6669                 1.3819                 1.5630
 IR Inten    --     86.2397                 2.0534                 0.6017

                     25                     26                     27
                      A                      A                      A
 Frequencies --   1142.7782              1148.7488              1153.3683
 Red. masses --      1.5286                 2.2193                 1.2076
 Frc consts  --      1.1761                 1.7255                 0.9465
 IR Inten    --      1.3466                 1.2094                 0.1964

                     28                     29                     30
                      A                      A                      A
 Frequencies --   1161.3898              1202.1880              1231.4041
 Red. masses --      1.3190                 2.2560                 1.4166
 Frc consts  --      1.0482                 1.9211                 1.2656
 IR Inten    --      5.2411                 0.3234                 2.8415

                     31                     32                     33
                      A                      A                      A
 Frequencies --   1290.2709              1308.5108              1331.3977
 Red. masses --      1.9866                 1.4814                 1.8294
 Frc consts  --      1.9486                 1.4944                 1.9106
 IR Inten    --     14.0813                 2.5100                 1.0124

                     34                     35                     36
                      A                      A                      A
 Frequencies --   1374.2275              1418.4525              1477.6783
 Red. masses --      1.5574                 1.2533                 2.7781
 Frc consts  --      1.7328                 1.4858                 3.5740
 IR Inten    --      5.3047                 2.3269                 6.5780

                     37                     38                     39
                      A                      A                      A
 Frequencies --   1487.2212              1501.2137              1510.0443
 Red. masses --      1.0669                 1.2471                 1.0855
 Frc consts  --      1.3904                 1.6560                 1.4584
 IR Inten    --      6.0418                 2.6796                 2.1157

                     40                     41                     42
                      A                      A                      A
 Frequencies --   1515.7673              1534.5276              2993.9757
 Red. masses --      1.1331                 1.1069                 1.0537
 Frc consts  --      1.5338                 1.5357                 5.5648
 IR Inten    --      0.1094                 0.3346               101.1611

                     43                     44                     45
                      A                      A                      A
 Frequencies --   3007.8589              3018.1237              3025.3264
 Red. masses --      1.0606                 1.0525                 1.0393
 Frc consts  --      5.6535                 5.6489                 5.6047
 IR Inten    --     18.5630                64.4100                35.7907

                     46                     47                     48
                      A                      A                      A
 Frequencies --   3034.9029              3060.2278              3067.4978
 Red. masses --      1.1092                 1.1054                 1.1114
 Frc consts  --      6.0191                 6.0992                 6.1616
 IR Inten    --     51.0173                35.3334                34.4097

                     49                     50                     51
                      A                      A                      A
 Frequencies --   3083.5998              3101.6342              3163.5088
 Red. masses --      1.0999                 1.1001                 1.0931
 Frc consts  --      6.1617                 6.2351                 6.4452
 IR Inten    --     22.4697                20.3651                18.9270

 - Thermochemistry -
 -------------------
 Temperature   298.150 Kelvin.  Pressure   1.00000 Atm.
 Atom     1 has atomic number  6 and mass  12.00000

 Molecular mass:   126.06808 amu.
 Principal axes and moments of inertia in atomic units:
                           1         2         3
     Eigenvalues --   655.996101228.604101548.60627
           X            0.99925   0.03490  -0.01699
           Y           -0.03432   0.99886   0.03319
           Z            0.01813  -0.03258   0.99930
 This molecule is an asymmetric top.
 Rotational symmetry number  1.
 Warning -- assumption of classical behavior for rotation
           may cause significant error
 Rotational temperatures (Kelvin)      0.13203     0.07050     0.05593
 Rotational constants (GHZ):           2.75115     1.46894     1.16540
 Zero-point vibrational energy     416244.9 (Joules/Mol)
                                   99.48493 (Kcal/Mol)
 Warning -- explicit consideration of  10 degrees of freedom as
           vibrations may cause significant error
 Vibrational temperatures:    131.85   223.44   245.55   257.22   343.89
          (Kelvin)            375.38   478.42   605.76   720.07   819.92
                              943.99  1095.18  1230.76  1295.67  1325.00
                             1373.11  1406.73  1412.08  1432.53  1453.42
                             1477.72  1488.92  1608.52  1627.60  1644.20
                             1652.79  1659.44  1670.98  1729.68  1771.71
                             1856.41  1882.65  1915.58  1977.20  2040.83
                             2126.05  2139.78  2159.91  2172.61  2180.85
                             2207.84  4307.66  4327.63  4342.40  4352.76
                             4366.54  4402.98  4413.44  4436.61  4462.55
                             4551.58

 Zero-point correction=                           0.158539 (Hartree/Particle)
 Thermal correction to Energy=                    0.166891
 Thermal correction to Enthalpy=                  0.167835
 Thermal correction to Gibbs Free Energy=         0.125516
 Sum of electronic and zero-point Energies=           -422.951900
 Sum of electronic and thermal Energies=              -422.943549
 Sum of electronic and thermal Enthalpies=            -422.942605
 Sum of electronic and thermal Free Energies=         -422.984924

                     E (Thermal)             CV                S
                      KCal/Mol        Cal/Mol-Kelvin    Cal/Mol-Kelvin
 Total                  104.726             31.254             89.068
 Electronic               0.000              0.000              0.000
 Translational            0.889              2.981             40.409
 Rotational               0.889              2.981             28.614
 Vibrational            102.948             25.293             20.045
 Vibration     1          0.602              1.955              3.625
 Vibration     2          0.620              1.897              2.606
 Vibration     3          0.626              1.879              2.428
 Vibration     4          0.629              1.868              2.341
 Vibration     5          0.657              1.781              1.810
 Vibration     6          0.669              1.744              1.656
 Vibration     7          0.714              1.611              1.248
 Vibration     8          0.784              1.425              0.889
 Vibration     9          0.856              1.249              0.657
 Vibration    10          0.926              1.096              0.504

 Normal termination of Gaussian 09 at Mon Jan 27 19:31:34 2020.
