 Gaussian 09, Revision D.01,
 Gaussian 09:  ES64L-G09RevD.01 24-Apr-2013

 -----------------------------
 # b3lyp 6-31G(2df,p) opt Freq
 -----------------------------

 -----
 titel
 -----
 Symbolic Z-matrix:
 Charge =  0 Multiplicity = 1

 SCF Done:  E(RB3LYP) =  -423.219703958     A.U. after   14 cycles
 Optimization completed.
    -- Stationary point found.
 Normal termination of Gaussian 09 at Tue Jan 28 08:13:22 2020.

 ----------------------------------------------------------------------
 #N Geom=AllCheck Guess=TCheck SCRF=Check GenChk RB3LYP/6-31G(2df,p) Fr
 eq
 ----------------------------------------------------------------------

 Structure from the checkpoint file:  "/scratch/puck/g09_5eb54343-eefd-411c-8ff8-a98ec1a1b65b/Gau-14324.chk"
 -----
 titel
 -----
 Charge =  0 Multiplicity = 1

                         Standard orientation:
 ---------------------------------------------------------------------
 Center     Atomic      Atomic             Coordinates (Angstroms)
 Number     Number       Type             X           Y           Z
 ---------------------------------------------------------------------
      1          8           0       -2.285963   -1.206585    0.696207
      2          6           0       -1.572191   -0.661950   -0.418953
      3          6           0       -1.737746    0.860283   -0.545823
      4          6           0       -0.776464    1.612756    0.382332
      5          6           0        0.679183    1.278501    0.035416
      6          6           0        0.884462   -0.206930   -0.122425
      7          6           0        2.260203   -0.738455   -0.032561
      8          8           0        3.242870   -0.059970    0.162631
      9          6           0       -0.123338   -1.067461   -0.336552
     10          1           0       -1.832688   -0.925874    1.498762
     11          1           0       -2.032804   -1.147496   -1.287198
     12          1           0       -1.538054    1.151360   -1.585527
     13          1           0       -2.781228    1.110269   -0.332702
     14          1           0       -0.944240    2.691989    0.317621
     15          1           0       -0.977202    1.333051    1.425845
     16          1           0        0.969631    1.779591   -0.898792
     17          1           0        1.374974    1.654726    0.791794
     18          1           0        2.336748   -1.841907   -0.160090
     19          1           0        0.084958   -2.133732   -0.409019
 ---------------------------------------------------------------------

 SCF Done:  E(RB3LYP) =  -423.219703958     A.U. after    1 cycles

 The electronic state is 1-A.
 Alpha  occ. eigenvalues --  -19.14610 -19.13685 -10.26776 -10.24597 -10.20851
 Alpha  occ. eigenvalues --  -10.20557 -10.19359 -10.19334 -10.18847  -1.04237
 Alpha  occ. eigenvalues --   -1.02667  -0.84725  -0.77195  -0.74604  -0.65523
 Alpha  occ. eigenvalues --   -0.63048  -0.58934  -0.52879  -0.51084  -0.48649
 Alpha  occ. eigenvalues --   -0.46861  -0.45356  -0.43179  -0.42133  -0.41252
 Alpha  occ. eigenvalues --   -0.40801  -0.38418  -0.36199  -0.34662  -0.34129
 Alpha  occ. eigenvalues --   -0.32491  -0.28644  -0.26816  -0.25357
 Alpha virt. eigenvalues --   -0.06025   0.05413   0.06565   0.09704   0.11469
 Alpha virt. eigenvalues --    0.12534   0.13721   0.15282   0.15677   0.16879
 Alpha virt. eigenvalues --    0.17481   0.19331   0.20176   0.21807   0.22385

 Mulliken charges:
               1
     1  O   -0.431835
     2  C    0.094965
     3  C   -0.223064
     4  C   -0.225675
     5  C   -0.292455
     6  C    0.214303
     7  C    0.095393
     8  O   -0.271028
     9  C   -0.169873
    10  H    0.281753
    11  H    0.097177
    12  H    0.100282
    13  H    0.108738
    14  H    0.103917
    15  H    0.091314
    16  H    0.122156
    17  H    0.128176
    18  H    0.070641
    19  H    0.105115
 Sum of Mulliken charges =   0.00000

 Dipole moment (field-independent basis, Debye):
    X=             -1.7819    Y=              0.2515    Z=             -0.2933  Tot=              1.8233
 Quadrupole moment (field-independent basis, Debye-Ang):
   XX=            -68.7812   YY=            -51.7559   ZZ=            -50.1979
   XY=             -4.5456   XZ=             -0.0991   YZ=              0.6538

  Exact polarizability: 102.254   5.321  80.290   3.081   2.553  58.796
 Approx polarizability: 157.283  26.291 120.169   6.610   4.637  93.507

                      1                      2                      3
                      A                      A                      A
 Frequencies --     89.2244               104.8478               194.8623
 Red. masses --      5.1908                 2.9722                 4.7029
 Frc consts  --      0.0243                 0.0193                 0.1052
 IR Inten    --      4.5555                 3.2131                 8.3217

                      4                      5                      6
                      A                      A                      A
 Frequencies --    222.2653               253.4828               302.8114
 Red. masses --      3.0879                 2.2357                 1.1091
 Frc consts  --      0.0899                 0.0846                 0.0599
 IR Inten    --      5.9680                 4.2583                89.4835

                      7                      8                      9
                      A                      A                      A
 Frequencies --    359.6207               406.1209               465.7638
 Red. masses --      3.2342                 2.5187                 2.3896
 Frc consts  --      0.2464                 0.2448                 0.3054
 IR Inten    --      4.5469                 5.7753                 1.2732

                     10                     11                     12
                      A                      A                      A
 Frequencies --    477.2899               505.4598               654.4015
 Red. masses --      3.0884                 3.1721                 3.6841
 Frc consts  --      0.4145                 0.4775                 0.9296
 IR Inten    --      2.4172                 2.9731                 9.5806

                     13                     14                     15
                      A                      A                      A
 Frequencies --    713.1427               768.2089               820.5195
 Red. masses --      2.4039                 3.4890                 2.1093
 Frc consts  --      0.7203                 1.2131                 0.8367
 IR Inten    --      8.8629                11.4680                 7.0347

                     16                     17                     18
                      A                      A                      A
 Frequencies --    879.8821               896.6173               926.6746
 Red. masses --      1.8053                 1.7604                 1.7742
 Frc consts  --      0.8235                 0.8338                 0.8977
 IR Inten    --      0.5167                 4.8138                19.3350

                     19                     20                     21
                      A                      A                      A
 Frequencies --    965.5418              1005.2764              1036.0714
 Red. masses --      2.8957                 2.5238                 1.7312
 Frc consts  --      1.5905                 1.5027                 1.0949
 IR Inten    --     26.9387                25.5326                 3.3267

                     22                     23                     24
                      A                      A                      A
 Frequencies --   1052.9970              1089.5827              1114.9193
 Red. masses --      1.9196                 2.0719                 1.6834
 Frc consts  --      1.2541                 1.4493                 1.2329
 IR Inten    --      3.5159                38.7135                 4.1305

                     25                     26                     27
                      A                      A                      A
 Frequencies --   1166.6317              1178.1481              1201.5638
 Red. masses --      1.1602                 2.1580                 1.6167
 Frc consts  --      0.9303                 1.7648                 1.3752
 IR Inten    --     10.4647                71.0410                 7.2234

                     28                     29                     30
                      A                      A                      A
 Frequencies --   1257.5060              1289.0241              1324.2884
 Red. masses --      1.2972                 1.2592                 1.3201
 Frc consts  --      1.2086                 1.2327                 1.3640
 IR Inten    --     26.0747                 2.2479                 6.2491

                     31                     32                     33
                      A                      A                      A
 Frequencies --   1356.9076              1366.5874              1384.7034
 Red. masses --      1.5092                 1.5431                 1.4703
 Frc consts  --      1.6372                 1.6980                 1.6610
 IR Inten    --      1.0597                 1.3743                 0.8271

                     34                     35                     36
                      A                      A                      A
 Frequencies --   1395.2679              1417.3473              1431.2122
 Red. masses --      2.0187                 1.2062                 1.2723
 Frc consts  --      2.3154                 1.4277                 1.5355
 IR Inten    --     23.9242                49.5939                 4.6813

                     37                     38                     39
                      A                      A                      A
 Frequencies --   1469.3175              1480.6428              1496.3410
 Red. masses --      1.0900                 1.0886                 1.0950
 Frc consts  --      1.3865                 1.4061                 1.4446
 IR Inten    --      2.6095                10.2103                 3.2064

                     40                     41                     42
                      A                      A                      A
 Frequencies --   1697.5638              1791.1892              2877.3972
 Red. masses --      7.1005                10.5632                 1.0831
 Frc consts  --     12.0557                19.9677                 5.2836
 IR Inten    --     20.5374               231.5752               109.9282

                     43                     44                     45
                      A                      A                      A
 Frequencies --   3010.8303              3019.7021              3025.9036
 Red. masses --      1.0720                 1.0684                 1.0653
 Frc consts  --      5.7258                 5.7399                 5.7468
 IR Inten    --      8.7323                13.5278                28.7069

                     46                     47                     48
                      A                      A                      A
 Frequencies --   3045.4554              3079.5554              3081.8980
 Red. masses --      1.0821                 1.0921                 1.0927
 Frc consts  --      5.9132                 6.1025                 6.1147
 IR Inten    --     40.5815                33.1289                14.4243

                     49                     50                     51
                      A                      A                      A
 Frequencies --   3089.1481              3146.2218              3804.6685
 Red. masses --      1.0977                 1.0888                 1.0662
 Frc consts  --      6.1719                 6.3499                 9.0933
 IR Inten    --     25.8250                12.8157                12.8844

 - Thermochemistry -
 -------------------
 Temperature   298.150 Kelvin.  Pressure   1.00000 Atm.
 Atom     1 has atomic number  8 and mass  15.99491

 Molecular mass:   126.06808 amu.
 Principal axes and moments of inertia in atomic units:
                           1         2         3
     Eigenvalues --   586.383231630.838182020.66778
           X            0.99983  -0.01804   0.00321
           Y            0.01800   0.99975   0.01352
           Z           -0.00345  -0.01346   0.99990
 This molecule is an asymmetric top.
 Rotational symmetry number  1.
 Warning -- assumption of classical behavior for rotation
           may cause significant error
 Rotational temperatures (Kelvin)      0.14771     0.05311     0.04286
 Rotational constants (GHZ):           3.07775     1.10663     0.89314
 Zero-point vibrational energy     419833.1 (Joules/Mol)
                                  100.34251 (Kcal/Mol)
 Warning -- explicit consideration of  11 degrees of freedom as
           vibrations may cause significant error
 Vibrational temperatures:    128.37   150.85   280.36   319.79   364.70
          (Kelvin)            435.68   517.41   584.32   670.13   686.71
                              727.24   941.54  1026.05  1105.28  1180.54
                             1265.95  1290.03  1333.28  1389.20  1446.37
                             1490.67  1515.03  1567.66  1604.12  1678.52
                             1695.09  1728.78  1809.27  1854.62  1905.35
                             1952.28  1966.21  1992.28  2007.48  2039.24
                             2059.19  2114.02  2130.31  2152.90  2442.41
                             2577.12  4139.93  4331.91  4344.67  4353.59
                             4381.73  4430.79  4434.16  4444.59  4526.71
                             5474.06

 Zero-point correction=                           0.159906 (Hartree/Particle)
 Thermal correction to Energy=                    0.168487
 Thermal correction to Enthalpy=                  0.169431
 Thermal correction to Gibbs Free Energy=         0.126546
 Sum of electronic and zero-point Energies=           -423.059798
 Sum of electronic and thermal Energies=              -423.051217
 Sum of electronic and thermal Enthalpies=            -423.050273
 Sum of electronic and thermal Free Energies=         -423.093158

                     E (Thermal)             CV                S
                      KCal/Mol        Cal/Mol-Kelvin    Cal/Mol-Kelvin
 Total                  105.727             32.440             90.259
 Electronic               0.000              0.000              0.000
 Translational            0.889              2.981             40.409
 Rotational               0.889              2.981             29.048
 Vibrational            103.950             26.478             20.802
 Vibration     1          0.602              1.957              3.677
 Vibration     2          0.605              1.945              3.362
 Vibration     3          0.636              1.847              2.181
 Vibration     4          0.648              1.807              1.941
 Vibration     5          0.665              1.757              1.706
 Vibration     6          0.694              1.668              1.401
 Vibration     7          0.734              1.555              1.124
 Vibration     8          0.771              1.457              0.940
 Vibration     9          0.823              1.326              0.750
 Vibration    10          0.834              1.300              0.717
 Vibration    11          0.861              1.238              0.645

 Optimization completed.
    -- Stationary point found.
 Normal termination of Gaussian 09 at Tue Jan 28 08:55:23 2020.
