 Gaussian 09, Revision D.01,
 Gaussian 09:  ES64L-G09RevD.01 24-Apr-2013

 -----------------------------
 # b3lyp 6-31G(2df,p) opt Freq
 -----------------------------

 -----
 titel
 -----
 Symbolic Z-matrix:
 Charge =  0 Multiplicity = 1

 SCF Done:  E(RB3LYP) =  -423.165505475     A.U. after   14 cycles
 Optimization completed.
    -- Stationary point found.
 Normal termination of Gaussian 09 at Tue Jan 28 04:00:26 2020.

 ----------------------------------------------------------------------
 #N Geom=AllCheck Guess=TCheck SCRF=Check GenChk RB3LYP/6-31G(2df,p) Fr
 eq
 ----------------------------------------------------------------------

 Structure from the checkpoint file:  "/scratch/puck/g09_3d533d8c-6002-48b1-a097-5198678bf4d7/Gau-92540.chk"
 -----
 titel
 -----
 Charge =  0 Multiplicity = 1

                         Standard orientation:
 ---------------------------------------------------------------------
 Center     Atomic      Atomic             Coordinates (Angstroms)
 Number     Number       Type             X           Y           Z
 ---------------------------------------------------------------------
      1          6           0       -1.733358    1.693137    0.299121
      2          6           0       -1.062078    0.615803   -0.549435
      3          6           0       -1.986963   -0.570106   -0.978075
      4          6           0       -1.303365   -1.496537    0.073976
      5          6           0       -0.248642   -0.406181    0.268700
      6          8           0        0.402431   -0.127629    1.484837
      7          6           0        1.217511   -0.582177    0.388046
      8          6           0        2.140042    0.440446   -0.181576
      9          8           0        3.144776    0.172000   -0.790181
     10          1           0       -2.423595    2.286063   -0.309226
     11          1           0       -2.303037    1.252890    1.124515
     12          1           0       -0.992514    2.369450    0.735672
     13          1           0       -0.514953    1.078663   -1.375814
     14          1           0       -3.056503   -0.400787   -0.838190
     15          1           0       -1.815298   -0.895110   -2.005999
     16          1           0       -1.901206   -1.642886    0.977713
     17          1           0       -0.949330   -2.469734   -0.272462
     18          1           0        1.624023   -1.588355    0.478811
     19          1           0        1.815874    1.488531    0.003189
 ---------------------------------------------------------------------

 SCF Done:  E(RB3LYP) =  -423.165505475     A.U. after    1 cycles

 The electronic state is 1-A.
 Alpha  occ. eigenvalues --  -19.17152 -19.14568 -10.27599 -10.25751 -10.24856
 Alpha  occ. eigenvalues --  -10.20232 -10.19652 -10.19494 -10.18503  -1.09329
 Alpha  occ. eigenvalues --   -1.05116  -0.85333  -0.73695  -0.71838  -0.65037
 Alpha  occ. eigenvalues --   -0.63690  -0.59293  -0.54221  -0.51629  -0.48356
 Alpha  occ. eigenvalues --   -0.47472  -0.46319  -0.42969  -0.42112  -0.40944
 Alpha  occ. eigenvalues --   -0.39988  -0.38494  -0.36629  -0.36230  -0.33609
 Alpha  occ. eigenvalues --   -0.32454  -0.29943  -0.28108  -0.25729
 Alpha virt. eigenvalues --   -0.04004   0.07314   0.08483   0.10442   0.10774
 Alpha virt. eigenvalues --    0.12508   0.13100   0.14397   0.14648   0.15940
 Alpha virt. eigenvalues --    0.16947   0.18677   0.19593   0.20403   0.21130

 Mulliken charges:
               1
     1  C   -0.391173
     2  C   -0.094252
     3  C   -0.228775
     4  C   -0.318219
     5  C    0.449862
     6  O   -0.274286
     7  C   -0.158117
     8  C    0.151032
     9  O   -0.250436
    10  H    0.118727
    11  H    0.121372
    12  H    0.128452
    13  H    0.083523
    14  H    0.107577
    15  H    0.111881
    16  H    0.124183
    17  H    0.115557
    18  H    0.115368
    19  H    0.087723
 Sum of Mulliken charges =   0.00000

 Dipole moment (field-independent basis, Debye):
    X=             -2.8828    Y=             -0.2959    Z=             -0.3941  Tot=              2.9247
 Quadrupole moment (field-independent basis, Debye-Ang):
   XX=            -60.8439   YY=            -50.3865   ZZ=            -56.5447
   XY=             -0.1805   XZ=              3.4393   YZ=             -0.2157

  Exact polarizability:  93.263  -0.338  74.898  -2.876  -0.037  63.582
 Approx polarizability: 129.987  -1.878 103.467 -10.498   1.405 102.941

                      1                      2                      3
                      A                      A                      A
 Frequencies --     54.0085                87.3888               143.0701
 Red. masses --      2.6096                 5.9342                 3.2230
 Frc consts  --      0.0045                 0.0267                 0.0389
 IR Inten    --      0.4266                 4.2362                 2.9043

                      4                      5                      6
                      A                      A                      A
 Frequencies --    193.3731               223.1634               233.0067
 Red. masses --      2.4257                 1.1844                 2.0938
 Frc consts  --      0.0534                 0.0348                 0.0670
 IR Inten    --      1.0438                 0.7736                 5.1581

                      7                      8                      9
                      A                      A                      A
 Frequencies --    335.7521               385.5195               428.0324
 Red. masses --      2.3041                 3.5602                 3.8773
 Frc consts  --      0.1530                 0.3118                 0.4185
 IR Inten    --      3.6781                14.8480                 6.2406

                     10                     11                     12
                      A                      A                      A
 Frequencies --    456.2809               546.0671               567.7296
 Red. masses --      3.4781                 4.2370                 5.6662
 Frc consts  --      0.4266                 0.7444                 1.0760
 IR Inten    --      2.2852                 2.4122                 2.9592

                     13                     14                     15
                      A                      A                      A
 Frequencies --    729.4109               781.5857               854.4689
 Red. masses --      1.4102                 2.0322                 2.9645
 Frc consts  --      0.4420                 0.7314                 1.2752
 IR Inten    --      0.2663                 2.7959                23.0445

                     16                     17                     18
                      A                      A                      A
 Frequencies --    878.5781               917.6192               930.2914
 Red. masses --      2.3788                 3.2235                 2.1523
 Frc consts  --      1.0819                 1.5992                 1.0975
 IR Inten    --      0.1231                11.3238                13.0673

                     19                     20                     21
                      A                      A                      A
 Frequencies --    949.6972               986.6632              1029.5582
 Red. masses --      1.6326                 1.8504                 1.4646
 Frc consts  --      0.8676                 1.0613                 0.9147
 IR Inten    --      1.5827                 1.2880                 9.7833

                     22                     23                     24
                      A                      A                      A
 Frequencies --   1069.9966              1079.5301              1111.2461
 Red. masses --      2.5728                 1.8708                 2.2394
 Frc consts  --      1.7355                 1.2845                 1.6293
 IR Inten    --      7.1544                 2.8902                23.9968

                     25                     26                     27
                      A                      A                      A
 Frequencies --   1143.1620              1164.9839              1178.6751
 Red. masses --      2.1958                 2.1957                 1.7737
 Frc consts  --      1.6907                 1.7558                 1.4519
 IR Inten    --      8.9678                12.7532                 0.9545

                     28                     29                     30
                      A                      A                      A
 Frequencies --   1222.1610              1241.6892              1251.6726
 Red. masses --      1.3610                 1.2621                 1.4346
 Frc consts  --      1.1977                 1.1465                 1.3242
 IR Inten    --      0.3621                 0.8102                 9.9723

                     31                     32                     33
                      A                      A                      A
 Frequencies --   1275.5514              1299.3636              1343.1666
 Red. masses --      1.4748                 1.3934                 1.5317
 Frc consts  --      1.4138                 1.3861                 1.6281
 IR Inten    --      1.2280                 2.2125                 1.9492

                     34                     35                     36
                      A                      A                      A
 Frequencies --   1391.6695              1410.5879              1457.9213
 Red. masses --      1.4295                 1.2322                 2.1865
 Frc consts  --      1.6312                 1.4445                 2.7382
 IR Inten    --      8.1519                 2.9307                23.7231

                     37                     38                     39
                      A                      A                      A
 Frequencies --   1471.5198              1493.8039              1496.7015
 Red. masses --      1.1069                 1.0497                 1.0591
 Frc consts  --      1.4122                 1.3801                 1.3979
 IR Inten    --      2.2040                 6.8517                 3.8366

                     40                     41                     42
                      A                      A                      A
 Frequencies --   1501.3654              1823.2951              2893.0402
 Red. masses --      1.3424                10.3336                 1.0837
 Frc consts  --      1.7829                20.2402                 5.3439
 IR Inten    --     13.5113               211.5146                70.0319

                     43                     44                     45
                      A                      A                      A
 Frequencies --   3035.2708              3057.0907              3065.3526
 Red. masses --      1.0349                 1.0847                 1.0582
 Frc consts  --      5.6176                 5.9728                 5.8586
 IR Inten    --     19.9566                13.9274                17.7136

                     46                     47                     48
                      A                      A                      A
 Frequencies --   3075.2336              3104.6071              3110.8142
 Red. masses --      1.0613                 1.1013                 1.1020
 Frc consts  --      5.9135                 6.2544                 6.2832
 IR Inten    --     28.4237                27.9800                17.1914

                     49                     50                     51
                      A                      A                      A
 Frequencies --   3113.5439              3131.7224              3134.2191
 Red. masses --      1.1076                 1.1074                 1.0892
 Frc consts  --      6.3262                 6.3992                 6.3042
 IR Inten    --      6.4980                26.1397                14.9828

 - Thermochemistry -
 -------------------
 Temperature   298.150 Kelvin.  Pressure   1.00000 Atm.
 Atom     1 has atomic number  6 and mass  12.00000

 Molecular mass:   126.06808 amu.
 Principal axes and moments of inertia in atomic units:
                           1         2         3
     Eigenvalues --   647.928841645.996351763.22659
           X            0.99987  -0.01121   0.01116
           Y            0.01075   0.99911   0.04082
           Z           -0.01160  -0.04070   0.99910
 This molecule is an asymmetric top.
 Rotational symmetry number  1.
 Warning -- assumption of classical behavior for rotation
           may cause significant error
 Rotational temperatures (Kelvin)      0.13368     0.05262     0.04912
 Rotational constants (GHZ):           2.78540     1.09644     1.02354
 Zero-point vibrational energy     411875.6 (Joules/Mol)
                                   98.44063 (Kcal/Mol)
 Warning -- explicit consideration of  12 degrees of freedom as
           vibrations may cause significant error
 Vibrational temperatures:     77.71   125.73   205.85   278.22   321.08
          (Kelvin)            335.24   483.07   554.68   615.84   656.49
                              785.67   816.84  1049.46  1124.53  1229.39
                             1264.08  1320.25  1338.48  1366.40  1419.59
                             1481.30  1539.48  1553.20  1598.83  1644.75
                             1676.15  1695.85  1758.41  1786.51  1800.88
                             1835.23  1869.49  1932.51  2002.30  2029.52
                             2097.62  2117.19  2149.25  2153.42  2160.13
                             2623.31  4162.43  4367.07  4398.47  4410.35
                             4424.57  4466.83  4475.76  4479.69  4505.84
                             4509.44

 Zero-point correction=                           0.156875 (Hartree/Particle)
 Thermal correction to Energy=                    0.165948
 Thermal correction to Enthalpy=                  0.166892
 Thermal correction to Gibbs Free Energy=         0.122464
 Sum of electronic and zero-point Energies=           -423.008630
 Sum of electronic and thermal Energies=              -422.999557
 Sum of electronic and thermal Enthalpies=            -422.998613
 Sum of electronic and thermal Free Energies=         -423.043042

                     E (Thermal)             CV                S
                      KCal/Mol        Cal/Mol-Kelvin    Cal/Mol-Kelvin
 Total                  104.134             33.203             93.508
 Electronic               0.000              0.000              0.000
 Translational            0.889              2.981             40.409
 Rotational               0.889              2.981             29.021
 Vibrational            102.357             27.242             24.079
 Vibration     1          0.596              1.976              4.665
 Vibration     2          0.601              1.958              3.718
 Vibration     3          0.616              1.910              2.762
 Vibration     4          0.635              1.849              2.195
 Vibration     5          0.649              1.806              1.933
 Vibration     6          0.654              1.790              1.856
 Vibration     7          0.717              1.604              1.232
 Vibration     8          0.754              1.501              1.017
 Vibration     9          0.790              1.409              0.865
 Vibration    10          0.815              1.347              0.777
 Vibration    11          0.901              1.148              0.552
 Vibration    12          0.924              1.101              0.509

 Normal termination of Gaussian 09 at Tue Jan 28 04:48:32 2020.
