 Gaussian 09, Revision D.01,
 Gaussian 09:  ES64L-G09RevD.01 24-Apr-2013

 -----------------------------
 # b3lyp 6-31G(2df,p) opt Freq
 -----------------------------

 -----
 titel
 -----
 Symbolic Z-matrix:
 Charge =  0 Multiplicity = 1

 SCF Done:  E(RB3LYP) =  -423.183322466     A.U. after   14 cycles
 Optimization completed.
    -- Stationary point found.
 Normal termination of Gaussian 09 at Mon Jan 27 13:15:53 2020.

 ----------------------------------------------------------------------
 #N Geom=AllCheck Guess=TCheck SCRF=Check GenChk RB3LYP/6-31G(2df,p) Fr
 eq
 ----------------------------------------------------------------------

 Structure from the checkpoint file:  "/scratch/puck/g09_fddf2312-ae9d-48fa-afaf-e96a49d3b443/Gau-38253.chk"
 -----
 titel
 -----
 Charge =  0 Multiplicity = 1

                         Standard orientation:
 ---------------------------------------------------------------------
 Center     Atomic      Atomic             Coordinates (Angstroms)
 Number     Number       Type             X           Y           Z
 ---------------------------------------------------------------------
      1          8           0       -2.888549   -0.172970    0.071784
      2          6           0       -1.977013    0.607820   -0.037315
      3          6           0       -0.529108    0.187866   -0.042050
      4          6           0       -0.071623   -0.936386   -1.018490
      5          6           0        1.003978   -1.264316    0.054401
      6          6           0       -0.006606   -0.728884    1.110018
      7          6           0        2.157839   -0.257493   -0.102891
      8          6           0        1.632841    1.174287    0.147951
      9          8           0        0.264416    1.348583   -0.226564
     10          1           0       -2.138812    1.702599   -0.142512
     11          1           0       -0.834252   -1.712991   -1.105989
     12          1           0        0.261419   -0.605157   -2.005221
     13          1           0        1.359191   -2.293076    0.140591
     14          1           0       -0.772168   -1.465283    1.359833
     15          1           0        0.362010   -0.252260    2.021067
     16          1           0        2.962686   -0.463469    0.611635
     17          1           0        2.585920   -0.351584   -1.107387
     18          1           0        1.744021    1.420574    1.212863
     19          1           0        2.201195    1.918374   -0.416376
 ---------------------------------------------------------------------

 SCF Done:  E(RB3LYP) =  -423.183322466     A.U. after    1 cycles

 The electronic state is 1-A.
 Alpha  occ. eigenvalues --  -19.14730 -19.14128 -10.26713 -10.24628 -10.23583
 Alpha  occ. eigenvalues --  -10.20207 -10.19264 -10.19254 -10.18716  -1.05228
 Alpha  occ. eigenvalues --   -1.03941  -0.85432  -0.77877  -0.67457  -0.67080
 Alpha  occ. eigenvalues --   -0.64266  -0.57709  -0.52828  -0.50831  -0.49390
 Alpha  occ. eigenvalues --   -0.46605  -0.45252  -0.43588  -0.42197  -0.40776
 Alpha  occ. eigenvalues --   -0.38959  -0.38844  -0.38060  -0.34038  -0.33051
 Alpha  occ. eigenvalues --   -0.32142  -0.29992  -0.25698  -0.24429
 Alpha virt. eigenvalues --   -0.03023   0.07888   0.09730   0.11165   0.12372
 Alpha virt. eigenvalues --    0.13241   0.14402   0.14974   0.15457   0.16678
 Alpha virt. eigenvalues --    0.18206   0.18746   0.21006   0.21138   0.22162

 Mulliken charges:
               1
     1  O   -0.266435
     2  C    0.090946
     3  C    0.341124
     4  C   -0.249972
     5  C   -0.035427
     6  C   -0.282386
     7  C   -0.228142
     8  C   -0.077244
     9  O   -0.325517
    10  H    0.090583
    11  H    0.119377
    12  H    0.099433
    13  H    0.069742
    14  H    0.126707
    15  H    0.104050
    16  H    0.102298
    17  H    0.106701
    18  H    0.101682
    19  H    0.112478
 Sum of Mulliken charges =   0.00000

 Dipole moment (field-independent basis, Debye):
    X=              2.9834    Y=             -0.1927    Z=              0.2784  Tot=              3.0026
 Quadrupole moment (field-independent basis, Debye-Ang):
   XX=            -59.0069   YY=            -53.3682   ZZ=            -51.7668
   XY=             -1.4376   XZ=              0.6512   YZ=              0.5645

  Exact polarizability:  86.519   1.406  73.778   0.101   0.049  64.830
 Approx polarizability: 118.815   5.874 110.632  -0.145  -1.517  99.406

                      1                      2                      3
                      A                      A                      A
 Frequencies --     59.0873               182.8000               202.1278
 Red. masses --      3.2795                 4.3219                 2.5139
 Frc consts  --      0.0067                 0.0851                 0.0605
 IR Inten    --      8.0166                 4.3599                 3.3338

                      4                      5                      6
                      A                      A                      A
 Frequencies --    221.5101               354.2146               389.3538
 Red. masses --      2.2495                 2.2697                 3.9356
 Frc consts  --      0.0650                 0.1678                 0.3515
 IR Inten    --      5.0179                 0.9183                 0.4387

                      7                      8                      9
                      A                      A                      A
 Frequencies --    444.3455               455.6627               550.2021
 Red. masses --      2.5043                 2.6983                 4.2203
 Frc consts  --      0.2913                 0.3301                 0.7527
 IR Inten    --      1.4771                 1.3306                 3.2740

                     10                     11                     12
                      A                      A                      A
 Frequencies --    600.2892               723.4190               802.3994
 Red. masses --      2.9692                 3.2186                 1.7044
 Frc consts  --      0.6304                 0.9924                 0.6465
 IR Inten    --      1.5992                31.9461                 0.3172

                     13                     14                     15
                      A                      A                      A
 Frequencies --    817.0039               830.2184               872.7360
 Red. masses --      2.4309                 2.9665                 2.5753
 Frc consts  --      0.9560                 1.2047                 1.1557
 IR Inten    --      1.4661                 0.3678                 7.3513

                     16                     17                     18
                      A                      A                      A
 Frequencies --    885.0971               936.5584               936.8773
 Red. masses --      2.5293                 2.1307                 2.1492
 Frc consts  --      1.1674                 1.1011                 1.1114
 IR Inten    --     22.9427                 2.5668                16.7880

                     19                     20                     21
                      A                      A                      A
 Frequencies --    956.2220              1022.1216              1041.7996
 Red. masses --      1.9297                 2.2489                 1.2370
 Frc consts  --      1.0396                 1.3843                 0.7910
 IR Inten    --      1.0685                13.9801                 3.3920

                     22                     23                     24
                      A                      A                      A
 Frequencies --   1072.1069              1100.7607              1119.0004
 Red. masses --      2.0321                 1.8264                 2.1140
 Frc consts  --      1.3762                 1.3039                 1.5596
 IR Inten    --     44.7747                10.5189                 2.7500

                     25                     26                     27
                      A                      A                      A
 Frequencies --   1123.3378              1184.2953              1208.6719
 Red. masses --      1.6150                 1.6173                 2.4975
 Frc consts  --      1.2008                 1.3365                 2.1497
 IR Inten    --      0.5237                 7.3333                63.5223

                     28                     29                     30
                      A                      A                      A
 Frequencies --   1226.9041              1240.6936              1257.1647
 Red. masses --      1.3165                 1.7172                 1.6439
 Frc consts  --      1.1676                 1.5574                 1.5308
 IR Inten    --      3.4234                28.2250                 4.5816

                     31                     32                     33
                      A                      A                      A
 Frequencies --   1283.1838              1296.0130              1330.5788
 Red. masses --      1.4666                 1.8342                 1.5014
 Frc consts  --      1.4228                 1.8152                 1.5661
 IR Inten    --      2.6097                 4.5686                 1.9732

                     34                     35                     36
                      A                      A                      A
 Frequencies --   1362.6870              1399.4111              1413.6547
 Red. masses --      1.4059                 1.2925                 1.3076
 Frc consts  --      1.5381                 1.4914                 1.5396
 IR Inten    --      5.3412                 9.8417                 5.3651

                     37                     38                     39
                      A                      A                      A
 Frequencies --   1467.4576              1490.3794              1498.9229
 Red. masses --      1.0928                 1.0945                 1.1085
 Frc consts  --      1.3865                 1.4324                 1.4673
 IR Inten    --      3.2363                 4.3260                 2.3449

                     40                     41                     42
                      A                      A                      A
 Frequencies --   1525.6613              1827.4279              2902.9981
 Red. masses --      1.0908                10.6954                 1.0847
 Frc consts  --      1.4959                21.0439                 5.3859
 IR Inten    --      1.3129               127.0293               105.5618

                     43                     44                     45
                      A                      A                      A
 Frequencies --   3003.0872              3033.0494              3062.1637
 Red. masses --      1.0717                 1.0601                 1.0577
 Frc consts  --      5.6946                 5.7461                 5.8435
 IR Inten    --     40.0942                27.7555                21.1531

                     46                     47                     48
                      A                      A                      A
 Frequencies --   3072.1040              3073.5477              3087.4385
 Red. masses --      1.0926                 1.0657                 1.0869
 Frc consts  --      6.0756                 5.9317                 6.1041
 IR Inten    --     48.0484                 8.8184                46.5233

                     49                     50                     51
                      A                      A                      A
 Frequencies --   3090.7422              3131.1507              3137.3051
 Red. masses --      1.0971                 1.1099                 1.1076
 Frc consts  --      6.1748                 6.4111                 6.4233
 IR Inten    --     43.5789                14.9498                17.8738

 - Thermochemistry -
 -------------------
 Temperature   298.150 Kelvin.  Pressure   1.00000 Atm.
 Atom     1 has atomic number  8 and mass  15.99491

 Molecular mass:   126.06808 amu.
 Principal axes and moments of inertia in atomic units:
                           1         2         3
     Eigenvalues --   538.671191282.247651512.70389
           X            1.00000  -0.00078   0.00274
           Y            0.00074   0.99987   0.01629
           Z           -0.00275  -0.01629   0.99986
 This molecule is an asymmetric top.
 Rotational symmetry number  1.
 Warning -- assumption of classical behavior for rotation
           may cause significant error
 Rotational temperatures (Kelvin)      0.16079     0.06755     0.05726
 Rotational constants (GHZ):           3.35036     1.40748     1.19306
 Zero-point vibrational energy     420522.9 (Joules/Mol)
                                  100.50739 (Kcal/Mol)
 Warning -- explicit consideration of  10 degrees of freedom as
           vibrations may cause significant error
 Vibrational temperatures:     85.01   263.01   290.82   318.70   509.64
          (Kelvin)            560.19   639.31   655.60   791.62   863.68
                             1040.84  1154.47  1175.48  1194.50  1255.67
                             1273.46  1347.50  1347.96  1375.79  1470.60
                             1498.92  1542.52  1583.75  1609.99  1616.23
                             1703.93  1739.01  1765.24  1785.08  1808.78
                             1846.21  1864.67  1914.40  1960.60  2013.44
                             2033.93  2111.34  2144.32  2156.61  2195.08
                             2629.26  4176.76  4320.77  4363.88  4405.77
                             4420.07  4422.14  4442.13  4446.88  4505.02
                             4513.88

 Zero-point correction=                           0.160169 (Hartree/Particle)
 Thermal correction to Energy=                    0.167942
 Thermal correction to Enthalpy=                  0.168886
 Thermal correction to Gibbs Free Energy=         0.127675
 Sum of electronic and zero-point Energies=           -423.023154
 Sum of electronic and thermal Energies=              -423.015381
 Sum of electronic and thermal Enthalpies=            -423.014436
 Sum of electronic and thermal Free Energies=         -423.055647

                     E (Thermal)             CV                S
                      KCal/Mol        Cal/Mol-Kelvin    Cal/Mol-Kelvin
 Total                  105.385             30.289             86.735
 Electronic               0.000              0.000              0.000
 Translational            0.889              2.981             40.409
 Rotational               0.889              2.981             28.437
 Vibrational            103.608             24.327             17.889
 Vibration     1          0.596              1.974              4.487
 Vibration     2          0.630              1.863              2.300
 Vibration     3          0.639              1.837              2.114
 Vibration     4          0.648              1.808              1.947
 Vibration     5          0.730              1.567              1.147
 Vibration     6          0.757              1.493              1.003
 Vibration     7          0.804              1.373              0.813
 Vibration     8          0.814              1.348              0.779
 Vibration     9          0.905              1.139              0.544
 Vibration    10          0.958              1.031              0.449

 Optimization completed.
    -- Stationary point found.
 Normal termination of Gaussian 09 at Mon Jan 27 14:01:30 2020.
