 Gaussian 09, Revision D.01,
 Gaussian 09:  ES64L-G09RevD.01 24-Apr-2013

 -----------------------------
 # b3lyp 6-31G(2df,p) opt Freq
 -----------------------------

 -----
 titel
 -----
 Symbolic Z-matrix:
 Charge =  0 Multiplicity = 1

 SCF Done:  E(RB3LYP) =  -423.161566176     A.U. after   14 cycles
 Optimization completed.
    -- Stationary point found.
 Normal termination of Gaussian 09 at Mon Jan 27 13:10:30 2020.

 ----------------------------------------------------------------------
 #N Geom=AllCheck Guess=TCheck SCRF=Check GenChk RB3LYP/6-31G(2df,p) Fr
 eq
 ----------------------------------------------------------------------

 Structure from the checkpoint file:  "/scratch/puck/g09_6ea9b29f-e051-4f8f-90f4-e14fabaf4e39/Gau-74604.chk"
 -----
 titel
 -----
 Charge =  0 Multiplicity = 1

                         Standard orientation:
 ---------------------------------------------------------------------
 Center     Atomic      Atomic             Coordinates (Angstroms)
 Number     Number       Type             X           Y           Z
 ---------------------------------------------------------------------
      1          8           0        1.335362    2.133115   -0.119889
      2          6           0        1.703234    0.994528   -0.288271
      3          6           0        0.968533   -0.207609    0.167642
      4          6           0       -0.333001    0.041095    0.911012
      5          6           0       -1.453069    0.488868   -0.000926
      6          6           0       -2.847649    0.104458    0.241916
      7          8           0       -2.081799   -0.539257   -0.779160
      8          6           0        1.092616   -1.433783   -0.735558
      9          6           0        1.847135   -1.398750    0.547091
     10          1           0        2.659124    0.772434   -0.819076
     11          1           0       -0.644176   -0.874466    1.425058
     12          1           0       -0.166115    0.812111    1.672173
     13          1           0       -1.263965    1.408939   -0.551804
     14          1           0       -3.090984   -0.515562    1.104469
     15          1           0       -3.656972    0.741587   -0.111462
     16          1           0        0.198884   -2.040827   -0.811523
     17          1           0        1.645779   -1.324391   -1.662555
     18          1           0        1.499984   -2.000362    1.379512
     19          1           0        2.923142   -1.263175    0.510173
 ---------------------------------------------------------------------

 SCF Done:  E(RB3LYP) =  -423.161566177     A.U. after    1 cycles

 The electronic state is 1-A.
 Alpha  occ. eigenvalues --  -19.14889 -19.13590 -10.26931 -10.23598 -10.23270
 Alpha  occ. eigenvalues --  -10.21329 -10.20763 -10.20404 -10.19542  -1.06753
 Alpha  occ. eigenvalues --   -1.04337  -0.88438  -0.75667  -0.66961  -0.65600
 Alpha  occ. eigenvalues --   -0.62013  -0.60241  -0.54877  -0.51000  -0.49403
 Alpha  occ. eigenvalues --   -0.48054  -0.47124  -0.43254  -0.42250  -0.40271
 Alpha  occ. eigenvalues --   -0.39298  -0.38396  -0.37045  -0.36638  -0.32907
 Alpha  occ. eigenvalues --   -0.29967  -0.29307  -0.26528  -0.25181
 Alpha virt. eigenvalues --   -0.01880   0.08594   0.09490   0.10333   0.11324
 Alpha virt. eigenvalues --    0.12061   0.13358   0.14171   0.14336   0.15581
 Alpha virt. eigenvalues --    0.15819   0.17533   0.19367   0.20320   0.21681

 Mulliken charges:
               1
     1  O   -0.278420
     2  C    0.115531
     3  C    0.269231
     4  C   -0.333220
     5  C    0.103640
     6  C   -0.181993
     7  O   -0.239289
     8  C   -0.293607
     9  C   -0.322727
    10  H    0.068108
    11  H    0.098359
    12  H    0.122124
    13  H    0.115335
    14  H    0.110190
    15  H    0.116677
    16  H    0.151415
    17  H    0.124531
    18  H    0.129321
    19  H    0.124794
 Sum of Mulliken charges =   0.00000

 Dipole moment (field-independent basis, Debye):
    X=              0.3158    Y=             -1.8000    Z=              1.2028  Tot=              2.1878
 Quadrupole moment (field-independent basis, Debye-Ang):
   XX=            -48.9562   YY=            -59.3253   ZZ=            -52.6321
   XY=             -5.4387   XZ=             -3.4960   YZ=             -1.6653

  Exact polarizability:  88.159  -2.896  78.383  -3.635  -1.499  63.316
 Approx polarizability: 112.802  -3.648 128.310  -4.130   2.461  98.551

                      1                      2                      3
                      A                      A                      A
 Frequencies --     62.2801                87.9151               137.6001
 Red. masses --      4.9312                 3.8143                 4.0329
 Frc consts  --      0.0113                 0.0174                 0.0450
 IR Inten    --      3.1383                 6.2887                 1.5808

                      4                      5                      6
                      A                      A                      A
 Frequencies --    153.5897               238.6021               302.0058
 Red. masses --      2.9417                 3.6078                 2.5360
 Frc consts  --      0.0409                 0.1210                 0.1363
 IR Inten    --      4.7940                 6.7031                 2.8959

                      7                      8                      9
                      A                      A                      A
 Frequencies --    324.9208               379.4592               391.1705
 Red. masses --      2.3687                 2.5088                 2.4640
 Frc consts  --      0.1473                 0.2128                 0.2221
 IR Inten    --      0.1393                 0.1387                 4.6840

                     10                     11                     12
                      A                      A                      A
 Frequencies --    498.7518               545.0168               774.5181
 Red. masses --      2.6378                 5.0472                 2.7552
 Frc consts  --      0.3866                 0.8833                 0.9738
 IR Inten    --      7.2756                 8.6037                13.2808

                     13                     14                     15
                      A                      A                      A
 Frequencies --    782.5988               809.2021               843.3102
 Red. masses --      1.1338                 4.5318                 3.5793
 Frc consts  --      0.4091                 1.7484                 1.4998
 IR Inten    --      0.2516                 1.1505                 1.6200

                     16                     17                     18
                      A                      A                      A
 Frequencies --    860.0316               912.8424               926.9667
 Red. masses --      1.7503                 2.0579                 1.5848
 Frc consts  --      0.7628                 1.0104                 0.8023
 IR Inten    --     10.6975                59.7288                23.3185

                     19                     20                     21
                      A                      A                      A
 Frequencies --    963.3987               969.1660              1015.8270
 Red. masses --      3.0089                 1.6846                 1.8455
 Frc consts  --      1.6454                 0.9323                 1.1220
 IR Inten    --     22.4860                22.8877                10.5811

                     22                     23                     24
                      A                      A                      A
 Frequencies --   1047.7650              1060.8516              1088.6814
 Red. masses --      1.6173                 1.2595                 1.3989
 Frc consts  --      1.0461                 0.8351                 0.9769
 IR Inten    --      0.6378                 0.7917                 2.2069

                     25                     26                     27
                      A                      A                      A
 Frequencies --   1104.8667              1116.0375              1158.8462
 Red. masses --      1.3254                 2.1084                 1.3726
 Frc consts  --      0.9533                 1.5472                 1.0861
 IR Inten    --      0.6671                 2.0640                 1.1610

                     28                     29                     30
                      A                      A                      A
 Frequencies --   1176.6465              1196.1585              1234.1681
 Red. masses --      1.3312                 1.3110                 1.6052
 Frc consts  --      1.0859                 1.1052                 1.4406
 IR Inten    --      3.0185                 0.3521                 2.6244

                     31                     32                     33
                      A                      A                      A
 Frequencies --   1288.2047              1310.9000              1333.3456
 Red. masses --      1.5819                 1.8452                 1.5450
 Frc consts  --      1.5467                 1.8683                 1.6183
 IR Inten    --      5.3656                 0.3496                 5.1599

                     34                     35                     36
                      A                      A                      A
 Frequencies --   1364.9274              1435.6707              1447.6068
 Red. masses --      2.7989                 1.3265                 1.6228
 Frc consts  --      3.0723                 1.6109                 2.0037
 IR Inten    --     15.3873                 0.9965                 9.2608

                     37                     38                     39
                      A                      A                      A
 Frequencies --   1455.5041              1469.6609              1499.7268
 Red. masses --      1.1271                 1.0942                 1.2911
 Frc consts  --      1.4068                 1.3924                 1.7110
 IR Inten    --      9.8290                 1.9089                 0.4816

                     40                     41                     42
                      A                      A                      A
 Frequencies --   1529.5988              1806.8051              2854.1513
 Red. masses --      1.3499                10.4342                 1.0821
 Frc consts  --      1.8608                20.0692                 5.1938
 IR Inten    --      3.0493               223.2728               115.2038

                     43                     44                     45
                      A                      A                      A
 Frequencies --   3037.9023              3080.7506              3084.5475
 Red. masses --      1.0590                 1.0517                 1.1015
 Frc consts  --      5.7583                 5.8810                 6.1745
 IR Inten    --     14.1675                29.1201                 9.2503

                     46                     47                     48
                      A                      A                      A
 Frequencies --   3132.2818              3133.6489              3141.6943
 Red. masses --      1.0889                 1.0544                 1.0571
 Frc consts  --      6.2945                 6.1003                 6.1476
 IR Inten    --      8.1444                12.7095                 7.1477

                     49                     50                     51
                      A                      A                      A
 Frequencies --   3167.5512              3217.4103              3237.2114
 Red. masses --      1.1183                 1.1171                 1.1152
 Frc consts  --      6.6110                 6.8134                 6.8855
 IR Inten    --     29.7864                 2.7098                 3.9534

 - Thermochemistry -
 -------------------
 Temperature   298.150 Kelvin.  Pressure   1.00000 Atm.
 Atom     1 has atomic number  8 and mass  15.99491

 Molecular mass:   126.06808 amu.
 Principal axes and moments of inertia in atomic units:
                           1         2         3
     Eigenvalues --   719.562561479.198571880.14596
           X            0.99885  -0.04548  -0.01495
           Y            0.04529   0.99890  -0.01252
           Z            0.01550   0.01183   0.99981
 This molecule is an asymmetric top.
 Rotational symmetry number  1.
 Warning -- assumption of classical behavior for rotation
           may cause significant error
 Rotational temperatures (Kelvin)      0.12037     0.05855     0.04607
 Rotational constants (GHZ):           2.50811     1.22008     0.95989
 Zero-point vibrational energy     413861.8 (Joules/Mol)
                                   98.91535 (Kcal/Mol)
 Warning -- explicit consideration of  11 degrees of freedom as
           vibrations may cause significant error
 Vibrational temperatures:     89.61   126.49   197.98   220.98   343.29
          (Kelvin)            434.52   467.49   545.96   562.81   717.59
                              784.16  1114.36  1125.98  1164.26  1213.33
                             1237.39  1313.37  1333.70  1386.11  1394.41
                             1461.55  1507.50  1526.33  1566.37  1589.65
                             1605.73  1667.32  1692.93  1721.00  1775.69
                             1853.44  1886.09  1918.38  1963.82  2065.61
                             2082.78  2094.14  2114.51  2157.77  2200.75
                             2599.59  4106.48  4370.86  4432.51  4437.97
                             4506.65  4508.62  4520.19  4557.39  4629.13
                             4657.62

 Zero-point correction=                           0.157632 (Hartree/Particle)
 Thermal correction to Energy=                    0.166583
 Thermal correction to Enthalpy=                  0.167527
 Thermal correction to Gibbs Free Energy=         0.123320
 Sum of electronic and zero-point Energies=           -423.003935
 Sum of electronic and thermal Energies=              -422.994984
 Sum of electronic and thermal Enthalpies=            -422.994039
 Sum of electronic and thermal Free Energies=         -423.038247

                     E (Thermal)             CV                S
                      KCal/Mol        Cal/Mol-Kelvin    Cal/Mol-Kelvin
 Total                  104.532             32.867             93.042
 Electronic               0.000              0.000              0.000
 Translational            0.889              2.981             40.409
 Rotational               0.889              2.981             29.083
 Vibrational            102.755             26.906             23.550
 Vibration     1          0.597              1.972              4.384
 Vibration     2          0.601              1.958              3.706
 Vibration     3          0.614              1.916              2.837
 Vibration     4          0.619              1.899              2.627
 Vibration     5          0.657              1.781              1.813
 Vibration     6          0.694              1.670              1.406
 Vibration     7          0.709              1.626              1.285
 Vibration     8          0.749              1.514              1.041
 Vibration     9          0.759              1.489              0.996
 Vibration    10          0.854              1.253              0.661
 Vibration    11          0.900              1.151              0.555

 Optimization completed.
    -- Stationary point found.
 Normal termination of Gaussian 09 at Mon Jan 27 13:51:05 2020.
