 Gaussian 09, Revision D.01,
 Gaussian 09:  ES64L-G09RevD.01 24-Apr-2013

 -----------------------------
 # b3lyp 6-31G(2df,p) opt Freq
 -----------------------------

 -----
 titel
 -----
 Symbolic Z-matrix:
 Charge =  0 Multiplicity = 1

 SCF Done:  E(RB3LYP) =  -423.136948969     A.U. after   14 cycles
 SCF Done:  E(RB3LYP) =  -423.136947885     A.U. after    9 cycles
 SCF Done:  E(RB3LYP) =  -423.136949294     A.U. after    7 cycles
 SCF Done:  E(RB3LYP) =  -423.136949390     A.U. after    7 cycles
 SCF Done:  E(RB3LYP) =  -423.136949554     A.U. after    8 cycles
 SCF Done:  E(RB3LYP) =  -423.136949648     A.U. after    7 cycles
 SCF Done:  E(RB3LYP) =  -423.136949711     A.U. after    7 cycles
 SCF Done:  E(RB3LYP) =  -423.136949718     A.U. after    6 cycles
 SCF Done:  E(RB3LYP) =  -423.136949694     A.U. after    9 cycles
 SCF Done:  E(RB3LYP) =  -423.136949687     A.U. after    9 cycles
 SCF Done:  E(RB3LYP) =  -423.136949920     A.U. after   10 cycles
 SCF Done:  E(RB3LYP) =  -423.136940127     A.U. after   11 cycles
 SCF Done:  E(RB3LYP) =  -423.136949943     A.U. after    8 cycles
 SCF Done:  E(RB3LYP) =  -423.136950151     A.U. after    9 cycles
 SCF Done:  E(RB3LYP) =  -423.136950022     A.U. after    9 cycles
 SCF Done:  E(RB3LYP) =  -423.136949928     A.U. after    9 cycles
 SCF Done:  E(RB3LYP) =  -423.136949749     A.U. after    7 cycles
 Optimization completed on the basis of negligible forces.
    -- Stationary point found.
 Normal termination of Gaussian 09 at Wed Jan 29 11:33:30 2020.

 ----------------------------------------------------------------------
 #N Geom=AllCheck Guess=TCheck SCRF=Check GenChk RB3LYP/6-31G(2df,p) Fr
 eq
 ----------------------------------------------------------------------

 Structure from the checkpoint file:  "/scratch/puck/g09_53b586c9-ba9e-4d37-89f2-a65762aaca79/Gau-61920.chk"
 -----
 titel
 -----
 Charge =  0 Multiplicity = 1

                         Standard orientation:
 ---------------------------------------------------------------------
 Center     Atomic      Atomic             Coordinates (Angstroms)
 Number     Number       Type             X           Y           Z
 ---------------------------------------------------------------------
      1          6           0        3.765458    0.933816    0.199877
      2          6           0        2.535426    0.188619   -0.021151
      3          6           0        1.516395   -0.425676   -0.209848
      4          6           0        0.288999   -1.169169   -0.428695
      5          6           0       -0.611523   -1.446704    0.808111
      6          6           0       -1.651126   -0.569804    0.086525
      7          6           0       -1.977527    0.782936    0.698055
      8          8           0       -2.553962    1.633630   -0.271426
      9          8           0       -0.769207   -0.384844   -1.055333
     10          1           0        3.744610    1.889521   -0.335252
     11          1           0        3.915136    1.152281    1.262846
     12          1           0        4.638801    0.374916   -0.153369
     13          1           0        0.493279   -2.062292   -1.032005
     14          1           0       -0.886628   -2.493164    0.939994
     15          1           0       -0.232069   -1.043859    1.748102
     16          1           0       -2.572609   -1.076788   -0.223414
     17          1           0       -2.705873    0.670375    1.509607
     18          1           0       -1.057993    1.217587    1.123482
     19          1           0       -1.947915    1.617031   -1.023168
 ---------------------------------------------------------------------

 SCF Done:  E(RB3LYP) =  -423.136949749     A.U. after    1 cycles

 The electronic state is 1-A.
 Alpha  occ. eigenvalues --  -19.13964 -19.12728 -10.25919 -10.23454 -10.22265
 Alpha  occ. eigenvalues --  -10.20942 -10.19666 -10.18481 -10.17276  -1.04508
 Alpha  occ. eigenvalues --   -1.00717  -0.78736  -0.76008  -0.74503  -0.69321
 Alpha  occ. eigenvalues --   -0.64467  -0.56633  -0.52868  -0.49923  -0.48385
 Alpha  occ. eigenvalues --   -0.46403  -0.45913  -0.43221  -0.43175  -0.41595
 Alpha  occ. eigenvalues --   -0.40952  -0.38809  -0.36668  -0.32059  -0.31751
 Alpha  occ. eigenvalues --   -0.27786  -0.26463  -0.25567  -0.24608
 Alpha virt. eigenvalues --    0.02254   0.04666   0.10203   0.10354   0.10609
 Alpha virt. eigenvalues --    0.11968   0.12278   0.14236   0.15340   0.16052
 Alpha virt. eigenvalues --    0.17485   0.18229   0.18809   0.20301   0.21643

 Mulliken charges:
               1
     1  C   -0.497795
     2  C    0.048821
     3  C    0.111857
     4  C   -0.044806
     5  C   -0.325223
     6  C    0.130698
     7  C   -0.063197
     8  O   -0.421941
     9  O   -0.309543
    10  H    0.155804
    11  H    0.150699
    12  H    0.151944
    13  H    0.105075
    14  H    0.116451
    15  H    0.119939
    16  H    0.084532
    17  H    0.104990
    18  H    0.088082
    19  H    0.293612
 Sum of Mulliken charges =   0.00000

 Dipole moment (field-independent basis, Debye):
    X=              2.1425    Y=             -1.2702    Z=              1.3446  Tot=              2.8305
 Quadrupole moment (field-independent basis, Debye-Ang):
   XX=            -51.0784   YY=            -52.0158   ZZ=            -52.9617
   XY=              7.3956   XZ=             -1.1586   YZ=             -0.5873

  Exact polarizability: 106.830  11.855  73.572   0.632   1.003  62.622
 Approx polarizability: 143.368  21.653 106.214   5.327   2.202  95.088

                      1                      2                      3
                      A                      A                      A
 Frequencies --     27.9702                31.3712                98.6787
 Red. masses --      5.0602                 1.0208                 2.9132
 Frc consts  --      0.0023                 0.0006                 0.0167
 IR Inten    --      0.1178                 0.0427                 1.5142

                      4                      5                      6
                      A                      A                      A
 Frequencies --    123.9077               146.5813               229.1958
 Red. masses --      4.1229                 3.4418                 3.3761
 Frc consts  --      0.0373                 0.0436                 0.1045
 IR Inten    --      8.0466                 2.1631                 1.2578

                      7                      8                      9
                      A                      A                      A
 Frequencies --    305.5907               324.4040               388.3116
 Red. masses --      3.3074                 4.0449                 2.7902
 Frc consts  --      0.1820                 0.2508                 0.2479
 IR Inten    --      2.7411                 0.7005                 3.8615

                     10                     11                     12
                      A                      A                      A
 Frequencies --    460.8326               478.2297               504.2330
 Red. masses --      2.6902                 1.5081                 3.3816
 Frc consts  --      0.3366                 0.2032                 0.5066
 IR Inten    --     25.2379                46.8552                27.0460

                     13                     14                     15
                      A                      A                      A
 Frequencies --    522.4944               702.2048               789.5970
 Red. masses --      4.7589                 2.4609                 2.8871
 Frc consts  --      0.7655                 0.7150                 1.0605
 IR Inten    --      6.3811                 4.6158                 4.8045

                     16                     17                     18
                      A                      A                      A
 Frequencies --    875.8131               890.3588               948.6622
 Red. masses --      3.8920                 1.7232                 2.7567
 Frc consts  --      1.7589                 0.8049                 1.4617
 IR Inten    --     20.8052                16.7193                34.4965

                     19                     20                     21
                      A                      A                      A
 Frequencies --    970.7110              1028.3264              1050.2761
 Red. masses --      5.1350                 2.3654                 1.4123
 Frc consts  --      2.8508                 1.4737                 0.9179
 IR Inten    --    102.5517                52.7133                 1.0008

                     22                     23                     24
                      A                      A                      A
 Frequencies --   1052.3806              1060.9886              1084.2675
 Red. masses --      1.4108                 3.1601                 2.1049
 Frc consts  --      0.9206                 2.0959                 1.4580
 IR Inten    --      1.8503                52.9999                23.6129

                     25                     26                     27
                      A                      A                      A
 Frequencies --   1098.3216              1163.8264              1188.0303
 Red. masses --      3.0849                 1.6283                 2.4310
 Frc consts  --      2.1926                 1.2995                 2.0216
 IR Inten    --     33.0500                 1.9236                 9.6076

                     28                     29                     30
                      A                      A                      A
 Frequencies --   1222.0079              1251.6311              1263.1145
 Red. masses --      1.2716                 1.4521                 1.2607
 Frc consts  --      1.1188                 1.3403                 1.1850
 IR Inten    --      9.3374                 5.1212                 0.5789

                     31                     32                     33
                      A                      A                      A
 Frequencies --   1306.5326              1344.6026              1364.7479
 Red. masses --      1.4621                 1.2721                 1.4246
 Frc consts  --      1.4705                 1.3550                 1.5633
 IR Inten    --     10.5161                14.8683                47.6020

                     34                     35                     36
                      A                      A                      A
 Frequencies --   1402.8634              1414.0110              1437.0684
 Red. masses --      1.2580                 1.2472                 1.3569
 Frc consts  --      1.4587                 1.4692                 1.6510
 IR Inten    --     20.6489                 4.7184                57.5927

                     37                     38                     39
                      A                      A                      A
 Frequencies --   1475.7941              1477.7145              1488.9087
 Red. masses --      1.0392                 1.0400                 1.1147
 Frc consts  --      1.3335                 1.3381                 1.4559
 IR Inten    --      6.0718                 5.6260                 4.6168

                     40                     41                     42
                      A                      A                      A
 Frequencies --   1498.3903              2365.8570              2971.5779
 Red. masses --      1.0988                11.8679                 1.0688
 Frc consts  --      1.4535                39.1383                 5.5604
 IR Inten    --      0.8057                22.9246                40.0438

                     43                     44                     45
                      A                      A                      A
 Frequencies --   3023.1276              3029.1881              3037.2783
 Red. masses --      1.0837                 1.0347                 1.0850
 Frc consts  --      5.8353                 5.5941                 5.8972
 IR Inten    --     34.6243                28.6507                43.4754

                     46                     47                     48
                      A                      A                      A
 Frequencies --   3066.8011              3087.4306              3090.9224
 Red. masses --      1.0947                 1.0592                 1.1004
 Frc consts  --      6.0661                 5.9487                 6.1939
 IR Inten    --     51.6180                20.1435                 9.1546

                     49                     50                     51
                      A                      A                      A
 Frequencies --   3092.0661              3146.5537              3777.3300
 Red. masses --      1.1000                 1.1094                 1.0653
 Frc consts  --      6.1964                 6.4713                 8.9558
 IR Inten    --      8.0172                17.8977                27.4265

 - Thermochemistry -
 -------------------
 Temperature   298.150 Kelvin.  Pressure   1.00000 Atm.
 Atom     1 has atomic number  6 and mass  12.00000

 Molecular mass:   126.06808 amu.
 Principal axes and moments of inertia in atomic units:
                           1         2         3
     Eigenvalues --   644.204102116.608342422.78670
           X            0.99963   0.02711  -0.00281
           Y           -0.02712   0.99962  -0.00385
           Z            0.00271   0.00393   0.99999
 This molecule is an asymmetric top.
 Rotational symmetry number  1.
 Warning -- assumption of classical behavior for rotation
           may cause significant error
 Rotational temperatures (Kelvin)      0.13445     0.04092     0.03575
 Rotational constants (GHZ):           2.80151     0.85266     0.74490
 Zero-point vibrational energy     413794.8 (Joules/Mol)
                                   98.89933 (Kcal/Mol)
 Warning -- explicit consideration of  13 degrees of freedom as
           vibrations may cause significant error
 Vibrational temperatures:     40.24    45.14   141.98   178.28   210.90
          (Kelvin)            329.76   439.68   466.74   558.69   663.03
                              688.06   725.48   751.75  1010.31  1136.05
                             1260.10  1281.03  1364.91  1396.63  1479.53
                             1511.11  1514.14  1526.52  1560.02  1580.24
                             1674.48  1709.31  1758.19  1800.82  1817.34
                             1879.81  1934.58  1963.57  2018.41  2034.44
                             2067.62  2123.34  2126.10  2142.20  2155.85
                             3403.94  4275.43  4349.60  4358.32  4369.96
                             4412.44  4442.12  4447.14  4448.79  4527.18
                             5434.73

 Zero-point correction=                           0.157606 (Hartree/Particle)
 Thermal correction to Energy=                    0.167555
 Thermal correction to Enthalpy=                  0.168499
 Thermal correction to Gibbs Free Energy=         0.120477
 Sum of electronic and zero-point Energies=           -422.979344
 Sum of electronic and thermal Energies=              -422.969395
 Sum of electronic and thermal Enthalpies=            -422.968451
 Sum of electronic and thermal Free Energies=         -423.016473

                     E (Thermal)             CV                S
                      KCal/Mol        Cal/Mol-Kelvin    Cal/Mol-Kelvin
 Total                  105.142             34.631            101.071
 Electronic               0.000              0.000              0.000
 Translational            0.889              2.981             40.409
 Rotational               0.889              2.981             29.581
 Vibrational            103.365             28.669             31.082
 Vibration     1          0.593              1.984              5.968
 Vibration     2          0.594              1.983              5.741
 Vibration     3          0.604              1.950              3.480
 Vibration     4          0.610              1.929              3.039
 Vibration     5          0.617              1.906              2.716
 Vibration     6          0.652              1.796              1.885
 Vibration     7          0.696              1.663              1.386
 Vibration     8          0.709              1.627              1.288
 Vibration     9          0.756              1.495              1.007
 Vibration    10          0.819              1.337              0.764
 Vibration    11          0.835              1.298              0.715
 Vibration    12          0.860              1.241              0.648
 Vibration    13          0.877              1.200              0.604

 Optimization completed on the basis of negligible forces.
    -- Stationary point found.
 Normal termination of Gaussian 09 at Wed Jan 29 12:08:38 2020.
