 Gaussian 09, Revision D.01,
 Gaussian 09:  ES64L-G09RevD.01 24-Apr-2013

 -----------------------------
 # b3lyp 6-31G(2df,p) opt Freq
 -----------------------------

 -----
 titel
 -----
 Symbolic Z-matrix:
 Charge =  0 Multiplicity = 1

 SCF Done:  E(RB3LYP) =  -423.146676551     A.U. after   14 cycles
 Optimization completed.
    -- Stationary point found.
 Normal termination of Gaussian 09 at Tue Jan 28 12:05:52 2020.

 ----------------------------------------------------------------------
 #N Geom=AllCheck Guess=TCheck SCRF=Check GenChk RB3LYP/6-31G(2df,p) Fr
 eq
 ----------------------------------------------------------------------

 Structure from the checkpoint file:  "/scratch/puck/g09_64a9946c-de89-49e8-aaac-41231bd4594c/Gau-933.chk"
 -----
 titel
 -----
 Charge =  0 Multiplicity = 1

                         Standard orientation:
 ---------------------------------------------------------------------
 Center     Atomic      Atomic             Coordinates (Angstroms)
 Number     Number       Type             X           Y           Z
 ---------------------------------------------------------------------
      1          6           0        4.220667    0.021151   -0.344428
      2          8           0        2.845144    0.326919   -0.327601
      3          6           0        2.103716   -0.610310    0.428295
      4          6           0        0.690209   -0.257559    0.419611
      5          6           0       -0.480677    0.022561    0.441694
      6          6           0       -1.903623    0.341106    0.413687
      7          6           0       -2.161638    1.775611   -0.108212
      8          6           0       -2.633819   -0.651143   -0.497047
      9          8           0       -3.636808   -1.236066   -0.191044
     10          1           0        4.415694   -0.965874   -0.793426
     11          1           0        4.713890    0.787359   -0.946278
     12          1           0        4.654579    0.028528    0.668246
     13          1           0        2.236148   -1.627094    0.018101
     14          1           0        2.471467   -0.644182    1.469083
     15          1           0       -2.341167    0.234393    1.412545
     16          1           0       -1.630374    2.500376    0.512672
     17          1           0       -1.804320    1.884567   -1.136381
     18          1           0       -3.231495    1.999528   -0.080131
     19          1           0       -2.160120   -0.772927   -1.496872
 ---------------------------------------------------------------------

 SCF Done:  E(RB3LYP) =  -423.146676551     A.U. after    1 cycles

 The electronic state is 1-A.
 Alpha  occ. eigenvalues --  -19.14938 -19.14613 -10.27690 -10.25779 -10.23115
 Alpha  occ. eigenvalues --  -10.22424 -10.19737 -10.18730 -10.18412  -1.05393
 Alpha  occ. eigenvalues --   -1.04307  -0.82332  -0.77361  -0.71205  -0.67049
 Alpha  occ. eigenvalues --   -0.65118  -0.58856  -0.52367  -0.49531  -0.49199
 Alpha  occ. eigenvalues --   -0.48681  -0.46205  -0.44319  -0.42592  -0.41357
 Alpha  occ. eigenvalues --   -0.40820  -0.39463  -0.37904  -0.37204  -0.33223
 Alpha  occ. eigenvalues --   -0.28395  -0.27286  -0.26250  -0.24581
 Alpha virt. eigenvalues --   -0.02870   0.02736   0.05327   0.09259   0.11270
 Alpha virt. eigenvalues --    0.12458   0.13898   0.14989   0.15366   0.15978
 Alpha virt. eigenvalues --    0.16009   0.16804   0.17437   0.18803   0.19852

 Mulliken charges:
               1
     1  C   -0.219953
     2  O   -0.228334
     3  C   -0.200374
     4  C   -0.019826
     5  C    0.150728
     6  C   -0.219050
     7  C   -0.397121
     8  C    0.171930
     9  O   -0.241994
    10  H    0.106342
    11  H    0.132708
    12  H    0.106292
    13  H    0.116986
    14  H    0.117513
    15  H    0.124754
    16  H    0.141104
    17  H    0.135933
    18  H    0.133469
    19  H    0.088892
 Sum of Mulliken charges =   0.00000

 Dipole moment (field-independent basis, Debye):
    X=              2.5248    Y=              0.7410    Z=              0.2145  Tot=              2.6400
 Quadrupole moment (field-independent basis, Debye-Ang):
   XX=            -54.2330   YY=            -54.0919   ZZ=            -52.2132
   XY=             -9.6527   XZ=              1.0644   YZ=              0.1864

  Exact polarizability: 120.883  -3.005  68.823  -1.325   0.444  63.010
 Approx polarizability: 161.807  -3.459  98.489  -4.217  -0.928  92.491

                      1                      2                      3
                      A                      A                      A
 Frequencies --     13.7780                47.8081                70.7215
 Red. masses --      2.9946                 5.1524                 2.8462
 Frc consts  --      0.0003                 0.0069                 0.0084
 IR Inten    --      2.9407                 3.4721                 3.6636

                      4                      5                      6
                      A                      A                      A
 Frequencies --     78.6503               125.8255               192.9218
 Red. masses --      3.5553                 3.1430                 3.5316
 Frc consts  --      0.0130                 0.0293                 0.0774
 IR Inten    --      4.6372                 1.2287                 0.1666

                      7                      8                      9
                      A                      A                      A
 Frequencies --    223.3411               230.7714               282.6677
 Red. masses --      1.0812                 1.1641                 2.6764
 Frc consts  --      0.0318                 0.0365                 0.1260
 IR Inten    --      0.4617                 2.7647                 3.1374

                     10                     11                     12
                      A                      A                      A
 Frequencies --    315.7588               353.6515               419.1068
 Red. masses --      2.8566                 3.3124                 4.5399
 Frc consts  --      0.1678                 0.2441                 0.4698
 IR Inten    --      4.7527                 1.3078                 2.0439

                     13                     14                     15
                      A                      A                      A
 Frequencies --    453.0556               505.4478               592.6715
 Red. masses --      4.8889                 6.5918                 5.5391
 Frc consts  --      0.5912                 0.9922                 1.1463
 IR Inten    --     13.8503                 4.0658                 0.9146

                     16                     17                     18
                      A                      A                      A
 Frequencies --    801.2590               888.2500               932.1943
 Red. masses --      2.5525                 1.7278                 2.4515
 Frc consts  --      0.9655                 0.8032                 1.2551
 IR Inten    --      3.3220                29.1465                 3.4183

                     19                     20                     21
                      A                      A                      A
 Frequencies --    977.6315              1026.1009              1049.4501
 Red. masses --      4.4952                 1.6129                 2.0847
 Frc consts  --      2.5313                 1.0006                 1.3527
 IR Inten    --     32.0016                 3.4763                17.6178

                     22                     23                     24
                      A                      A                      A
 Frequencies --   1084.5531              1123.4613              1144.9146
 Red. masses --      2.0803                 2.5084                 4.2122
 Frc consts  --      1.4417                 1.8654                 3.2531
 IR Inten    --      1.0917                 8.8192               156.5371

                     25                     26                     27
                      A                      A                      A
 Frequencies --   1182.4319              1184.6198              1219.8802
 Red. masses --      1.3333                 2.1475                 1.5629
 Frc consts  --      1.0983                 1.7756                 1.3703
 IR Inten    --      4.7111                27.1582                39.3884

                     28                     29                     30
                      A                      A                      A
 Frequencies --   1254.2832              1269.1298              1324.2670
 Red. masses --      1.0877                 1.4080                 1.4787
 Frc consts  --      1.0082                 1.3362                 1.5279
 IR Inten    --      4.7754                 3.4942                15.9736

                     31                     32                     33
                      A                      A                      A
 Frequencies --   1398.5746              1411.0142              1416.8281
 Red. masses --      1.1852                 1.3636                 1.1942
 Frc consts  --      1.3658                 1.5995                 1.4124
 IR Inten    --      1.8437               107.0778                 7.6585

                     34                     35                     36
                      A                      A                      A
 Frequencies --   1477.0461              1484.5415              1491.7860
 Red. masses --      1.1584                 1.0468                 1.0448
 Frc consts  --      1.4890                 1.3592                 1.3699
 IR Inten    --      0.3755                 5.4152                 6.3047

                     37                     38                     39
                      A                      A                      A
 Frequencies --   1494.7362              1497.1664              1515.9930
 Red. masses --      1.0703                 1.0521                 1.0752
 Frc consts  --      1.4089                 1.3895                 1.4560
 IR Inten    --      3.2452                 2.3969                 3.6298

                     40                     41                     42
                      A                      A                      A
 Frequencies --   1839.6444              2367.1126              2886.5092
 Red. masses --     10.3098                11.9033                 1.0841
 Frc consts  --     20.5574                39.2968                 5.3218
 IR Inten    --    210.9206                 4.5181                77.7359

                     43                     44                     45
                      A                      A                      A
 Frequencies --   2943.7617              2961.2161              2969.8302
 Red. masses --      1.0532                 1.1027                 1.0381
 Frc consts  --      5.3773                 5.6972                 5.3946
 IR Inten    --     28.9565                43.2735                77.2254

                     46                     47                     48
                      A                      A                      A
 Frequencies --   3013.0009              3046.1520              3052.9462
 Red. masses --      1.1032                 1.0343                 1.0820
 Frc consts  --      5.9005                 5.6547                 5.9420
 IR Inten    --     56.7235                18.1831                 7.6432

                     49                     50                     51
                      A                      A                      A
 Frequencies --   3122.4963              3123.4030              3132.7333
 Red. masses --      1.0956                 1.1026                 1.1031
 Frc consts  --      6.2937                 6.3378                 6.3783
 IR Inten    --     24.5091                18.0200                11.4719

 - Thermochemistry -
 -------------------
 Temperature   298.150 Kelvin.  Pressure   1.00000 Atm.
 Atom     1 has atomic number  6 and mass  12.00000

 Molecular mass:   126.06808 amu.
 Principal axes and moments of inertia in atomic units:
                           1         2         3
     Eigenvalues --   428.545153308.627083554.77771
           X            0.99975  -0.02245   0.00036
           Y            0.02245   0.99972  -0.00692
           Z           -0.00021   0.00692   0.99998
 This molecule is an asymmetric top.
 Rotational symmetry number  1.
 Rotational temperatures (Kelvin)      0.20211     0.02618     0.02437
 Rotational constants (GHZ):           4.21132     0.54547     0.50769
 Zero-point vibrational energy     406820.6 (Joules/Mol)
                                   97.23246 (Kcal/Mol)
 Warning -- explicit consideration of  15 degrees of freedom as
           vibrations may cause significant error
 Vibrational temperatures:     19.82    68.79   101.75   113.16   181.03
          (Kelvin)            277.57   321.34   332.03   406.70   454.31
                              508.83   603.00   651.85   727.23   852.72
                             1152.83  1277.99  1341.22  1406.59  1476.33
                             1509.92  1560.43  1616.41  1647.27  1701.25
                             1704.40  1755.13  1804.63  1825.99  1905.32
                             2012.23  2030.13  2038.50  2125.14  2135.92
                             2146.34  2150.59  2154.09  2181.17  2646.83
                             3405.74  4153.04  4235.41  4260.52  4272.92
                             4335.03  4382.73  4392.50  4492.57  4493.87
                             4507.30

 Zero-point correction=                           0.154950 (Hartree/Particle)
 Thermal correction to Energy=                    0.166035
 Thermal correction to Enthalpy=                  0.166979
 Thermal correction to Gibbs Free Energy=         0.115757
 Sum of electronic and zero-point Energies=           -422.991727
 Sum of electronic and thermal Energies=              -422.980642
 Sum of electronic and thermal Enthalpies=            -422.979698
 Sum of electronic and thermal Free Energies=         -423.030919

                     E (Thermal)             CV                S
                      KCal/Mol        Cal/Mol-Kelvin    Cal/Mol-Kelvin
 Total                  104.188             36.609            107.805
 Electronic               0.000              0.000              0.000
 Translational            0.889              2.981             40.409
 Rotational               0.889              2.981             30.001
 Vibrational            102.411             30.648             37.396
 Vibration     1          0.593              1.986              7.374
 Vibration     2          0.595              1.978              4.906
 Vibration     3          0.598              1.968              4.133
 Vibration     4          0.600              1.964              3.924
 Vibration     5          0.611              1.927              3.009
 Vibration     6          0.635              1.850              2.200
 Vibration     7          0.649              1.806              1.932
 Vibration     8          0.652              1.794              1.873
 Vibration     9          0.682              1.706              1.517
 Vibration    10          0.703              1.644              1.332
 Vibration    11          0.730              1.568              1.150
 Vibration    12          0.782              1.429              0.895
 Vibration    13          0.812              1.354              0.787
 Vibration    14          0.861              1.238              0.645
 Vibration    15          0.950              1.047              0.462

 Optimization completed.
    -- Stationary point found.
 Normal termination of Gaussian 09 at Tue Jan 28 12:41:17 2020.
