 Gaussian 09, Revision D.01,
 Gaussian 09:  ES64L-G09RevD.01 24-Apr-2013

 -----------------------------
 # b3lyp 6-31G(2df,p) opt Freq
 -----------------------------

 -----
 titel
 -----
 Symbolic Z-matrix:
 Charge =  0 Multiplicity = 1

 SCF Done:  E(RB3LYP) =  -423.207946498     A.U. after   14 cycles
 Optimization completed.
    -- Stationary point found.
 Normal termination of Gaussian 09 at Tue Jan 28 03:11:20 2020.

 ----------------------------------------------------------------------
 #N Geom=AllCheck Guess=TCheck SCRF=Check GenChk RB3LYP/6-31G(2df,p) Fr
 eq
 ----------------------------------------------------------------------

 Structure from the checkpoint file:  "/scratch/puck/g09_c02fa9fa-430a-4a5a-a2ac-5d09daaf7ecc/Gau-44956.chk"
 -----
 titel
 -----
 Charge =  0 Multiplicity = 1

                         Standard orientation:
 ---------------------------------------------------------------------
 Center     Atomic      Atomic             Coordinates (Angstroms)
 Number     Number       Type             X           Y           Z
 ---------------------------------------------------------------------
      1          6           0        2.855217   -0.326075   -0.453840
      2          6           0        1.343952   -0.193044   -0.400463
      3          6           0        0.626930   -1.133231    0.587715
      4          6           0       -0.642559   -0.348996    0.944360
      5          6           0       -0.287536    1.133821    0.584465
      6          6           0       -1.457267    1.185474   -0.450390
      7          6           0       -1.729828   -0.298162   -0.150693
      8          8           0       -2.480364   -1.115999   -0.597919
      9          8           0        1.014942    1.131153    0.039353
     10          1           0        3.138477   -1.323031   -0.805028
     11          1           0        3.282437    0.413042   -1.136887
     12          1           0        3.286887   -0.167444    0.539164
     13          1           0        0.930814   -0.353098   -1.410718
     14          1           0        0.412200   -2.112987    0.153887
     15          1           0        1.241019   -1.278244    1.482753
     16          1           0       -1.028684   -0.562479    1.943186
     17          1           0       -0.326482    1.887982    1.371470
     18          1           0       -2.290266    1.832264   -0.156129
     19          1           0       -1.176472    1.424041   -1.480094
 ---------------------------------------------------------------------

 SCF Done:  E(RB3LYP) =  -423.207946498     A.U. after    1 cycles

 The electronic state is 1-A.
 Alpha  occ. eigenvalues --  -19.14318 -19.13962 -10.27068 -10.23993 -10.23902
 Alpha  occ. eigenvalues --  -10.19708 -10.19541 -10.19032 -10.18056  -1.04983
 Alpha  occ. eigenvalues --   -1.04116  -0.83779  -0.78933  -0.72380  -0.65146
 Alpha  occ. eigenvalues --   -0.62630  -0.56951  -0.52922  -0.50008  -0.49737
 Alpha  occ. eigenvalues --   -0.46286  -0.43588  -0.43360  -0.42863  -0.40970
 Alpha  occ. eigenvalues --   -0.38880  -0.38450  -0.36672  -0.35163  -0.34809
 Alpha  occ. eigenvalues --   -0.33059  -0.31330  -0.26039  -0.23855
 Alpha virt. eigenvalues --   -0.02683   0.08645   0.10441   0.10946   0.11385
 Alpha virt. eigenvalues --    0.13322   0.13914   0.15449   0.16604   0.17421
 Alpha virt. eigenvalues --    0.18105   0.18286   0.19117   0.19710   0.20464

 Mulliken charges:
               1
     1  C   -0.402591
     2  C    0.129644
     3  C   -0.241878
     4  C   -0.173711
     5  C    0.100245
     6  C   -0.374077
     7  C    0.394406
     8  O   -0.297844
     9  O   -0.270129
    10  H    0.118763
    11  H    0.128681
    12  H    0.122986
    13  H    0.076301
    14  H    0.123211
    15  H    0.108367
    16  H    0.100401
    17  H    0.087409
    18  H    0.132669
    19  H    0.137148
 Sum of Mulliken charges =   0.00000

 Dipole moment (field-independent basis, Debye):
    X=              1.3130    Y=              0.5552    Z=              1.0680  Tot=              1.7813
 Quadrupole moment (field-independent basis, Debye-Ang):
   XX=            -58.1664   YY=            -55.0225   ZZ=            -51.1143
   XY=             -7.8405   XZ=             -3.3944   YZ=             -0.9055

  Exact polarizability:  85.307  -2.695  73.646   1.291  -0.327  66.904
 Approx polarizability: 112.264   3.853 112.742   4.914   2.847 102.707

                      1                      2                      3
                      A                      A                      A
 Frequencies --     61.4155               111.7735               194.1555
 Red. masses --      4.4535                 3.1694                 2.5870
 Frc consts  --      0.0099                 0.0233                 0.0575
 IR Inten    --      5.9518                 1.7263                 2.0670

                      4                      5                      6
                      A                      A                      A
 Frequencies --    222.9435               296.7171               369.4161
 Red. masses --      1.1135                 2.4379                 2.7259
 Frc consts  --      0.0326                 0.1265                 0.2192
 IR Inten    --      0.1140                 1.0956                 2.8723

                      7                      8                      9
                      A                      A                      A
 Frequencies --    426.0205               478.9620               508.0340
 Red. masses --      3.5383                 2.2955                 2.2402
 Frc consts  --      0.3784                 0.3103                 0.3407
 IR Inten    --      2.4332                 0.8762                 1.7270

                     10                     11                     12
                      A                      A                      A
 Frequencies --    586.1641               617.9166               720.3319
 Red. masses --      3.9134                 4.6485                 3.0948
 Frc consts  --      0.7922                 1.0457                 0.9461
 IR Inten    --      1.8894                 2.6919                 1.0465

                     13                     14                     15
                      A                      A                      A
 Frequencies --    749.9474               833.1299               850.7268
 Red. masses --      2.7154                 3.0491                 2.0705
 Frc consts  --      0.8998                 1.2469                 0.8829
 IR Inten    --      2.2257                 4.4107                 0.1730

                     16                     17                     18
                      A                      A                      A
 Frequencies --    893.8966               902.4600               931.7402
 Red. masses --      1.9752                 3.1348                 1.5422
 Frc consts  --      0.9299                 1.5043                 0.7888
 IR Inten    --     19.0722                 7.0387                 0.9012

                     19                     20                     21
                      A                      A                      A
 Frequencies --    967.9989              1013.1332              1016.8063
 Red. masses --      3.2150                 1.5108                 1.6997
 Frc consts  --      1.7750                 0.9137                 1.0354
 IR Inten    --      7.4633                 7.0546                14.3914

                     22                     23                     24
                      A                      A                      A
 Frequencies --   1055.3061              1088.5121              1128.9097
 Red. masses --      2.1863                 2.4456                 2.3490
 Frc consts  --      1.4345                 1.7073                 1.7638
 IR Inten    --     21.3640                49.8063                29.3366

                     25                     26                     27
                      A                      A                      A
 Frequencies --   1133.1441              1152.2785              1182.4279
 Red. masses --      2.6819                 2.0064                 1.7905
 Frc consts  --      2.0289                 1.5696                 1.4749
 IR Inten    --     45.0605                21.9468                43.3737

                     28                     29                     30
                      A                      A                      A
 Frequencies --   1206.5469              1230.6628              1249.1555
 Red. masses --      1.4721                 1.9046                 1.5572
 Frc consts  --      1.2626                 1.6995                 1.4316
 IR Inten    --      4.1147                10.0019                12.9597

                     31                     32                     33
                      A                      A                      A
 Frequencies --   1257.9975              1315.3483              1352.5315
 Red. masses --      1.5734                 1.4568                 1.1908
 Frc consts  --      1.4671                 1.4850                 1.2834
 IR Inten    --      8.9709                 6.4232                 8.7274

                     34                     35                     36
                      A                      A                      A
 Frequencies --   1377.5445              1394.9633              1413.0368
 Red. masses --      1.3084                 1.3068                 1.4155
 Frc consts  --      1.4628                 1.4982                 1.6652
 IR Inten    --     12.2224                 3.1996                10.9016

                     37                     38                     39
                      A                      A                      A
 Frequencies --   1419.6997              1482.0810              1485.7139
 Red. masses --      1.1248                 1.0740                 1.0737
 Frc consts  --      1.3357                 1.3899                 1.3964
 IR Inten    --     18.6067                 1.4792                 5.2457

                     40                     41                     42
                      A                      A                      A
 Frequencies --   1498.4783              1889.5571              2957.6508
 Red. masses --      1.0493                12.7828                 1.0823
 Frc consts  --      1.3882                26.8903                 5.5781
 IR Inten    --      2.8962               242.8540                40.0334

                     43                     44                     45
                      A                      A                      A
 Frequencies --   3041.3410              3050.5590              3055.3975
 Red. masses --      1.0356                 1.0619                 1.0599
 Frc consts  --      5.6437                 5.8223                 5.8296
 IR Inten    --     12.3699                27.0427                 6.3591

                     46                     47                     48
                      A                      A                      A
 Frequencies --   3093.7144              3105.3887              3109.7795
 Red. masses --      1.0870                 1.0914                 1.1024
 Frc consts  --      6.1298                 6.2013                 6.2811
 IR Inten    --     12.2368                20.5945                 3.5138

                     49                     50                     51
                      A                      A                      A
 Frequencies --   3114.6104              3116.5769              3120.8480
 Red. masses --      1.1018                 1.1017                 1.1018
 Frc consts  --      6.2976                 6.3050                 6.3229
 IR Inten    --     16.5380                29.7593                19.0973

 - Thermochemistry -
 -------------------
 Temperature   298.150 Kelvin.  Pressure   1.00000 Atm.
 Atom     1 has atomic number  6 and mass  12.00000

 Molecular mass:   126.06808 amu.
 Principal axes and moments of inertia in atomic units:
                           1         2         3
     Eigenvalues --   555.206051410.163201636.11040
           X            0.99865  -0.05045  -0.01261
           Y            0.05005   0.99828  -0.03046
           Z            0.01412   0.02979   0.99946
 This molecule is an asymmetric top.
 Rotational symmetry number  1.
 Warning -- assumption of classical behavior for rotation
           may cause significant error
 Rotational temperatures (Kelvin)      0.15600     0.06142     0.05294
 Rotational constants (GHZ):           3.25058     1.27981     1.10307
 Zero-point vibrational energy     417696.8 (Joules/Mol)
                                   99.83193 (Kcal/Mol)
 Warning -- explicit consideration of  11 degrees of freedom as
           vibrations may cause significant error
 Vibrational temperatures:     88.36   160.82   279.35   320.77   426.91
          (Kelvin)            531.51   612.95   689.12   730.95   843.36
                              889.04  1036.40  1079.01  1198.69  1224.00
                             1286.12  1298.44  1340.56  1392.73  1457.67
                             1462.96  1518.35  1566.12  1624.25  1630.34
                             1657.87  1701.25  1735.95  1770.65  1797.25
                             1809.98  1892.49  1945.99  1981.98  2007.04
                             2033.04  2042.63  2132.38  2137.61  2155.97
                             2718.65  4255.39  4375.81  4389.07  4396.03
                             4451.16  4467.96  4474.27  4481.22  4484.05
                             4490.20

 Zero-point correction=                           0.159092 (Hartree/Particle)
 Thermal correction to Energy=                    0.167233
 Thermal correction to Enthalpy=                  0.168177
 Thermal correction to Gibbs Free Energy=         0.126045
 Sum of electronic and zero-point Energies=           -423.048854
 Sum of electronic and thermal Energies=              -423.040714
 Sum of electronic and thermal Enthalpies=            -423.039769
 Sum of electronic and thermal Free Energies=         -423.081901

                     E (Thermal)             CV                S
                      KCal/Mol        Cal/Mol-Kelvin    Cal/Mol-Kelvin
 Total                  104.940             31.282             88.674
 Electronic               0.000              0.000              0.000
 Translational            0.889              2.981             40.409
 Rotational               0.889              2.981             28.640
 Vibrational            103.163             25.320             19.626
 Vibration     1          0.597              1.973              4.411
 Vibration     2          0.607              1.940              3.238
 Vibration     3          0.635              1.848              2.188
 Vibration     4          0.649              1.806              1.935
 Vibration     5          0.690              1.680              1.435
 Vibration     6          0.742              1.535              1.082
 Vibration     7          0.788              1.414              0.872
 Vibration     8          0.835              1.297              0.713
 Vibration     9          0.863              1.232              0.638
 Vibration    10          0.943              1.061              0.474
 Vibration    11          0.978              0.994              0.420

 Optimization completed.
    -- Stationary point found.
 Normal termination of Gaussian 09 at Tue Jan 28 05:12:08 2020.
