 Gaussian 09, Revision D.01,
 Gaussian 09:  ES64L-G09RevD.01 24-Apr-2013

 -----------------------------
 # b3lyp 6-31G(2df,p) opt Freq
 -----------------------------

 -----
 titel
 -----
 Symbolic Z-matrix:
 Charge =  0 Multiplicity = 1

 SCF Done:  E(RB3LYP) =  -423.195433180     A.U. after   14 cycles
 Optimization completed.
    -- Stationary point found.
 Normal termination of Gaussian 09 at Tue Jan 28 08:14:43 2020.

 ----------------------------------------------------------------------
 #N Geom=AllCheck Guess=TCheck SCRF=Check GenChk RB3LYP/6-31G(2df,p) Fr
 eq
 ----------------------------------------------------------------------

 Structure from the checkpoint file:  "/scratch/puck/g09_cdf1de3d-7587-4fa6-821a-d4d924b05e61/Gau-17814.chk"
 -----
 titel
 -----
 Charge =  0 Multiplicity = 1

                         Standard orientation:
 ---------------------------------------------------------------------
 Center     Atomic      Atomic             Coordinates (Angstroms)
 Number     Number       Type             X           Y           Z
 ---------------------------------------------------------------------
      1          6           0        2.045715    1.024310   -0.193224
      2          6           0        1.254474   -0.063504    0.531538
      3          8           0        1.077984   -1.229475   -0.275547
      4          6           0       -0.086036   -1.275088   -1.083674
      5          6           0       -1.305704   -0.660252   -0.349717
      6          6           0       -1.065760   -0.808056    1.186470
      7          6           0       -0.120925    0.430180    1.064543
      8          6           0       -0.982002    0.820346   -0.141559
      9          8           0       -1.329094    1.849076   -0.648072
     10          1           0        2.244335    1.864980    0.479803
     11          1           0        3.002416    0.621923   -0.536188
     12          1           0        1.499330    1.412668   -1.057604
     13          1           0        1.838566   -0.417708    1.390085
     14          1           0        0.065628   -0.763973   -2.046582
     15          1           0       -0.263585   -2.335711   -1.290316
     16          1           0       -2.249875   -0.950114   -0.813322
     17          1           0       -1.962518   -0.592975    1.769571
     18          1           0       -0.602868   -1.738301    1.518234
     19          1           0       -0.001127    1.134785    1.889016
 ---------------------------------------------------------------------

 SCF Done:  E(RB3LYP) =  -423.195433180     A.U. after    1 cycles

 The electronic state is 1-A.
 Alpha  occ. eigenvalues --  -19.14761 -19.13584 -10.26622 -10.24831 -10.24331
 Alpha  occ. eigenvalues --  -10.20193 -10.20099 -10.19992 -10.17916  -1.04887
 Alpha  occ. eigenvalues --   -1.03899  -0.86120  -0.78682  -0.70868  -0.64745
 Alpha  occ. eigenvalues --   -0.63022  -0.60829  -0.51601  -0.50185  -0.47832
 Alpha  occ. eigenvalues --   -0.46360  -0.45754  -0.44598  -0.41270  -0.40141
 Alpha  occ. eigenvalues --   -0.39123  -0.38459  -0.37443  -0.36597  -0.34805
 Alpha  occ. eigenvalues --   -0.32935  -0.30141  -0.26243  -0.23771
 Alpha virt. eigenvalues --   -0.01469   0.08858   0.10781   0.11150   0.12366
 Alpha virt. eigenvalues --    0.12872   0.14502   0.15045   0.16484   0.16726
 Alpha virt. eigenvalues --    0.17704   0.18146   0.18693   0.19159   0.20134

 Mulliken charges:
               1
     1  C   -0.402863
     2  C    0.119051
     3  O   -0.264905
     4  C   -0.092867
     5  C   -0.160981
     6  C   -0.250529
     7  C   -0.163690
     8  C    0.436681
     9  O   -0.333224
    10  H    0.120470
    11  H    0.125624
    12  H    0.135754
    13  H    0.091601
    14  H    0.109578
    15  H    0.117465
    16  H    0.090542
    17  H    0.113141
    18  H    0.119440
    19  H    0.089712
 Sum of Mulliken charges =   0.00000

 Dipole moment (field-independent basis, Debye):
    X=              0.3072    Y=             -1.5547    Z=              1.1524  Tot=              1.9594
 Quadrupole moment (field-independent basis, Debye-Ang):
   XX=            -53.5593   YY=            -58.6026   ZZ=            -51.0794
   XY=              6.3841   XZ=             -0.4642   YZ=              3.0633

  Exact polarizability:  76.715   2.795  76.146   2.408   0.837  71.421
 Approx polarizability: 107.044  -3.603 119.005   6.642  -2.935 107.658

                      1                      2                      3
                      A                      A                      A
 Frequencies --    117.9008               133.7259               217.8205
 Red. masses --      3.9486                 4.8748                 2.4731
 Frc consts  --      0.0323                 0.0514                 0.0691
 IR Inten    --      5.2132                 2.0273                 1.7802

                      4                      5                      6
                      A                      A                      A
 Frequencies --    238.2703               336.4238               393.7362
 Red. masses --      1.0439                 2.5666                 2.7811
 Frc consts  --      0.0349                 0.1712                 0.2540
 IR Inten    --      0.1070                 1.9775                 3.4861

                      7                      8                      9
                      A                      A                      A
 Frequencies --    430.1734               466.2432               514.0073
 Red. masses --      3.5786                 3.4924                 4.8387
 Frc consts  --      0.3902                 0.4473                 0.7532
 IR Inten    --      2.8487                 2.2735                 4.0832

                     10                     11                     12
                      A                      A                      A
 Frequencies --    543.7445               717.2297               769.6077
 Red. masses --      4.5901                 2.6910                 2.6001
 Frc consts  --      0.7996                 0.8156                 0.9074
 IR Inten    --      0.6976                 0.4481                 2.2695

                     13                     14                     15
                      A                      A                      A
 Frequencies --    792.4454               827.1340               850.4078
 Red. masses --      4.3066                 2.7289                 2.7702
 Frc consts  --      1.5934                 1.1000                 1.1803
 IR Inten    --      1.1697                 1.0561                26.2065

                     16                     17                     18
                      A                      A                      A
 Frequencies --    889.7257               910.6578               972.3428
 Red. masses --      2.4170                 2.4217                 1.6557
 Frc consts  --      1.1273                 1.1833                 0.9223
 IR Inten    --      2.5737                 0.7870                 4.5221

                     19                     20                     21
                      A                      A                      A
 Frequencies --    992.1079              1010.6930              1037.6725
 Red. masses --      1.6888                 2.1500                 1.8825
 Frc consts  --      0.9794                 1.2940                 1.1943
 IR Inten    --      1.5830                10.0962                 9.8415

                     22                     23                     24
                      A                      A                      A
 Frequencies --   1086.3986              1098.2494              1103.8546
 Red. masses --      2.5549                 1.5269                 2.3474
 Frc consts  --      1.7766                 1.0851                 1.6852
 IR Inten    --     31.9613                 8.8186                61.2218

                     25                     26                     27
                      A                      A                      A
 Frequencies --   1130.1138              1146.8127              1167.9733
 Red. masses --      1.9545                 1.6515                 2.0369
 Frc consts  --      1.4707                 1.2798                 1.6371
 IR Inten    --      4.7883                 1.7292                44.4241

                     28                     29                     30
                      A                      A                      A
 Frequencies --   1225.7308              1244.8069              1264.5504
 Red. masses --      1.6121                 1.8676                 1.4327
 Frc consts  --      1.4271                 1.7050                 1.3498
 IR Inten    --      5.9565                47.6657                 7.1834

                     31                     32                     33
                      A                      A                      A
 Frequencies --   1269.7314              1292.6501              1349.9617
 Red. masses --      1.4912                 1.4292                 1.4140
 Frc consts  --      1.4165                 1.4070                 1.5182
 IR Inten    --     12.3372                 6.6229                 6.5824

                     34                     35                     36
                      A                      A                      A
 Frequencies --   1379.3725              1404.5871              1409.7514
 Red. masses --      1.2039                 1.2837                 1.2561
 Frc consts  --      1.3496                 1.4921                 1.4708
 IR Inten    --      3.4151                 7.0935                11.4539

                     37                     38                     39
                      A                      A                      A
 Frequencies --   1486.3646              1489.6483              1495.8833
 Red. masses --      1.0708                 1.0806                 1.0513
 Frc consts  --      1.3939                 1.4128                 1.3861
 IR Inten    --      2.1473                 2.0758                 3.2303

                     40                     41                     42
                      A                      A                      A
 Frequencies --   1518.2790              1884.5208              2988.8230
 Red. masses --      1.0823                11.9174                 1.0681
 Frc consts  --      1.4700                24.9363                 5.6218
 IR Inten    --      0.5152               268.0004                59.3811

                     43                     44                     45
                      A                      A                      A
 Frequencies --   3027.3825              3041.6570              3067.3292
 Red. masses --      1.0856                 1.0353                 1.0956
 Frc consts  --      5.8622                 5.6436                 6.0735
 IR Inten    --     29.2315                11.4557                29.4685

                     46                     47                     48
                      A                      A                      A
 Frequencies --   3081.0714              3106.3596              3108.8734
 Red. masses --      1.0573                 1.0890                 1.0888
 Frc consts  --      5.9137                 6.1912                 6.2004
 IR Inten    --     19.7366                12.9190                20.4176

                     49                     50                     51
                      A                      A                      A
 Frequencies --   3113.2388              3125.3341              3145.0216
 Red. masses --      1.0992                 1.1029                 1.1101
 Frc consts  --      6.2772                 6.3473                 6.4694
 IR Inten    --     27.8474                18.7356                11.6882

 - Thermochemistry -
 -------------------
 Temperature   298.150 Kelvin.  Pressure   1.00000 Atm.
 Atom     1 has atomic number  6 and mass  12.00000

 Molecular mass:   126.06808 amu.
 Principal axes and moments of inertia in atomic units:
                           1         2         3
     Eigenvalues --   806.64311 970.478171225.75414
           X            0.96086   0.27671  -0.01339
           Y           -0.27626   0.96068   0.02787
           Z            0.02057  -0.02308   0.99952
 This molecule is an asymmetric top.
 Rotational symmetry number  1.
 Warning -- assumption of classical behavior for rotation
           may cause significant error
 Rotational temperatures (Kelvin)      0.10738     0.08925     0.07066
 Rotational constants (GHZ):           2.23735     1.85964     1.47235
 Zero-point vibrational energy     421183.6 (Joules/Mol)
                                  100.66530 (Kcal/Mol)
 Warning -- explicit consideration of  10 degrees of freedom as
           vibrations may cause significant error
 Vibrational temperatures:    169.63   192.40   313.39   342.82   484.04
          (Kelvin)            566.50   618.92   670.82   739.54   782.33
                             1031.93  1107.29  1140.15  1190.06  1223.55
                             1280.12  1310.23  1398.98  1427.42  1454.16
                             1492.98  1563.08  1580.13  1588.20  1625.98
                             1650.01  1680.45  1763.55  1791.00  1819.40
                             1826.86  1859.83  1942.29  1984.61  2020.88
                             2028.32  2138.54  2143.27  2152.24  2184.46
                             2711.40  4300.24  4355.72  4376.26  4413.20
                             4432.97  4469.35  4472.97  4479.25  4496.65
                             4524.98

 Zero-point correction=                           0.160420 (Hartree/Particle)
 Thermal correction to Energy=                    0.168215
 Thermal correction to Enthalpy=                  0.169159
 Thermal correction to Gibbs Free Energy=         0.128318
 Sum of electronic and zero-point Energies=           -423.035013
 Sum of electronic and thermal Energies=              -423.027219
 Sum of electronic and thermal Enthalpies=            -423.026274
 Sum of electronic and thermal Free Energies=         -423.067115

                     E (Thermal)             CV                S
                      KCal/Mol        Cal/Mol-Kelvin    Cal/Mol-Kelvin
 Total                  105.556             30.628             85.956
 Electronic               0.000              0.000              0.000
 Translational            0.889              2.981             40.409
 Rotational               0.889              2.981             28.353
 Vibrational            103.779             24.666             17.194
 Vibration     1          0.608              1.934              3.135
 Vibration     2          0.613              1.920              2.892
 Vibration     3          0.646              1.814              1.977
 Vibration     4          0.656              1.782              1.816
 Vibration     5          0.717              1.603              1.229
 Vibration     6          0.761              1.484              0.986
 Vibration     7          0.791              1.405              0.858
 Vibration     8          0.824              1.325              0.748
 Vibration     9          0.869              1.219              0.624
 Vibration    10          0.899              1.153              0.557

 Optimization completed.
    -- Stationary point found.
 Normal termination of Gaussian 09 at Tue Jan 28 09:02:48 2020.
