 Gaussian 09, Revision D.01,
 Gaussian 09:  ES64L-G09RevD.01 24-Apr-2013

 -----------------------------
 # b3lyp 6-31G(2df,p) opt Freq
 -----------------------------

 -----
 titel
 -----
 Symbolic Z-matrix:
 Charge =  0 Multiplicity = 1

 SCF Done:  E(RB3LYP) =  -423.174476060     A.U. after   14 cycles
 Optimization completed.
    -- Stationary point found.
 Normal termination of Gaussian 09 at Mon Jan 27 23:07:13 2020.

 ----------------------------------------------------------------------
 #N Geom=AllCheck Guess=TCheck SCRF=Check GenChk RB3LYP/6-31G(2df,p) Fr
 eq
 ----------------------------------------------------------------------

 Structure from the checkpoint file:  "/scratch/puck/g09_21460cac-9d4e-4a1a-8660-579c8343ea27/Gau-81805.chk"
 -----
 titel
 -----
 Charge =  0 Multiplicity = 1

                         Standard orientation:
 ---------------------------------------------------------------------
 Center     Atomic      Atomic             Coordinates (Angstroms)
 Number     Number       Type             X           Y           Z
 ---------------------------------------------------------------------
      1          6           0        3.012926   -0.069784   -0.332026
      2          6           0        1.533810   -0.090480   -0.091293
      3          6           0        0.803422   -1.199457    0.061829
      4          6           0       -0.669141   -1.020860    0.332811
      5          8           0       -0.847882    0.037617    1.339372
      6          6           0       -0.685320    0.999640    0.249097
      7          6           0        0.808842    1.242803    0.012868
      8          6           0       -1.290045   -0.054351   -0.712654
      9          8           0       -2.692781   -0.043550   -0.750207
     10          1           0        3.256669    0.454339   -1.265195
     11          1           0        3.534362    0.468302    0.470425
     12          1           0        3.426703   -1.080083   -0.389322
     13          1           0        1.231387   -2.194306   -0.009447
     14          1           0       -1.210192   -1.933867    0.590131
     15          1           0       -1.259030    1.916565    0.414182
     16          1           0        0.953548    1.832002   -0.903691
     17          1           0        1.230343    1.841892    0.831956
     18          1           0       -0.932420   -0.109510   -1.742316
     19          1           0       -2.993029    0.007063    0.166165
 ---------------------------------------------------------------------

 SCF Done:  E(RB3LYP) =  -423.174476060     A.U. after    1 cycles

 The electronic state is 1-A.
 Alpha  occ. eigenvalues --  -19.13888 -19.13399 -10.23424 -10.23383 -10.23265
 Alpha  occ. eigenvalues --  -10.19583 -10.19152 -10.18543 -10.17723  -1.05312
 Alpha  occ. eigenvalues --   -1.00761  -0.82161  -0.74386  -0.73509  -0.68324
 Alpha  occ. eigenvalues --   -0.62260  -0.58281  -0.54522  -0.50015  -0.46733
 Alpha  occ. eigenvalues --   -0.45601  -0.44528  -0.43477  -0.42332  -0.40258
 Alpha  occ. eigenvalues --   -0.39064  -0.38292  -0.37587  -0.35422  -0.33239
 Alpha  occ. eigenvalues --   -0.30857  -0.27063  -0.25004  -0.23059
 Alpha virt. eigenvalues --    0.00486   0.09113   0.09629   0.11353   0.11649
 Alpha virt. eigenvalues --    0.12544   0.13951   0.14808   0.17307   0.17448
 Alpha virt. eigenvalues --    0.17664   0.18174   0.18290   0.20540   0.22288

 Mulliken charges:
               1
     1  C   -0.478765
     2  C    0.310536
     3  C   -0.157159
     4  C   -0.014279
     5  O   -0.319143
     6  C    0.028253
     7  C   -0.309639
     8  C    0.183889
     9  O   -0.457257
    10  H    0.124462
    11  H    0.128015
    12  H    0.123937
    13  H    0.086858
    14  H    0.075337
    15  H    0.075907
    16  H    0.108455
    17  H    0.114591
    18  H    0.088776
    19  H    0.287228
 Sum of Mulliken charges =   0.00000

 Dipole moment (field-independent basis, Debye):
    X=              1.5494    Y=              0.3045    Z=             -0.4164  Tot=              1.6330
 Quadrupole moment (field-independent basis, Debye-Ang):
   XX=            -53.4826   YY=            -49.4662   ZZ=            -57.1625
   XY=              0.2170   XZ=             -3.5460   YZ=             -0.2258

  Exact polarizability:  92.365   4.642  78.866  -3.099  -1.016  58.891
 Approx polarizability: 121.326  12.892 124.434  -5.174  -2.872  96.361

                      1                      2                      3
                      A                      A                      A
 Frequencies --    123.7045               188.2038               230.9329
 Red. masses --      3.3836                 1.0655                 3.2906
 Frc consts  --      0.0305                 0.0222                 0.1034
 IR Inten    --      0.8455                 0.2942                 7.7355

                      4                      5                      6
                      A                      A                      A
 Frequencies --    277.2674               323.8978               354.9153
 Red. masses --      3.1589                 2.4885                 2.7530
 Frc consts  --      0.1431                 0.1538                 0.2043
 IR Inten    --      1.9925                 3.5978                 0.5762

                      7                      8                      9
                      A                      A                      A
 Frequencies --    416.7210               427.3959               470.4468
 Red. masses --      3.7782                 4.9296                 1.1702
 Frc consts  --      0.3866                 0.5305                 0.1526
 IR Inten    --      4.0060                 2.8801                82.0786

                     10                     11                     12
                      A                      A                      A
 Frequencies --    491.9657               592.3640               708.6055
 Red. masses --      2.3239                 5.0173                 3.5351
 Frc consts  --      0.3314                 1.0373                 1.0458
 IR Inten    --      3.6281                 0.7916                 4.8523

                     13                     14                     15
                      A                      A                      A
 Frequencies --    792.6143               814.4966               857.9762
 Red. masses --      2.7102                 2.3926                 2.0705
 Frc consts  --      1.0032                 0.9352                 0.8980
 IR Inten    --      5.2292                 3.5747                21.0547

                     16                     17                     18
                      A                      A                      A
 Frequencies --    888.4701               899.6350               936.7386
 Red. masses --      3.7088                 3.3993                 2.8140
 Frc consts  --      1.7249                 1.6210                 1.4549
 IR Inten    --     40.3510                30.9363                11.9927

                     19                     20                     21
                      A                      A                      A
 Frequencies --    960.0008               985.4668               995.5781
 Red. masses --      2.3336                 1.6264                 1.9663
 Frc consts  --      1.2671                 0.9306                 1.1483
 IR Inten    --     13.0580                 7.3494                 4.6346

                     22                     23                     24
                      A                      A                      A
 Frequencies --   1054.5945              1058.2453              1067.6398
 Red. masses --      1.5991                 2.3515                 1.6143
 Frc consts  --      1.0479                 1.5516                 1.0841
 IR Inten    --      2.5938                 5.8010                 5.6175

                     25                     26                     27
                      A                      A                      A
 Frequencies --   1114.0171              1165.1464              1183.6688
 Red. masses --      3.9202                 1.3260                 1.9654
 Frc consts  --      2.8664                 1.0606                 1.6224
 IR Inten    --    120.8550                 2.6463                21.6536

                     28                     29                     30
                      A                      A                      A
 Frequencies --   1213.4274              1224.3308              1263.1707
 Red. masses --      1.5596                 1.4325                 1.5341
 Frc consts  --      1.3530                 1.2651                 1.4422
 IR Inten    --     13.1236                 0.2984                 1.0027

                     31                     32                     33
                      A                      A                      A
 Frequencies --   1290.0181              1314.8176              1326.0038
 Red. masses --      1.3819                 1.4663                 1.5571
 Frc consts  --      1.3550                 1.4935                 1.6131
 IR Inten    --      1.5675                 0.2712                 0.6492

                     34                     35                     36
                      A                      A                      A
 Frequencies --   1350.3398              1381.5681              1413.2602
 Red. masses --      1.6666                 1.7119                 1.2820
 Frc consts  --      1.7905                 1.9252                 1.5086
 IR Inten    --     27.6954                 2.3930                 1.2000

                     37                     38                     39
                      A                      A                      A
 Frequencies --   1435.8462              1467.7101              1477.0580
 Red. masses --      1.3329                 1.0944                 1.0449
 Frc consts  --      1.6191                 1.3890                 1.3432
 IR Inten    --     76.1587                 5.8938                 6.6176

                     40                     41                     42
                      A                      A                      A
 Frequencies --   1487.4345              1719.2468              3005.7142
 Red. masses --      1.0649                 6.7813                 1.0577
 Frc consts  --      1.3882                11.8098                 5.6298
 IR Inten    --      8.0833                11.3164                20.0246

                     43                     44                     45
                      A                      A                      A
 Frequencies --   3015.4501              3035.6445              3060.7139
 Red. masses --      1.0396                 1.1014                 1.0983
 Frc consts  --      5.5696                 5.9799                 6.0621
 IR Inten    --     44.9730                16.8481                20.3368

                     46                     47                     48
                      A                      A                      A
 Frequencies --   3069.7312              3094.2643              3104.2589
 Red. masses --      1.0880                 1.0883                 1.0892
 Frc consts  --      6.0406                 6.1392                 6.1841
 IR Inten    --     54.7586                43.5104                26.1423

                     49                     50                     51
                      A                      A                      A
 Frequencies --   3111.6947              3176.9390              3779.0749
 Red. masses --      1.0991                 1.0925                 1.0649
 Frc consts  --      6.2700                 6.4967                 8.9607
 IR Inten    --     18.5448                17.5515                24.3689

 - Thermochemistry -
 -------------------
 Temperature   298.150 Kelvin.  Pressure   1.00000 Atm.
 Atom     1 has atomic number  6 and mass  12.00000

 Molecular mass:   126.06808 amu.
 Principal axes and moments of inertia in atomic units:
                           1         2         3
     Eigenvalues --   484.422221490.213391586.24489
           X            0.99992   0.00279  -0.01240
           Y           -0.00289   0.99996  -0.00808
           Z            0.01238   0.00812   0.99989
 This molecule is an asymmetric top.
 Rotational symmetry number  1.
 Warning -- assumption of classical behavior for rotation
           may cause significant error
 Rotational temperatures (Kelvin)      0.17880     0.05812     0.05460
 Rotational constants (GHZ):           3.72555     1.21106     1.13774
 Zero-point vibrational energy     419879.8 (Joules/Mol)
                                  100.35369 (Kcal/Mol)
 Warning -- explicit consideration of  11 degrees of freedom as
           vibrations may cause significant error
 Vibrational temperatures:    177.98   270.78   332.26   398.93   466.02
          (Kelvin)            510.64   599.57   614.93   676.87   707.83
                              852.28  1019.52  1140.39  1171.88  1234.43
                             1278.31  1294.37  1347.76  1381.23  1417.87
                             1432.41  1517.32  1522.58  1536.09  1602.82
                             1676.38  1703.03  1745.85  1761.54  1817.42
                             1856.05  1891.73  1907.82  1942.84  1987.77
                             2033.36  2065.86  2111.70  2125.15  2140.08
                             2473.61  4324.55  4338.55  4367.61  4403.68
                             4416.65  4451.95  4466.33  4477.03  4570.90
                             5437.24

 Zero-point correction=                           0.159924 (Hartree/Particle)
 Thermal correction to Energy=                    0.167832
 Thermal correction to Enthalpy=                  0.168776
 Thermal correction to Gibbs Free Energy=         0.127922
 Sum of electronic and zero-point Energies=           -423.014552
 Sum of electronic and thermal Energies=              -423.006644
 Sum of electronic and thermal Enthalpies=            -423.005700
 Sum of electronic and thermal Free Energies=         -423.046554

                     E (Thermal)             CV                S
                      KCal/Mol        Cal/Mol-Kelvin    Cal/Mol-Kelvin
 Total                  105.316             31.609             85.985
 Electronic               0.000              0.000              0.000
 Translational            0.889              2.981             40.409
 Rotational               0.889              2.981             28.528
 Vibrational            103.539             25.648             17.049
 Vibration     1          0.610              1.929              3.042
 Vibration     2          0.633              1.856              2.245
 Vibration     3          0.653              1.794              1.872
 Vibration     4          0.678              1.716              1.550
 Vibration     5          0.708              1.628              1.290
 Vibration     6          0.731              1.565              1.144
 Vibration     7          0.780              1.434              0.903
 Vibration     8          0.789              1.411              0.867
 Vibration     9          0.827              1.316              0.736
 Vibration    10          0.848              1.268              0.679
 Vibration    11          0.950              1.048              0.463

 Optimization completed.
    -- Stationary point found.
 Normal termination of Gaussian 09 at Mon Jan 27 23:53:56 2020.
