 Gaussian 09, Revision D.01,
 Gaussian 09:  ES64L-G09RevD.01 24-Apr-2013

 -----------------------------
 # b3lyp 6-31G(2df,p) opt Freq
 -----------------------------

 -----
 titel
 -----
 Symbolic Z-matrix:
 Charge =  0 Multiplicity = 1

 SCF Done:  E(RB3LYP) =  -423.190833465     A.U. after   14 cycles
 Optimization completed.
    -- Stationary point found.
 Normal termination of Gaussian 09 at Mon Jan 27 13:20:08 2020.

 ----------------------------------------------------------------------
 #N Geom=AllCheck Guess=TCheck SCRF=Check GenChk RB3LYP/6-31G(2df,p) Fr
 eq
 ----------------------------------------------------------------------

 Structure from the checkpoint file:  "/scratch/puck/g09_402c8c3b-9d52-46ac-a889-e290139dab47/Gau-168464.chk"
 -----
 titel
 -----
 Charge =  0 Multiplicity = 1

                         Standard orientation:
 ---------------------------------------------------------------------
 Center     Atomic      Atomic             Coordinates (Angstroms)
 Number     Number       Type             X           Y           Z
 ---------------------------------------------------------------------
      1          8           0        3.243720    0.168114   -0.559611
      2          6           0        2.337844   -0.246433    0.113513
      3          6           0        0.870764   -0.080456   -0.229048
      4          6           0        0.267589    1.179639    0.440334
      5          6           0       -1.198518    0.784047    0.640394
      6          6           0       -2.113511    0.801520   -0.621464
      7          6           0       -2.136153   -0.754869   -0.631911
      8          6           0       -1.178059   -0.776274    0.592746
      9          8           0        0.157717   -1.177236    0.321412
     10          1           0        2.500131   -0.768825    1.083548
     11          1           0        0.765669   -0.030155   -1.322077
     12          1           0        0.749238    1.351501    1.409787
     13          1           0        0.407327    2.072972   -0.172640
     14          1           0       -1.635169    1.239917    1.529992
     15          1           0       -3.086041    1.271493   -0.461877
     16          1           0       -1.657141    1.262405   -1.502126
     17          1           0       -3.116720   -1.191980   -0.428980
     18          1           0       -1.720858   -1.235764   -1.520526
     19          1           0       -1.517671   -1.341629    1.463113
 ---------------------------------------------------------------------

 SCF Done:  E(RB3LYP) =  -423.190833466     A.U. after    1 cycles

 The electronic state is 1-A.
 Alpha  occ. eigenvalues --  -19.15047 -19.14265 -10.27074 -10.24199 -10.23541
 Alpha  occ. eigenvalues --  -10.19992 -10.19699 -10.18962 -10.18472  -1.05567
 Alpha  occ. eigenvalues --   -1.04377  -0.84129  -0.78294  -0.70331  -0.65119
 Alpha  occ. eigenvalues --   -0.61772  -0.57758  -0.55498  -0.51472  -0.49173
 Alpha  occ. eigenvalues --   -0.46500  -0.45364  -0.43950  -0.42397  -0.41513
 Alpha  occ. eigenvalues --   -0.39444  -0.37343  -0.36773  -0.34918  -0.33644
 Alpha  occ. eigenvalues --   -0.31200  -0.29968  -0.26318  -0.25112
 Alpha virt. eigenvalues --   -0.02595   0.07150   0.08240   0.10931   0.11618
 Alpha virt. eigenvalues --    0.13389   0.13618   0.14092   0.16454   0.16919
 Alpha virt. eigenvalues --    0.17777   0.18182   0.18902   0.20871   0.22078

 Mulliken charges:
               1
     1  O   -0.248641
     2  C    0.148512
     3  C    0.033498
     4  C   -0.253440
     5  C   -0.040893
     6  C   -0.236202
     7  C   -0.238353
     8  C    0.117342
     9  O   -0.275691
    10  H    0.086467
    11  H    0.093097
    12  H    0.108878
    13  H    0.121546
    14  H    0.077097
    15  H    0.106223
    16  H    0.102298
    17  H    0.104510
    18  H    0.111882
    19  H    0.081871
 Sum of Mulliken charges =   0.00000

 Dipole moment (field-independent basis, Debye):
    X=             -3.0458    Y=              0.7821    Z=              0.9921  Tot=              3.2974
 Quadrupole moment (field-independent basis, Debye-Ang):
   XX=            -60.9012   YY=            -54.0416   ZZ=            -51.9700
   XY=             -0.8166   XZ=              2.5915   YZ=              0.6375

  Exact polarizability:  91.119   1.538  67.279  -0.727  -2.212  68.031
 Approx polarizability: 119.542   3.097 101.070  -7.228  -5.673 105.387

                      1                      2                      3
                      A                      A                      A
 Frequencies --     75.9262                89.4136                93.6696
 Red. masses --      2.9576                 3.3163                 3.3577
 Frc consts  --      0.0100                 0.0156                 0.0174
 IR Inten    --      1.9297                 6.3540                 0.8151

                      4                      5                      6
                      A                      A                      A
 Frequencies --    233.4446               319.6348               365.0556
 Red. masses --      2.3942                 3.5946                 1.8866
 Frc consts  --      0.0769                 0.2164                 0.1481
 IR Inten    --      2.2654                 3.5509                 0.8870

                      7                      8                      9
                      A                      A                      A
 Frequencies --    415.1834               481.9723               620.5080
 Red. masses --      3.7171                 4.1102                 4.2282
 Frc consts  --      0.3775                 0.5625                 0.9592
 IR Inten    --     13.6655                 1.7473                 0.9256

                     10                     11                     12
                      A                      A                      A
 Frequencies --    669.6044               738.9427               749.9546
 Red. masses --      3.6175                 1.2173                 2.3186
 Frc consts  --      0.9556                 0.3916                 0.7683
 IR Inten    --     21.5484                 0.8460                 1.9634

                     13                     14                     15
                      A                      A                      A
 Frequencies --    847.8684               856.4566               886.3067
 Red. masses --      2.4357                 2.4274                 2.6153
 Frc consts  --      1.0316                 1.0490                 1.2104
 IR Inten    --      3.7887                 2.2675                 0.7228

                     16                     17                     18
                      A                      A                      A
 Frequencies --    912.8709               934.5529               958.8211
 Red. masses --      2.5795                 2.0718                 2.6690
 Frc consts  --      1.2665                 1.0661                 1.4457
 IR Inten    --     13.8352                 6.7637                 4.0141

                     19                     20                     21
                      A                      A                      A
 Frequencies --    985.6829              1036.3870              1052.9352
 Red. masses --      1.8797                 1.7887                 2.2363
 Frc consts  --      1.0760                 1.1319                 1.4607
 IR Inten    --      3.8740                10.6937                48.2873

                     22                     23                     24
                      A                      A                      A
 Frequencies --   1067.5440              1095.0370              1136.5263
 Red. masses --      2.1716                 2.3923                 3.5137
 Frc consts  --      1.4581                 1.6902                 2.6741
 IR Inten    --      3.8696                28.4968                65.4526

                     25                     26                     27
                      A                      A                      A
 Frequencies --   1139.6934              1191.3389              1208.1094
 Red. masses --      2.3594                 1.4322                 1.4967
 Frc consts  --      1.8056                 1.1977                 1.2871
 IR Inten    --      6.3673                 9.2493                17.9728

                     28                     29                     30
                      A                      A                      A
 Frequencies --   1223.6843              1255.9266              1259.6975
 Red. masses --      1.2723                 1.3782                 1.4321
 Frc consts  --      1.1224                 1.2808                 1.3389
 IR Inten    --      1.7944                 0.2749                 1.5793

                     31                     32                     33
                      A                      A                      A
 Frequencies --   1276.4088              1298.4344              1314.7863
 Red. masses --      1.4637                 1.5362                 1.3191
 Frc consts  --      1.4050                 1.5259                 1.3435
 IR Inten    --      1.8559                 2.9013                 1.6995

                     34                     35                     36
                      A                      A                      A
 Frequencies --   1325.6848              1350.7360              1366.3482
 Red. masses --      1.3446                 1.3360                 1.3031
 Frc consts  --      1.3923                 1.4361                 1.4334
 IR Inten    --     13.3370                 2.7872                 4.5595

                     37                     38                     39
                      A                      A                      A
 Frequencies --   1405.2803              1470.9868              1483.0478
 Red. masses --      1.2703                 1.0830                 1.0985
 Frc consts  --      1.4781                 1.3806                 1.4236
 IR Inten    --      4.5261                 1.0210                 4.8108

                     40                     41                     42
                      A                      A                      A
 Frequencies --   1493.1712              1840.8456              2884.5494
 Red. masses --      1.1093                10.5572                 1.0838
 Frc consts  --      1.4571                21.0782                 5.3131
 IR Inten    --      3.5791               180.0009                84.2506

                     43                     44                     45
                      A                      A                      A
 Frequencies --   3008.2056              3041.8263              3058.5067
 Red. masses --      1.0836                 1.0652                 1.0596
 Frc consts  --      5.7772                 5.8072                 5.8398
 IR Inten    --     25.2772                20.6439                33.0839

                     46                     47                     48
                      A                      A                      A
 Frequencies --   3066.7765              3083.9790              3098.0488
 Red. masses --      1.0615                 1.0881                 1.0932
 Frc consts  --      5.8823                 6.0974                 6.1818
 IR Inten    --     27.5680                30.1334                20.0781

                     49                     50                     51
                      A                      A                      A
 Frequencies --   3108.3579              3112.4362              3127.0391
 Red. masses --      1.1013                 1.1002                 1.1063
 Frc consts  --      6.2693                 6.2793                 6.3736
 IR Inten    --     10.6328                11.4310                48.4449

 - Thermochemistry -
 -------------------
 Temperature   298.150 Kelvin.  Pressure   1.00000 Atm.
 Atom     1 has atomic number  8 and mass  15.99491

 Molecular mass:   126.06808 amu.
 Principal axes and moments of inertia in atomic units:
                           1         2         3
     Eigenvalues --   458.207101666.110621819.06397
           X            0.99988  -0.00147   0.01512
           Y            0.00127   0.99991   0.01362
           Z           -0.01514  -0.01360   0.99979
 This molecule is an asymmetric top.
 Rotational symmetry number  1.
 Warning -- assumption of classical behavior for rotation
           may cause significant error
 Rotational temperatures (Kelvin)      0.18903     0.05199     0.04761
 Rotational constants (GHZ):           3.93870     1.08321     0.99213
 Zero-point vibrational energy     419400.0 (Joules/Mol)
                                  100.23900 (Kcal/Mol)
 Warning -- explicit consideration of   9 degrees of freedom as
           vibrations may cause significant error
 Vibrational temperatures:    109.24   128.65   134.77   335.87   459.88
          (Kelvin)            525.23   597.36   693.45   892.77   963.41
                             1063.17  1079.02  1219.89  1232.25  1275.20
                             1313.42  1344.61  1379.53  1418.18  1491.13
                             1514.94  1535.96  1575.51  1635.21  1639.76
                             1714.07  1738.20  1760.61  1807.00  1812.42
                             1836.47  1868.16  1891.68  1907.36  1943.41
                             1965.87  2021.88  2116.42  2133.77  2148.34
                             2648.56  4150.22  4328.13  4376.50  4400.50
                             4412.40  4437.15  4457.40  4472.23  4478.10
                             4499.11

 Zero-point correction=                           0.159741 (Hartree/Particle)
 Thermal correction to Energy=                    0.167795
 Thermal correction to Enthalpy=                  0.168739
 Thermal correction to Gibbs Free Energy=         0.126324
 Sum of electronic and zero-point Energies=           -423.031092
 Sum of electronic and thermal Energies=              -423.023038
 Sum of electronic and thermal Enthalpies=            -423.022094
 Sum of electronic and thermal Free Energies=         -423.064510

                     E (Thermal)             CV                S
                      KCal/Mol        Cal/Mol-Kelvin    Cal/Mol-Kelvin
 Total                  105.293             30.205             89.271
 Electronic               0.000              0.000              0.000
 Translational            0.889              2.981             40.409
 Rotational               0.889              2.981             28.720
 Vibrational            103.515             24.243             20.143
 Vibration     1          0.599              1.965              3.994
 Vibration     2          0.602              1.957              3.673
 Vibration     3          0.603              1.954              3.582
 Vibration     4          0.654              1.790              1.852
 Vibration     5          0.706              1.636              1.312
 Vibration     6          0.738              1.544              1.100
 Vibration     7          0.779              1.437              0.908
 Vibration     8          0.838              1.290              0.705
 Vibration     9          0.981              0.989              0.416

 Normal termination of Gaussian 09 at Mon Jan 27 14:05:35 2020.
