 Gaussian 09, Revision D.01,
 Gaussian 09:  ES64L-G09RevD.01 24-Apr-2013

 -----------------------------
 # b3lyp 6-31G(2df,p) opt Freq
 -----------------------------

 -----
 titel
 -----
 Symbolic Z-matrix:
 Charge =  0 Multiplicity = 1

 SCF Done:  E(RB3LYP) =  -423.119252671     A.U. after   14 cycles
 Optimization completed.
    -- Stationary point found.
 Normal termination of Gaussian 09 at Mon Jan 27 15:48:31 2020.

 ----------------------------------------------------------------------
 #N Geom=AllCheck Guess=TCheck SCRF=Check GenChk RB3LYP/6-31G(2df,p) Fr
 eq
 ----------------------------------------------------------------------

 Structure from the checkpoint file:  "/scratch/puck/g09_3cb342ba-baf0-4849-8f97-f4e5b583b8cc/Gau-175745.chk"
 -----
 titel
 -----
 Charge =  0 Multiplicity = 1

                         Standard orientation:
 ---------------------------------------------------------------------
 Center     Atomic      Atomic             Coordinates (Angstroms)
 Number     Number       Type             X           Y           Z
 ---------------------------------------------------------------------
      1          6           0       -1.785962   -1.139527    1.071851
      2          6           0       -1.328565   -0.252762   -0.066675
      3          6           0        0.098100   -0.436736   -0.557336
      4          6           0        1.169239    0.030142    0.454241
      5          8           0        1.057048    1.421786    0.744034
      6          6           0        2.511069   -0.215987   -0.069655
      7          6           0        3.599051   -0.452767   -0.519414
      8          6           0       -2.009048    1.035637   -0.309500
      9          8           0       -2.288108   -0.104842   -1.121606
     10          1           0       -2.837469   -0.953159    1.302133
     11          1           0       -1.676705   -2.195085    0.800474
     12          1           0       -1.198969   -0.968130    1.980854
     13          1           0        0.270735   -1.495033   -0.785964
     14          1           0        0.228706    0.126523   -1.485128
     15          1           0        1.060701   -0.554997    1.382341
     16          1           0        0.205009    1.556183    1.171887
     17          1           0        4.567062   -0.653375   -0.907577
     18          1           0       -2.821197    1.350017    0.345571
     19          1           0       -1.472703    1.843512   -0.805086
 ---------------------------------------------------------------------

 SCF Done:  E(RB3LYP) =  -423.119252671     A.U. after    1 cycles

 The electronic state is 1-A.
 Alpha  occ. eigenvalues --  -19.15375 -19.14670 -10.26472 -10.25201 -10.23734
 Alpha  occ. eigenvalues --  -10.19383 -10.19193 -10.18397 -10.17897  -1.07557
 Alpha  occ. eigenvalues --   -1.03034  -0.80153  -0.76037  -0.72136  -0.67063
 Alpha  occ. eigenvalues --   -0.65928  -0.56761  -0.53382  -0.52515  -0.49932
 Alpha  occ. eigenvalues --   -0.48215  -0.47162  -0.43933  -0.42873  -0.41616
 Alpha  occ. eigenvalues --   -0.39297  -0.37314  -0.36359  -0.34716  -0.30174
 Alpha  occ. eigenvalues --   -0.29149  -0.28125  -0.27149  -0.26041
 Alpha virt. eigenvalues --    0.02603   0.04953   0.07980   0.08374   0.10745
 Alpha virt. eigenvalues --    0.11284   0.12441   0.13453   0.14440   0.14860
 Alpha virt. eigenvalues --    0.15328   0.17032   0.18878   0.19977   0.21078

 Mulliken charges:
               1
     1  C   -0.467148
     2  C    0.401866
     3  C   -0.267295
     4  C   -0.097411
     5  O   -0.425047
     6  C    0.358339
     7  C   -0.434572
     8  C   -0.240796
     9  O   -0.281795
    10  H    0.132239
    11  H    0.132414
    12  H    0.121510
    13  H    0.114041
    14  H    0.127442
    15  H    0.099656
    16  H    0.289701
    17  H    0.200307
    18  H    0.112050
    19  H    0.124498
 Sum of Mulliken charges =   0.00000

 Dipole moment (field-independent basis, Debye):
    X=             -0.5084    Y=             -0.5152    Z=              1.6098  Tot=              1.7651
 Quadrupole moment (field-independent basis, Debye-Ang):
   XX=            -53.7961   YY=            -53.0169   ZZ=            -53.7593
   XY=             -5.4781   XZ=             -7.0965   YZ=             -0.4129

  Exact polarizability: 100.434  -8.147  68.892  -9.386  -0.431  63.222
 Approx polarizability: 136.621 -12.282 103.759 -13.793   3.566  97.992

                      1                      2                      3
                      A                      A                      A
 Frequencies --     43.5509                84.5764               119.9652
 Red. masses --      4.0133                 3.0761                 4.2261
 Frc consts  --      0.0045                 0.0130                 0.0358
 IR Inten    --      1.0392                 2.6137                 0.8373

                      4                      5                      6
                      A                      A                      A
 Frequencies --    185.5861               188.6455               249.2166
 Red. masses --      1.8237                 1.7238                 1.1719
 Frc consts  --      0.0370                 0.0361                 0.0429
 IR Inten    --      1.7990                 2.4671               102.4319

                      7                      8                      9
                      A                      A                      A
 Frequencies --    261.0338               330.1671               368.6719
 Red. masses --      3.0487                 3.3527                 2.3035
 Frc consts  --      0.1224                 0.2153                 0.1845
 IR Inten    --     22.2483                 8.2339                 1.1160

                     10                     11                     12
                      A                      A                      A
 Frequencies --    370.4212               390.5560               480.9741
 Red. masses --      3.7058                 2.7410                 3.2822
 Frc consts  --      0.2996                 0.2463                 0.4474
 IR Inten    --      4.8858                 0.8634                 2.7657

                     13                     14                     15
                      A                      A                      A
 Frequencies --    547.9782               570.6596               627.7470
 Red. masses --      3.6711                 4.8868                 1.2192
 Frc consts  --      0.6495                 0.9376                 0.2831
 IR Inten    --     16.3287                 2.5380                47.5242

                     16                     17                     18
                      A                      A                      A
 Frequencies --    676.3840               739.2953               827.2921
 Red. masses --      1.2570                 3.8551                 3.8770
 Frc consts  --      0.3388                 1.2414                 1.5634
 IR Inten    --     33.9526                 2.8278                23.2079

                     19                     20                     21
                      A                      A                      A
 Frequencies --    861.8244               920.9575               942.8887
 Red. masses --      2.4119                 1.7956                 1.8786
 Frc consts  --      1.0555                 0.8973                 0.9840
 IR Inten    --      3.9000                 8.4134                 7.5395

                     22                     23                     24
                      A                      A                      A
 Frequencies --    943.3419              1010.5734              1058.7059
 Red. masses --      2.7399                 1.8028                 1.8032
 Frc consts  --      1.4365                 1.0847                 1.1908
 IR Inten    --      9.1091                 7.3469                17.6316

                     25                     26                     27
                      A                      A                      A
 Frequencies --   1071.4159              1116.4085              1139.7141
 Red. masses --      4.2961                 2.4148                 1.3421
 Frc consts  --      2.9056                 1.7733                 1.0271
 IR Inten    --     23.7771                61.0206                 5.5711

                     28                     29                     30
                      A                      A                      A
 Frequencies --   1161.6702              1196.6203              1253.9575
 Red. masses --      1.3680                 1.4325                 1.0644
 Frc consts  --      1.0877                 1.2085                 0.9861
 IR Inten    --      0.9189                 6.9927                50.0783

                     31                     32                     33
                      A                      A                      A
 Frequencies --   1277.2092              1313.8169              1355.0256
 Red. masses --      1.8564                 1.6477                 1.3272
 Frc consts  --      1.7842                 1.6757                 1.4358
 IR Inten    --     19.4307                 5.9826                 3.9383

                     34                     35                     36
                      A                      A                      A
 Frequencies --   1398.0819              1420.6726              1432.4223
 Red. masses --      1.7446                 1.5167                 1.5813
 Frc consts  --      2.0091                 1.8036                 1.9116
 IR Inten    --     11.3832                18.2942                42.2574

                     37                     38                     39
                      A                      A                      A
 Frequencies --   1471.2748              1484.0844              1496.2686
 Red. masses --      1.0932                 1.0517                 1.0793
 Frc consts  --      1.3942                 1.3648                 1.4236
 IR Inten    --      0.9824                 6.7563                 2.0141

                     40                     41                     42
                      A                      A                      A
 Frequencies --   1529.7907              2245.7884              2963.5496
 Red. masses --      1.3219                 5.8971                 1.0807
 Frc consts  --      1.8226                17.5237                 5.5922
 IR Inten    --      4.0612                 1.7746                32.9200

                     43                     44                     45
                      A                      A                      A
 Frequencies --   3034.5314              3044.5584              3079.0227
 Red. masses --      1.0375                 1.0622                 1.0505
 Frc consts  --      5.6289                 5.8012                 5.8677
 IR Inten    --     16.5852                14.0932                19.6583

                     46                     47                     48
                      A                      A                      A
 Frequencies --   3095.9898              3106.3074              3125.4550
 Red. masses --      1.1002                 1.1003                 1.1008
 Frc consts  --      6.2133                 6.2555                 6.3356
 IR Inten    --     18.8817                12.2656                17.5998

                     49                     50                     51
                      A                      A                      A
 Frequencies --   3166.8097              3504.5546              3817.9413
 Red. masses --      1.1191                 1.1637                 1.0658
 Frc consts  --      6.6122                 8.4206                 9.1532
 IR Inten    --     22.6455                64.6374                13.2532

 - Thermochemistry -
 -------------------
 Temperature   298.150 Kelvin.  Pressure   1.00000 Atm.
 Atom     1 has atomic number  6 and mass  12.00000

 Molecular mass:   126.06808 amu.
 Principal axes and moments of inertia in atomic units:
                           1         2         3
     Eigenvalues --   541.570142031.350872097.03739
           X            0.99971  -0.01033  -0.02196
           Y            0.00622   0.98371  -0.17964
           Z            0.02346   0.17945   0.98349
 This molecule is an asymmetric top.
 Rotational symmetry number  1.
 Warning -- assumption of classical behavior for rotation
           may cause significant error
 Rotational temperatures (Kelvin)      0.15993     0.04264     0.04130
 Rotational constants (GHZ):           3.33242     0.88844     0.86061
 Zero-point vibrational energy     407352.1 (Joules/Mol)
                                   97.35949 (Kcal/Mol)
 Warning -- explicit consideration of  14 degrees of freedom as
           vibrations may cause significant error
 Vibrational temperatures:     62.66   121.69   172.60   267.02   271.42
          (Kelvin)            358.57   375.57   475.04   530.44   532.95
                              561.92   692.01   788.42   821.05   903.19
                              973.16  1063.68  1190.29  1239.97  1325.05
                             1356.60  1357.26  1453.99  1523.24  1541.53
                             1606.26  1639.79  1671.38  1721.67  1804.16
                             1837.62  1890.29  1949.58  2011.53  2044.03
                             2060.93  2116.83  2135.26  2152.79  2201.02
                             3231.18  4263.88  4366.01  4380.43  4430.02
                             4454.43  4469.28  4496.83  4556.33  5042.27
                             5493.16

 Zero-point correction=                           0.155152 (Hartree/Particle)
 Thermal correction to Energy=                    0.165306
 Thermal correction to Enthalpy=                  0.166250
 Thermal correction to Gibbs Free Energy=         0.119664
 Sum of electronic and zero-point Energies=           -422.964100
 Sum of electronic and thermal Energies=              -422.953947
 Sum of electronic and thermal Enthalpies=            -422.953003
 Sum of electronic and thermal Free Energies=         -422.999589

                     E (Thermal)             CV                S
                      KCal/Mol        Cal/Mol-Kelvin    Cal/Mol-Kelvin
 Total                  103.731             37.037             98.049
 Electronic               0.000              0.000              0.000
 Translational            0.889              2.981             40.409
 Rotational               0.889              2.981             29.224
 Vibrational            101.954             31.075             28.416
 Vibration     1          0.595              1.980              5.091
 Vibration     2          0.601              1.960              3.782
 Vibration     3          0.609              1.933              3.101
 Vibration     4          0.632              1.860              2.271
 Vibration     5          0.633              1.855              2.241
 Vibration     6          0.662              1.764              1.736
 Vibration     7          0.669              1.744              1.655
 Vibration     8          0.713              1.615              1.259
 Vibration     9          0.741              1.537              1.085
 Vibration    10          0.742              1.533              1.078
 Vibration    11          0.758              1.490              0.998
 Vibration    12          0.837              1.292              0.707
 Vibration    13          0.903              1.144              0.548
 Vibration    14          0.927              1.095              0.503

 Optimization completed.
    -- Stationary point found.
 Normal termination of Gaussian 09 at Mon Jan 27 16:27:06 2020.
