 Gaussian 09, Revision D.01,
 Gaussian 09:  ES64L-G09RevD.01 24-Apr-2013

 -----------------------------
 # b3lyp 6-31G(2df,p) opt Freq
 -----------------------------

 -----
 titel
 -----
 Symbolic Z-matrix:
 Charge =  0 Multiplicity = 1

 SCF Done:  E(RB3LYP) =  -423.192493076     A.U. after   13 cycles
 Optimization completed.
    -- Stationary point found.
 Normal termination of Gaussian 09 at Mon Jan 27 18:16:24 2020.

 ----------------------------------------------------------------------
 #N Geom=AllCheck Guess=TCheck SCRF=Check GenChk RB3LYP/6-31G(2df,p) Fr
 eq
 ----------------------------------------------------------------------

 Structure from the checkpoint file:  "/scratch/puck/g09_e14430cc-fb4d-4e40-9339-29ab87a5bcef/Gau-63001.chk"
 -----
 titel
 -----
 Charge =  0 Multiplicity = 1

                         Standard orientation:
 ---------------------------------------------------------------------
 Center     Atomic      Atomic             Coordinates (Angstroms)
 Number     Number       Type             X           Y           Z
 ---------------------------------------------------------------------
      1          8           0       -2.214903    0.587132   -0.000017
      2          6           0       -0.846214    0.338316   -0.000007
      3          6           0        0.052307    1.567054   -0.000008
      4          6           0        1.377197    0.769904    0.000001
      5          6           0        1.188198   -0.123037   -1.255590
      6          6           0       -0.226760   -0.680999   -1.019391
      7          8           0       -0.186275   -1.712957    0.000007
      8          6           0       -0.226770   -0.680988    1.019392
      9          6           0        1.188184   -0.123017    1.255602
     10          1           0       -2.673241   -0.260847    0.000072
     11          1           0       -0.086042    2.187291   -0.890632
     12          1           0       -0.086053    2.187301    0.890608
     13          1           0        2.292056    1.363963    0.000001
     14          1           0        1.223556    0.484295   -2.167162
     15          1           0        1.921462   -0.928785   -1.346653
     16          1           0       -0.782063   -0.992797   -1.907663
     17          1           0       -0.782080   -0.992777    1.907664
     18          1           0        1.223531    0.484328    2.167165
     19          1           0        1.921448   -0.928763    1.346685
 ---------------------------------------------------------------------

 SCF Done:  E(RB3LYP) =  -423.192493076     A.U. after    1 cycles

 The electronic state is 1-A.
 Alpha  occ. eigenvalues --  -19.14664 -19.12882 -10.23557 -10.22650 -10.22650
 Alpha  occ. eigenvalues --  -10.19210 -10.18114 -10.18114 -10.17989  -1.05084
 Alpha  occ. eigenvalues --   -1.01810  -0.84926  -0.74546  -0.71031  -0.67256
 Alpha  occ. eigenvalues --   -0.60957  -0.57146  -0.55465  -0.52204  -0.48432
 Alpha  occ. eigenvalues --   -0.46273  -0.44168  -0.41174  -0.40548  -0.39150
 Alpha  occ. eigenvalues --   -0.38103  -0.37734  -0.36040  -0.34899  -0.32839
 Alpha  occ. eigenvalues --   -0.31989  -0.28837  -0.25148  -0.23909
 Alpha virt. eigenvalues --    0.07976   0.08590   0.09076   0.12799   0.14290
 Alpha virt. eigenvalues --    0.14325   0.15480   0.15848   0.16640   0.17185
 Alpha virt. eigenvalues --    0.18114   0.18347   0.20256   0.20439   0.23583

 Mulliken charges:
               1
     1  O   -0.509073
     2  C    0.438370
     3  C   -0.272368
     4  C   -0.040901
     5  C   -0.226396
     6  C    0.021209
     7  O   -0.308916
     8  C    0.021206
     9  C   -0.226396
    10  H    0.286814
    11  H    0.101469
    12  H    0.101469
    13  H    0.064498
    14  H    0.096885
    15  H    0.105359
    16  H    0.072264
    17  H    0.072263
    18  H    0.096885
    19  H    0.105359
 Sum of Mulliken charges =   0.00000

 Dipole moment (field-independent basis, Debye):
    X=              0.5320    Y=              0.5354    Z=              0.0001  Tot=              0.7548
 Quadrupole moment (field-independent basis, Debye-Ang):
   XX=            -52.0713   YY=            -57.4632   ZZ=            -50.3233
   XY=              3.8396   XZ=             -0.0004   YZ=              0.0000

  Exact polarizability:  74.195   1.623  69.641   0.000   0.000  74.200
 Approx polarizability: 105.626   1.018 107.179   0.000   0.000 109.167

                      1                      2                      3
                      A                      A                      A
 Frequencies --    263.4282               273.8272               355.2403
 Red. masses --      2.6025                 4.5547                 1.1584
 Frc consts  --      0.1064                 0.2012                 0.0861
 IR Inten    --      2.7501                13.9463                72.2904

                      4                      5                      6
                      A                      A                      A
 Frequencies --    368.5950               424.0295               454.8106
 Red. masses --      2.8405                 2.0813                 1.9653
 Frc consts  --      0.2274                 0.2205                 0.2395
 IR Inten    --      0.6880                12.9492                 6.2013

                      7                      8                      9
                      A                      A                      A
 Frequencies --    457.4582               576.3639               615.1909
 Red. masses --      2.5825                 4.5063                 4.2383
 Frc consts  --      0.3184                 0.8820                 0.9451
 IR Inten    --      2.5052                 0.4726                 6.0391

                     10                     11                     12
                      A                      A                      A
 Frequencies --    647.8916               774.5462               835.1086
 Red. masses --      4.4866                 4.4557                 3.2626
 Frc consts  --      1.1096                 1.5749                 1.3406
 IR Inten    --      3.2480                 2.8617                 3.0932

                     13                     14                     15
                      A                      A                      A
 Frequencies --    851.4174               878.1158               897.0098
 Red. masses --      2.1982                 2.4682                 2.5760
 Frc consts  --      0.9389                 1.1213                 1.2212
 IR Inten    --      7.6707                 1.9253                 0.1385

                     16                     17                     18
                      A                      A                      A
 Frequencies --    903.5197               919.2265               950.7456
 Red. masses --      2.6956                 1.8889                 1.8898
 Frc consts  --      1.2965                 0.9404                 1.0065
 IR Inten    --     15.7083                 1.4311                 4.7201

                     19                     20                     21
                      A                      A                      A
 Frequencies --    972.0542               984.6772              1009.6412
 Red. masses --      1.7857                 3.2130                 2.2189
 Frc consts  --      0.9941                 1.8355                 1.3327
 IR Inten    --      5.7170                51.2619                 9.3738

                     22                     23                     24
                      A                      A                      A
 Frequencies --   1065.9712              1073.0570              1089.6402
 Red. masses --      1.2514                 1.8130                 1.8641
 Frc consts  --      0.8378                 1.2299                 1.3040
 IR Inten    --     10.2151                 9.7223                28.1454

                     25                     26                     27
                      A                      A                      A
 Frequencies --   1110.6407              1139.9841              1159.0230
 Red. masses --      2.0364                 1.4631                 1.7902
 Frc consts  --      1.4800                 1.1202                 1.4169
 IR Inten    --     37.3801                 1.3835                 2.3759

                     28                     29                     30
                      A                      A                      A
 Frequencies --   1185.1213              1214.9206              1243.4568
 Red. masses --      1.4084                 1.7044                 1.9154
 Frc consts  --      1.1654                 1.4823                 1.7449
 IR Inten    --      0.6540                41.3282                 0.7575

                     31                     32                     33
                      A                      A                      A
 Frequencies --   1270.3885              1285.4492              1303.6837
 Red. masses --      1.4386                 1.7406                 1.3654
 Frc consts  --      1.3679                 1.6946                 1.3673
 IR Inten    --      0.0555                 6.1398                 0.3788

                     34                     35                     36
                      A                      A                      A
 Frequencies --   1307.9635              1343.1443              1352.8467
 Red. masses --      1.6450                 1.5214                 1.4348
 Frc consts  --      1.6581                 1.6171                 1.5472
 IR Inten    --     42.0797                 0.9568                10.2378

                     37                     38                     39
                      A                      A                      A
 Frequencies --   1364.3181              1408.5293              1469.2480
 Red. masses --      2.0508                 1.9495                 1.0953
 Frc consts  --      2.2491                 2.2788                 1.3931
 IR Inten    --     83.9154                 5.5707                 3.8504

                     40                     41                     42
                      A                      A                      A
 Frequencies --   1475.5211              1505.1025              3041.1074
 Red. masses --      1.1118                 1.1300                 1.0618
 Frc consts  --      1.4262                 1.5082                 5.7858
 IR Inten    --      2.9304                 4.2360                33.4668

                     43                     44                     45
                      A                      A                      A
 Frequencies --   3041.6087              3055.1520              3079.0672
 Red. masses --      1.0634                 1.0590                 1.0872
 Frc consts  --      5.7962                 5.8240                 6.0727
 IR Inten    --     14.2408                22.9486                79.6906

                     46                     47                     48
                      A                      A                      A
 Frequencies --   3082.7111              3098.4957              3101.0772
 Red. masses --      1.0907                 1.1027                 1.0945
 Frc consts  --      6.1067                 6.2372                 6.2014
 IR Inten    --     33.1945                 0.0006                37.9039

                     49                     50                     51
                      A                      A                      A
 Frequencies --   3103.4508              3105.7638              3799.2147
 Red. masses --      1.0961                 1.1068                 1.0657
 Frc consts  --      6.2198                 6.2901                 9.0633
 IR Inten    --     37.3393                27.3629                23.6319

 - Thermochemistry -
 -------------------
 Temperature   298.150 Kelvin.  Pressure   1.00000 Atm.
 Atom     1 has atomic number  8 and mass  15.99491

 Molecular mass:   126.06808 amu.
 Principal axes and moments of inertia in atomic units:
                           1         2         3
     Eigenvalues --   722.50457 909.066161025.68545
           X            0.99868   0.05127   0.00000
           Y           -0.05127   0.99868   0.00000
           Z            0.00000   0.00000   1.00000
 This molecule is an asymmetric top.
 Rotational symmetry number  1.
 Warning -- assumption of classical behavior for rotation
           may cause significant error
 Rotational temperatures (Kelvin)      0.11988     0.09528     0.08444
 Rotational constants (GHZ):           2.49790     1.98527     1.75955
 Zero-point vibrational energy     426400.3 (Joules/Mol)
                                  101.91211 (Kcal/Mol)
 Warning -- explicit consideration of   9 degrees of freedom as
           vibrations may cause significant error
 Vibrational temperatures:    379.01   393.98   511.11   530.33   610.08
          (Kelvin)            654.37   658.18   829.26   885.12   932.17
                             1114.40  1201.53  1225.00  1263.41  1290.60
                             1299.96  1322.56  1367.91  1398.57  1416.73
                             1452.65  1533.69  1543.89  1567.75  1597.96
                             1640.18  1667.57  1705.12  1748.00  1789.05
                             1827.80  1849.47  1875.71  1881.87  1932.48
                             1946.44  1962.95  2026.56  2113.92  2122.94
                             2165.50  4375.47  4376.19  4395.68  4430.09
                             4435.33  4458.04  4461.75  4465.17  4468.50
                             5466.22

 Zero-point correction=                           0.162407 (Hartree/Particle)
 Thermal correction to Energy=                    0.169011
 Thermal correction to Enthalpy=                  0.169955
 Thermal correction to Gibbs Free Energy=         0.132020
 Sum of electronic and zero-point Energies=           -423.030086
 Sum of electronic and thermal Energies=              -423.023482
 Sum of electronic and thermal Enthalpies=            -423.022538
 Sum of electronic and thermal Free Energies=         -423.060473

                     E (Thermal)             CV                S
                      KCal/Mol        Cal/Mol-Kelvin    Cal/Mol-Kelvin
 Total                  106.056             28.685             79.840
 Electronic               0.000              0.000              0.000
 Translational            0.889              2.981             40.409
 Rotational               0.889              2.981             28.001
 Vibrational            104.278             22.723             11.430
 Vibration     1          0.670              1.740              1.639
 Vibration     2          0.676              1.722              1.572
 Vibration     3          0.731              1.565              1.143
 Vibration     4          0.741              1.537              1.086
 Vibration     5          0.786              1.418              0.878
 Vibration     6          0.813              1.350              0.781
 Vibration     7          0.816              1.344              0.774
 Vibration     8          0.933              1.082              0.492
 Vibration     9          0.975              1.000              0.424

 Optimization completed.
    -- Stationary point found.
 Normal termination of Gaussian 09 at Mon Jan 27 19:04:55 2020.
