 Gaussian 09, Revision D.01,
 Gaussian 09:  ES64L-G09RevD.01 24-Apr-2013

 -----------------------------
 # b3lyp 6-31G(2df,p) opt Freq
 -----------------------------

 -----
 titel
 -----
 Symbolic Z-matrix:
 Charge =  0 Multiplicity = 1

 SCF Done:  E(RB3LYP) =  -423.111841672     A.U. after   14 cycles
 SCF Done:  E(RB3LYP) =  -423.111841421     A.U. after    7 cycles
 SCF Done:  E(RB3LYP) =  -423.111841743     A.U. after    7 cycles
 SCF Done:  E(RB3LYP) =  -423.111841753     A.U. after    7 cycles
 Optimization completed.
    -- Stationary point found.
 Normal termination of Gaussian 09 at Mon Jan 27 15:58:51 2020.

 ----------------------------------------------------------------------
 #N Geom=AllCheck Guess=TCheck SCRF=Check GenChk RB3LYP/6-31G(2df,p) Fr
 eq
 ----------------------------------------------------------------------

 Structure from the checkpoint file:  "/scratch/puck/g09_84f87bf0-a55b-4388-93a0-1ca13f28727b/Gau-108262.chk"
 -----
 titel
 -----
 Charge =  0 Multiplicity = 1

                         Standard orientation:
 ---------------------------------------------------------------------
 Center     Atomic      Atomic             Coordinates (Angstroms)
 Number     Number       Type             X           Y           Z
 ---------------------------------------------------------------------
      1          8           0       -1.305970    1.539521    0.457995
      2          6           0       -1.520074    0.413315   -0.378272
      3          6           0       -0.338371   -0.559308   -0.266356
      4          8           0        0.816744    0.193770   -0.603711
      5          6           0        2.016188   -0.492998   -0.403857
      6          6           0        3.220918    0.340226   -0.116811
      7          6           0        2.622841   -0.526634    0.974800
      8          6           0       -2.767449   -0.246859   -0.004474
      9          6           0       -3.779862   -0.824132    0.285140
     10          1           0       -0.390213    1.798418    0.292130
     11          1           0       -1.589757    0.730217   -1.432634
     12          1           0       -0.268431   -0.939885    0.761292
     13          1           0       -0.471476   -1.408854   -0.951349
     14          1           0        2.130201   -1.372964   -1.036905
     15          1           0        4.166442    0.051488   -0.561140
     16          1           0        3.062180    1.409825   -0.040469
     17          1           0        3.154214   -1.417610    1.290147
     18          1           0        2.078291   -0.017532    1.762260
     19          1           0       -4.682793   -1.321093    0.541373
 ---------------------------------------------------------------------

 SCF Done:  E(RB3LYP) =  -423.111841753     A.U. after    1 cycles

 The electronic state is 1-A.
 Alpha  occ. eigenvalues --  -19.16031 -19.13448 -10.25648 -10.24409 -10.23698
 Alpha  occ. eigenvalues --  -10.19306 -10.19195 -10.18296 -10.17807  -1.05727
 Alpha  occ. eigenvalues --   -1.01746  -0.85601  -0.78123  -0.72212  -0.64903
 Alpha  occ. eigenvalues --   -0.61030  -0.59239  -0.53690  -0.52208  -0.51238
 Alpha  occ. eigenvalues --   -0.49947  -0.46717  -0.45282  -0.43721  -0.42106
 Alpha  occ. eigenvalues --   -0.37420  -0.36548  -0.34439  -0.32421  -0.29588
 Alpha  occ. eigenvalues --   -0.28574  -0.27708  -0.26264  -0.25726
 Alpha virt. eigenvalues --    0.03525   0.05230   0.08865   0.09755   0.11462
 Alpha virt. eigenvalues --    0.12465   0.12708   0.13326   0.14688   0.14990
 Alpha virt. eigenvalues --    0.16450   0.17637   0.18296   0.21961   0.23043

 Mulliken charges:
               1
     1  O   -0.431529
     2  C   -0.061798
     3  C   -0.086693
     4  O   -0.268663
     5  C    0.148078
     6  C   -0.288045
     7  C   -0.287490
     8  C    0.339942
     9  C   -0.451641
    10  H    0.290799
    11  H    0.102337
    12  H    0.112566
    13  H    0.103903
    14  H    0.090474
    15  H    0.119326
    16  H    0.124657
    17  H    0.118057
    18  H    0.125099
    19  H    0.200621
 Sum of Mulliken charges =   0.00000

 Dipole moment (field-independent basis, Debye):
    X=              1.7168    Y=             -1.6525    Z=             -0.4740  Tot=              2.4296
 Quadrupole moment (field-independent basis, Debye-Ang):
   XX=            -48.9950   YY=            -52.4826   ZZ=            -54.2064
   XY=              3.7702   XZ=              0.5511   YZ=             -0.8075

  Exact polarizability: 106.103  10.465  68.240  -3.790  -1.650  61.851
 Approx polarizability: 133.871  20.003 104.197  -9.239  -4.047  94.366

                      1                      2                      3
                      A                      A                      A
 Frequencies --     48.8728                56.6775               101.4496
 Red. masses --      4.1792                 3.3878                 3.2565
 Frc consts  --      0.0059                 0.0064                 0.0197
 IR Inten    --      0.2401                 0.2378                 0.1787

                      4                      5                      6
                      A                      A                      A
 Frequencies --    154.3225               194.2892               249.9316
 Red. masses --      3.1736                 3.7984                 3.9999
 Frc consts  --      0.0445                 0.0845                 0.1472
 IR Inten    --      0.9316                 4.1902                 6.2796

                      7                      8                      9
                      A                      A                      A
 Frequencies --    305.6021               373.0523               422.2038
 Red. masses --      4.0232                 3.3679                 1.1212
 Frc consts  --      0.2214                 0.2762                 0.1178
 IR Inten    --      1.6959                 5.0897               106.2823

                     10                     11                     12
                      A                      A                      A
 Frequencies --    437.7428               481.3216               553.0426
 Red. masses --      2.6580                 3.4405                 4.3387
 Frc consts  --      0.3001                 0.4696                 0.7819
 IR Inten    --      2.4856                 6.9895                 9.4370

                     13                     14                     15
                      A                      A                      A
 Frequencies --    577.4865               630.0651               678.7318
 Red. masses --      3.9049                 1.2189                 1.2632
 Frc consts  --      0.7673                 0.2851                 0.3429
 IR Inten    --      3.6758                47.3691                34.9765

                     16                     17                     18
                      A                      A                      A
 Frequencies --    756.6123               820.4242               824.6938
 Red. masses --      1.2264                 1.4648                 1.9442
 Frc consts  --      0.4136                 0.5809                 0.7791
 IR Inten    --      2.9289                 6.7997                 8.9993

                     19                     20                     21
                      A                      A                      A
 Frequencies --    890.8638               958.1057               978.8323
 Red. masses --      2.7464                 2.9887                 2.7330
 Frc consts  --      1.2842                 1.6164                 1.5428
 IR Inten    --     10.3039                26.3330                27.2430

                     22                     23                     24
                      A                      A                      A
 Frequencies --    998.4863              1052.1845              1074.5045
 Red. masses --      2.3243                 1.4137                 1.4255
 Frc consts  --      1.3653                 0.9222                 0.9697
 IR Inten    --      4.2657                 6.9925                 1.4185

                     25                     26                     27
                      A                      A                      A
 Frequencies --   1086.1796              1096.2810              1119.7278
 Red. masses --      3.2458                 3.1028                 3.7281
 Frc consts  --      2.2562                 2.1971                 2.7540
 IR Inten    --     44.6482                67.6688                45.8912

                     28                     29                     30
                      A                      A                      A
 Frequencies --   1131.1177              1193.4794              1202.1523
 Red. masses --      1.2510                 1.3275                 2.4181
 Frc consts  --      0.9430                 1.1141                 2.0589
 IR Inten    --     12.0505                 1.1357                57.6708

                     31                     32                     33
                      A                      A                      A
 Frequencies --   1244.9180              1246.6509              1274.7220
 Red. masses --      1.9825                 1.1705                 1.0841
 Frc consts  --      1.8103                 1.0718                 1.0379
 IR Inten    --     61.6395                23.2357                24.3000

                     34                     35                     36
                      A                      A                      A
 Frequencies --   1337.0437              1370.0434              1417.7032
 Red. masses --      1.2395                 1.2708                 1.3290
 Frc consts  --      1.3055                 1.4053                 1.5738
 IR Inten    --     66.3030                60.3344                11.9586

                     37                     38                     39
                      A                      A                      A
 Frequencies --   1446.2906              1454.3565              1496.0391
 Red. masses --      1.5708                 1.0911                 1.3340
 Frc consts  --      1.9359                 1.3597                 1.7592
 IR Inten    --     39.7565                 1.9392                24.3619

                     40                     41                     42
                      A                      A                      A
 Frequencies --   1509.4783              2246.6279              2960.8018
 Red. masses --      1.1727                 5.8997                 1.0806
 Frc consts  --      1.5743                17.5445                 5.5811
 IR Inten    --      2.7831                 1.6226                29.0822

                     43                     44                     45
                      A                      A                      A
 Frequencies --   3000.1524              3052.0059              3102.7612
 Red. masses --      1.0557                 1.1069                 1.0871
 Frc consts  --      5.5988                 6.0746                 6.1661
 IR Inten    --     30.3910                36.7959                29.9711

                     46                     47                     48
                      A                      A                      A
 Frequencies --   3137.3243              3143.6336              3221.3068
 Red. masses --      1.0519                 1.0581                 1.1185
 Frc consts  --      6.1004                 6.1608                 6.8386
 IR Inten    --     11.0220                 6.3843                 1.0326

                     49                     50                     51
                      A                      A                      A
 Frequencies --   3235.7140              3504.6580              3776.1417
 Red. masses --      1.1158                 1.1637                 1.0648
 Frc consts  --      6.8831                 8.4212                 8.9460
 IR Inten    --     13.6983                63.5033                44.0589

 - Thermochemistry -
 -------------------
 Temperature   298.150 Kelvin.  Pressure   1.00000 Atm.
 Atom     1 has atomic number  8 and mass  15.99491

 Molecular mass:   126.06808 amu.
 Principal axes and moments of inertia in atomic units:
                           1         2         3
     Eigenvalues --   398.328552475.471912614.11710
           X            0.99998   0.00388   0.00464
           Y           -0.00374   0.99957  -0.02894
           Z           -0.00475   0.02892   0.99957
 This molecule is an asymmetric top.
 Rotational symmetry number  1.
 Rotational temperatures (Kelvin)      0.21744     0.03499     0.03313
 Rotational constants (GHZ):           4.53079     0.72905     0.69038
 Zero-point vibrational energy     410479.5 (Joules/Mol)
                                   98.10695 (Kcal/Mol)
 Warning -- explicit consideration of  13 degrees of freedom as
           vibrations may cause significant error
 Vibrational temperatures:     70.32    81.55   145.96   222.04   279.54
          (Kelvin)            359.60   439.69   536.74   607.46   629.81
                              692.51   795.70   830.87   906.52   976.54
                             1088.59  1180.41  1186.55  1281.75  1378.50
                             1408.32  1436.60  1513.86  1545.97  1562.77
                             1577.30  1611.04  1627.42  1717.15  1729.63
                             1791.16  1793.65  1834.04  1923.71  1971.18
                             2039.76  2080.89  2092.49  2152.46  2171.80
                             3232.39  4259.93  4316.54  4391.15  4464.18
                             4513.90  4522.98  4634.74  4655.46  5042.41
                             5433.02

 Zero-point correction=                           0.156343 (Hartree/Particle)
 Thermal correction to Energy=                    0.166123
 Thermal correction to Enthalpy=                  0.167067
 Thermal correction to Gibbs Free Energy=         0.120725
 Sum of electronic and zero-point Energies=           -422.955498
 Sum of electronic and thermal Energies=              -422.945719
 Sum of electronic and thermal Enthalpies=            -422.944775
 Sum of electronic and thermal Free Energies=         -422.991117

                     E (Thermal)             CV                S
                      KCal/Mol        Cal/Mol-Kelvin    Cal/Mol-Kelvin
 Total                  104.244             35.713             97.535
 Electronic               0.000              0.000              0.000
 Translational            0.889              2.981             40.409
 Rotational               0.889              2.981             29.334
 Vibrational            102.466             29.751             27.792
 Vibration     1          0.595              1.978              4.862
 Vibration     2          0.596              1.975              4.570
 Vibration     3          0.604              1.948              3.426
 Vibration     4          0.620              1.898              2.618
 Vibration     5          0.635              1.848              2.187
 Vibration     6          0.663              1.763              1.731
 Vibration     7          0.696              1.663              1.386
 Vibration     8          0.744              1.527              1.067
 Vibration     9          0.785              1.422              0.885
 Vibration    10          0.798              1.388              0.834
 Vibration    11          0.838              1.291              0.707
 Vibration    12          0.908              1.133              0.538
 Vibration    13          0.934              1.080              0.490

 Optimization completed.
    -- Stationary point found.
 Normal termination of Gaussian 09 at Mon Jan 27 16:31:24 2020.
