 Gaussian 09, Revision D.01,
 Gaussian 09:  ES64L-G09RevD.01 24-Apr-2013

 -----------------------------
 # b3lyp 6-31G(2df,p) opt Freq
 -----------------------------

 -----
 titel
 -----
 Symbolic Z-matrix:
 Charge =  0 Multiplicity = 1

 SCF Done:  E(RB3LYP) =  -423.191952486     A.U. after   14 cycles
 Optimization completed.
    -- Stationary point found.
 Normal termination of Gaussian 09 at Tue Jan 28 11:36:12 2020.

 ----------------------------------------------------------------------
 #N Geom=AllCheck Guess=TCheck SCRF=Check GenChk RB3LYP/6-31G(2df,p) Fr
 eq
 ----------------------------------------------------------------------

 Structure from the checkpoint file:  "/scratch/puck/g09_68c4fc6b-ce2e-4b89-ac6a-64aff68fe962/Gau-26204.chk"
 -----
 titel
 -----
 Charge =  0 Multiplicity = 1

                         Standard orientation:
 ---------------------------------------------------------------------
 Center     Atomic      Atomic             Coordinates (Angstroms)
 Number     Number       Type             X           Y           Z
 ---------------------------------------------------------------------
      1          6           0        2.841557   -0.104329    0.352647
      2          8           0        1.757140   -0.704904   -0.336326
      3          6           0        0.499104   -0.470218    0.238758
      4          6           0       -0.535093   -1.454441   -0.334760
      5          6           0       -1.857721   -0.693763   -0.384347
      6          6           0       -2.283359    0.018165    0.854950
      7          6           0       -1.564376    0.797913   -0.245423
      8          6           0       -0.089046    0.931276   -0.097767
      9          8           0        0.567310    1.925617   -0.290942
     10          1           0        2.883312   -0.448092    1.398672
     11          1           0        3.752299   -0.425631   -0.158464
     12          1           0        2.777388    0.987404    0.335627
     13          1           0        0.563514   -0.557024    1.337817
     14          1           0       -0.211358   -1.712633   -1.348234
     15          1           0       -0.600180   -2.381558    0.242261
     16          1           0       -2.621085   -1.030421   -1.076111
     17          1           0       -3.336225    0.250326    0.969000
     18          1           0       -1.768344   -0.167504    1.791779
     19          1           0       -2.101326    1.571815   -0.778553
 ---------------------------------------------------------------------

 SCF Done:  E(RB3LYP) =  -423.191952486     A.U. after    1 cycles

 The electronic state is 1-A.
 Alpha  occ. eigenvalues --  -19.14202 -19.12803 -10.26291 -10.23844 -10.21647
 Alpha  occ. eigenvalues --  -10.21130 -10.20768 -10.20288 -10.19377  -1.04620
 Alpha  occ. eigenvalues --   -1.02506  -0.89507  -0.76861  -0.69099  -0.67196
 Alpha  occ. eigenvalues --   -0.62637  -0.57539  -0.54233  -0.50791  -0.49726
 Alpha  occ. eigenvalues --   -0.46233  -0.44933  -0.44467  -0.42274  -0.40520
 Alpha  occ. eigenvalues --   -0.40027  -0.38233  -0.37070  -0.35091  -0.31848
 Alpha  occ. eigenvalues --   -0.30963  -0.29865  -0.27782  -0.22283
 Alpha virt. eigenvalues --   -0.01602   0.08357   0.08873   0.10984   0.12157
 Alpha virt. eigenvalues --    0.13948   0.14794   0.15742   0.15932   0.17250
 Alpha virt. eigenvalues --    0.17900   0.18734   0.19131   0.21375   0.22329

 Mulliken charges:
               1
     1  C   -0.247832
     2  O   -0.242070
     3  C    0.006603
     4  C   -0.252639
     5  C   -0.044401
     6  C   -0.290084
     7  C   -0.136428
     8  C    0.398784
     9  O   -0.333887
    10  H    0.097357
    11  H    0.124165
    12  H    0.143175
    13  H    0.082188
    14  H    0.127717
    15  H    0.107709
    16  H    0.099642
    17  H    0.127223
    18  H    0.124191
    19  H    0.108585
 Sum of Mulliken charges =   0.00000

 Dipole moment (field-independent basis, Debye):
    X=             -1.9573    Y=             -1.7382    Z=              1.1600  Tot=              2.8632
 Quadrupole moment (field-independent basis, Debye-Ang):
   XX=            -47.5627   YY=            -58.8353   ZZ=            -51.8502
   XY=             -1.0168   XZ=              2.5512   YZ=              0.3704

  Exact polarizability:  92.421   2.837  73.003  -0.690  -1.220  62.722
 Approx polarizability: 118.892  10.287 114.861  -3.901  -3.134  99.068

                      1                      2                      3
                      A                      A                      A
 Frequencies --     78.0181               127.7402               183.9341
 Red. masses --      3.6592                 1.8810                 1.6517
 Frc consts  --      0.0131                 0.0181                 0.0329
 IR Inten    --      2.1341                 3.7636                 2.1860

                      4                      5                      6
                      A                      A                      A
 Frequencies --    194.5031               260.1213               319.5706
 Red. masses --      2.7764                 3.7552                 2.3600
 Frc consts  --      0.0619                 0.1497                 0.1420
 IR Inten    --      3.9545                 3.8077                 0.3480

                      7                      8                      9
                      A                      A                      A
 Frequencies --    348.1175               428.7798               467.3802
 Red. masses --      3.7494                 3.0244                 4.8602
 Frc consts  --      0.2677                 0.3276                 0.6255
 IR Inten    --      1.0379                 0.2717                 7.2892

                     10                     11                     12
                      A                      A                      A
 Frequencies --    592.0302               615.6499               679.7938
 Red. masses --      4.0168                 3.4396                 3.5628
 Frc consts  --      0.8295                 0.7681                 0.9700
 IR Inten    --      4.7226                 4.9410                 2.0394

                     13                     14                     15
                      A                      A                      A
 Frequencies --    794.5982               810.8914               835.3263
 Red. masses --      3.7173                 2.4844                 1.5588
 Frc consts  --      1.3828                 0.9625                 0.6409
 IR Inten    --      5.8053                 8.7894                12.5691

                     16                     17                     18
                      A                      A                      A
 Frequencies --    894.2754               931.6623               960.0744
 Red. masses --      1.9293                 1.8278                 2.0166
 Frc consts  --      0.9091                 0.9347                 1.0952
 IR Inten    --      7.1544                30.6695                 9.6137

                     19                     20                     21
                      A                      A                      A
 Frequencies --    987.8332              1034.7416              1040.3535
 Red. masses --      2.7048                 3.2170                 1.7536
 Frc consts  --      1.5551                 2.0294                 1.1182
 IR Inten    --     10.9299                22.6203                14.5599

                     22                     23                     24
                      A                      A                      A
 Frequencies --   1067.0554              1106.7723              1117.8787
 Red. masses --      1.2461                 1.1759                 1.6667
 Frc consts  --      0.8359                 0.8487                 1.2272
 IR Inten    --      4.8251                 0.3672                 0.4848

                     25                     26                     27
                      A                      A                      A
 Frequencies --   1162.3564              1176.7400              1179.6885
 Red. masses --      2.9596                 1.5725                 1.2705
 Frc consts  --      2.3559                 1.2830                 1.0417
 IR Inten    --    160.0297                 4.2215                 2.5835

                     28                     29                     30
                      A                      A                      A
 Frequencies --   1203.9554              1208.5929              1240.8742
 Red. masses --      1.7721                 1.7937                 1.8705
 Frc consts  --      1.5134                 1.5437                 1.6970
 IR Inten    --     15.6683                 2.6697                24.2119

                     31                     32                     33
                      A                      A                      A
 Frequencies --   1290.1869              1306.1956              1329.0383
 Red. masses --      1.4338                 1.5933                 1.8423
 Frc consts  --      1.4062                 1.6016                 1.9173
 IR Inten    --      3.5498                 3.2237                 9.8216

                     34                     35                     36
                      A                      A                      A
 Frequencies --   1373.2556              1393.5903              1475.7222
 Red. masses --      1.8127                 1.5357                 1.1664
 Frc consts  --      2.0141                 1.7572                 1.4966
 IR Inten    --      4.4195                 7.2474                 0.7483

                     37                     38                     39
                      A                      A                      A
 Frequencies --   1480.9303              1487.9970              1498.3375
 Red. masses --      1.0515                 1.1374                 1.1678
 Frc consts  --      1.3588                 1.4838                 1.5447
 IR Inten    --      5.6983                 4.7851                 1.0462

                     40                     41                     42
                      A                      A                      A
 Frequencies --   1518.8430              1829.9622              2943.9000
 Red. masses --      1.0495                12.2957                 1.0799
 Frc consts  --      1.4264                24.2599                 5.5144
 IR Inten    --      5.8236               228.8026                24.3913

                     43                     44                     45
                      A                      A                      A
 Frequencies --   2980.0976              3052.4217              3083.0453
 Red. masses --      1.0497                 1.0588                 1.0809
 Frc consts  --      5.4928                 5.8125                 6.0534
 IR Inten    --     69.6515                24.9688                34.1699

                     46                     47                     48
                      A                      A                      A
 Frequencies --   3096.8685              3126.8583              3133.8216
 Red. masses --      1.1056                 1.1054                 1.0546
 Frc consts  --      6.2474                 6.3678                 6.1024
 IR Inten    --     16.2947                19.2654                12.6234

                     49                     50                     51
                      A                      A                      A
 Frequencies --   3178.1648              3200.5524              3220.1821
 Red. masses --      1.0910                 1.0944                 1.1141
 Frc consts  --      6.4925                 6.6053                 6.8070
 IR Inten    --     11.2060                 3.1437                 8.8802

 - Thermochemistry -
 -------------------
 Temperature   298.150 Kelvin.  Pressure   1.00000 Atm.
 Atom     1 has atomic number  6 and mass  12.00000

 Molecular mass:   126.06808 amu.
 Principal axes and moments of inertia in atomic units:
                           1         2         3
     Eigenvalues --   581.643861349.411861718.66705
           X            0.99995   0.00089   0.01029
           Y           -0.00094   0.99999   0.00483
           Z           -0.01029  -0.00484   0.99994
 This molecule is an asymmetric top.
 Rotational symmetry number  1.
 Warning -- assumption of classical behavior for rotation
           may cause significant error
 Rotational temperatures (Kelvin)      0.14891     0.06419     0.05040
 Rotational constants (GHZ):           3.10283     1.33743     1.05008
 Zero-point vibrational energy     418987.7 (Joules/Mol)
                                  100.14047 (Kcal/Mol)
 Warning -- explicit consideration of  11 degrees of freedom as
           vibrations may cause significant error
 Vibrational temperatures:    112.25   183.79   264.64   279.85   374.26
          (Kelvin)            459.79   500.86   616.92   672.46   851.80
                              885.78   978.07  1143.25  1166.69  1201.85
                             1286.66  1340.45  1381.33  1421.27  1488.76
                             1496.83  1535.25  1592.40  1608.38  1672.37
                             1693.06  1697.31  1732.22  1738.89  1785.34
                             1856.29  1879.32  1912.19  1975.81  2005.06
                             2123.23  2130.73  2140.89  2155.77  2185.27
                             2632.90  4235.61  4287.69  4391.75  4435.81
                             4455.70  4498.85  4508.86  4572.66  4604.88
                             4633.12

 Zero-point correction=                           0.159584 (Hartree/Particle)
 Thermal correction to Energy=                    0.167960
 Thermal correction to Enthalpy=                  0.168904
 Thermal correction to Gibbs Free Energy=         0.126467
 Sum of electronic and zero-point Energies=           -423.032368
 Sum of electronic and thermal Energies=              -423.023993
 Sum of electronic and thermal Enthalpies=            -423.023048
 Sum of electronic and thermal Free Energies=         -423.065486

                     E (Thermal)             CV                S
                      KCal/Mol        Cal/Mol-Kelvin    Cal/Mol-Kelvin
 Total                  105.396             31.675             89.317
 Electronic               0.000              0.000              0.000
 Translational            0.889              2.981             40.409
 Rotational               0.889              2.981             28.691
 Vibrational            103.619             25.713             20.217
 Vibration     1          0.599              1.964              3.940
 Vibration     2          0.611              1.925              2.980
 Vibration     3          0.631              1.862              2.288
 Vibration     4          0.635              1.848              2.184
 Vibration     5          0.668              1.746              1.661
 Vibration     6          0.706              1.636              1.312
 Vibration     7          0.726              1.579              1.175
 Vibration     8          0.790              1.408              0.863
 Vibration     9          0.825              1.322              0.745
 Vibration    10          0.950              1.049              0.464
 Vibration    11          0.975              0.999              0.424

 Normal termination of Gaussian 09 at Tue Jan 28 12:17:44 2020.
