 Gaussian 09, Revision D.01,
 Gaussian 09:  ES64L-G09RevD.01 24-Apr-2013

 -----------------------------
 # b3lyp 6-31G(2df,p) opt Freq
 -----------------------------

 -----
 titel
 -----
 Symbolic Z-matrix:
 Charge =  0 Multiplicity = 1

 SCF Done:  E(RB3LYP) =  -423.188570673     A.U. after   12 cycles
 Optimization completed.
    -- Stationary point found.
 Normal termination of Gaussian 09 at Mon Jan 27 18:09:36 2020.

 ----------------------------------------------------------------------
 #N Geom=AllCheck Guess=TCheck SCRF=Check GenChk RB3LYP/6-31G(2df,p) Fr
 eq
 ----------------------------------------------------------------------

 Structure from the checkpoint file:  "/scratch/puck/g09_a1926164-e32c-4775-8655-56d7fa2c4737/Gau-181865.chk"
 -----
 titel
 -----
 Charge =  0 Multiplicity = 1

                         Standard orientation:
 ---------------------------------------------------------------------
 Center     Atomic      Atomic             Coordinates (Angstroms)
 Number     Number       Type             X           Y           Z
 ---------------------------------------------------------------------
      1          8           0        1.644552    1.522447   -0.050512
      2          6           0        0.476310    0.777076   -0.024229
      3          6           0       -0.746820    1.203246   -0.814228
      4          6           0       -1.624975   -0.024159   -0.446986
      5          6           0       -1.539914   -0.030500    1.103904
      6          6           0       -0.019534    0.003029    1.198156
      7          6           0        0.501333   -0.737067   -0.024109
      8          8           0        1.721524   -1.406391    0.060809
      9          6           0       -0.703804   -1.218135   -0.818808
     10          1           0        2.369553    0.900765    0.098446
     11          1           0       -1.177760    2.149455   -0.470658
     12          1           0       -0.546887    1.278372   -1.888499
     13          1           0       -2.625390   -0.041030   -0.877854
     14          1           0       -2.015352    0.847645    1.553139
     15          1           0       -1.983842   -0.929710    1.544538
     16          1           0        0.539893    0.002178    2.124570
     17          1           0        2.060005   -1.515743   -0.835992
     18          1           0       -0.510780   -1.279154   -1.896858
     19          1           0       -1.093624   -2.182176   -0.475412
 ---------------------------------------------------------------------

 SCF Done:  E(RB3LYP) =  -423.188570673     A.U. after    1 cycles

 The electronic state is 1-A.
 Alpha  occ. eigenvalues --  -19.15868 -19.13931 -10.22943 -10.22514 -10.19226
 Alpha  occ. eigenvalues --  -10.18376 -10.18130 -10.17918 -10.17714  -1.04666
 Alpha  occ. eigenvalues --   -1.01892  -0.89987  -0.74711  -0.70825  -0.70736
 Alpha  occ. eigenvalues --   -0.57815  -0.56302  -0.54881  -0.53888  -0.48436
 Alpha  occ. eigenvalues --   -0.45942  -0.44875  -0.43654  -0.39275  -0.38126
 Alpha  occ. eigenvalues --   -0.37455  -0.36844  -0.35360  -0.35089  -0.32994
 Alpha  occ. eigenvalues --   -0.32278  -0.29979  -0.24999  -0.21690
 Alpha virt. eigenvalues --    0.05911   0.08939   0.11811   0.13791   0.14542
 Alpha virt. eigenvalues --    0.14797   0.15666   0.15961   0.16346   0.16728
 Alpha virt. eigenvalues --    0.17671   0.19886   0.21749   0.22828   0.23243

 Mulliken charges:
               1
     1  O   -0.495576
     2  C    0.387761
     3  C   -0.273249
     4  C   -0.051353
     5  C   -0.218886
     6  C   -0.183169
     7  C    0.328251
     8  O   -0.489390
     9  C   -0.297182
    10  H    0.278551
    11  H    0.100276
    12  H    0.093323
    13  H    0.067579
    14  H    0.097525
    15  H    0.095318
    16  H    0.089252
    17  H    0.285012
    18  H    0.086177
    19  H    0.099780
 Sum of Mulliken charges =   0.00000

 Dipole moment (field-independent basis, Debye):
    X=             -0.4474    Y=             -1.1344    Z=             -1.1451  Tot=              1.6728
 Quadrupole moment (field-independent basis, Debye-Ang):
   XX=            -49.9291   YY=            -57.3384   ZZ=            -51.1203
   XY=             -2.1939   XZ=             -2.2918   YZ=              2.5295

  Exact polarizability:  77.724  -0.736  71.796  -1.867   0.636  70.571
 Approx polarizability: 109.605  -1.109 108.890  -3.491  -0.109 106.864

                      1                      2                      3
                      A                      A                      A
 Frequencies --    199.9346               237.2944               245.6349
 Red. masses --      4.3290                 1.6624                 1.8900
 Frc consts  --      0.1020                 0.0552                 0.0672
 IR Inten    --     29.6140                59.6844                31.2073

                      4                      5                      6
                      A                      A                      A
 Frequencies --    360.1728               389.3226               419.8276
 Red. masses --      4.1333                 2.6055                 1.5468
 Frc consts  --      0.3159                 0.2327                 0.1606
 IR Inten    --      5.3562                 7.6539                14.4208

                      7                      8                      9
                      A                      A                      A
 Frequencies --    426.4430               437.2548               518.1325
 Red. masses --      1.9464                 1.1841                 3.3060
 Frc consts  --      0.2085                 0.1334                 0.5229
 IR Inten    --      3.8886                45.5822                 5.4352

                     10                     11                     12
                      A                      A                      A
 Frequencies --    594.7360               614.4660               690.3430
 Red. masses --      5.0414                 3.6769                 4.4242
 Frc consts  --      1.0506                 0.8180                 1.2423
 IR Inten    --      1.4215                 1.6695                19.5968

                     13                     14                     15
                      A                      A                      A
 Frequencies --    717.4840               801.4700               894.5894
 Red. masses --      3.8213                 5.0799                 2.1685
 Frc consts  --      1.1590                 1.9226                 1.0225
 IR Inten    --      2.4605                 9.0482                 2.3502

                     16                     17                     18
                      A                      A                      A
 Frequencies --    898.4755               902.1391               925.5232
 Red. masses --      2.7144                 2.0216                 2.4532
 Frc consts  --      1.2910                 0.9694                 1.2381
 IR Inten    --      0.9062                 1.4237                 7.2004

                     19                     20                     21
                      A                      A                      A
 Frequencies --    927.6971               962.2990               977.1551
 Red. masses --      1.6166                 1.3757                 1.8421
 Frc consts  --      0.8197                 0.7506                 1.0363
 IR Inten    --      1.3970                 0.0805                 2.3655

                     22                     23                     24
                      A                      A                      A
 Frequencies --   1016.1055              1059.5808              1105.9852
 Red. masses --      1.6683                 1.4534                 2.1296
 Frc consts  --      1.0148                 0.9614                 1.5348
 IR Inten    --      8.3645                19.0488                15.9798

                     25                     26                     27
                      A                      A                      A
 Frequencies --   1129.0606              1140.7423              1147.2907
 Red. masses --      1.3017                 1.4662                 1.3134
 Frc consts  --      0.9777                 1.1242                 1.0186
 IR Inten    --     14.9537                 2.9161                 1.7543

                     28                     29                     30
                      A                      A                      A
 Frequencies --   1179.6050              1189.1314              1225.0151
 Red. masses --      1.9021                 1.9868                 1.5066
 Frc consts  --      1.5594                 1.6553                 1.3321
 IR Inten    --     38.7911                38.9712                 1.5393

                     31                     32                     33
                      A                      A                      A
 Frequencies --   1272.3287              1280.5447              1298.6824
 Red. masses --      1.6524                 2.0142                 1.8304
 Frc consts  --      1.5761                 1.9460                 1.8189
 IR Inten    --      2.7141                50.3097                 3.5841

                     34                     35                     36
                      A                      A                      A
 Frequencies --   1304.6650              1340.7840              1350.8679
 Red. masses --      1.5156                 2.1757                 1.6761
 Frc consts  --      1.5200                 2.3045                 1.8021
 IR Inten    --     10.4272                49.3377               103.2964

                     37                     38                     39
                      A                      A                      A
 Frequencies --   1412.1599              1456.0754              1491.8881
 Red. masses --      2.1253                 3.0262                 1.1364
 Frc consts  --      2.4972                 3.7802                 1.4902
 IR Inten    --      0.9380                44.2691                 1.4213

                     40                     41                     42
                      A                      A                      A
 Frequencies --   1493.0905              1522.8259              3029.6208
 Red. masses --      1.1388                 1.1726                 1.0589
 Frc consts  --      1.4958                 1.6021                 5.7262
 IR Inten    --      0.8870                 5.7767                47.2543

                     43                     44                     45
                      A                      A                      A
 Frequencies --   3038.6702              3043.6444              3078.7121
 Red. masses --      1.0576                 1.0586                 1.1045
 Frc consts  --      5.7536                 5.7780                 6.1681
 IR Inten    --     51.8289                21.9933                12.3921

                     46                     47                     48
                      A                      A                      A
 Frequencies --   3083.7082              3087.7694              3122.5793
 Red. masses --      1.1063                 1.1068                 1.0894
 Frc consts  --      6.1985                 6.2172                 6.2586
 IR Inten    --     37.6826                36.5017                38.2154

                     49                     50                     51
                      A                      A                      A
 Frequencies --   3205.1017              3753.6124              3778.4874
 Red. masses --      1.0926                 1.0654                 1.0658
 Frc consts  --      6.6130                 8.8444                 8.9655
 IR Inten    --      5.5543                32.8980                13.3442

 - Thermochemistry -
 -------------------
 Temperature   298.150 Kelvin.  Pressure   1.00000 Atm.
 Atom     1 has atomic number  8 and mass  15.99491

 Molecular mass:   126.06808 amu.
 Principal axes and moments of inertia in atomic units:
                           1         2         3
     Eigenvalues --   728.60004 950.909331187.67400
           X            0.99986  -0.01404  -0.00872
           Y            0.01422   0.99970   0.01988
           Z            0.00843  -0.02001   0.99976
 This molecule is an asymmetric top.
 Rotational symmetry number  1.
 Warning -- assumption of classical behavior for rotation
           may cause significant error
 Rotational temperatures (Kelvin)      0.11888     0.09109     0.07293
 Rotational constants (GHZ):           2.47700     1.89791     1.51956
 Zero-point vibrational energy     423350.8 (Joules/Mol)
                                  101.18327 (Kcal/Mol)
 Warning -- explicit consideration of  11 degrees of freedom as
           vibrations may cause significant error
 Vibrational temperatures:    287.66   341.41   353.41   518.21   560.15
          (Kelvin)            604.04   613.56   629.11   745.48   855.69
                              884.08   993.25  1032.30  1153.14  1287.11
                             1292.70  1297.98  1331.62  1334.75  1384.53
                             1405.91  1461.95  1524.50  1591.26  1624.46
                             1641.27  1650.69  1697.19  1710.89  1762.52
                             1830.59  1842.42  1868.51  1877.12  1929.09
                             1943.60  2031.78  2094.97  2146.49  2148.22
                             2191.00  4358.94  4371.96  4379.12  4429.57
                             4436.76  4442.61  4492.69  4611.42  5400.60
                             5436.39

 Zero-point correction=                           0.161246 (Hartree/Particle)
 Thermal correction to Energy=                    0.168623
 Thermal correction to Enthalpy=                  0.169567
 Thermal correction to Gibbs Free Energy=         0.130143
 Sum of electronic and zero-point Energies=           -423.027325
 Sum of electronic and thermal Energies=              -423.019948
 Sum of electronic and thermal Enthalpies=            -423.019004
 Sum of electronic and thermal Free Energies=         -423.058428

                     E (Thermal)             CV                S
                      KCal/Mol        Cal/Mol-Kelvin    Cal/Mol-Kelvin
 Total                  105.812             31.035             82.975
 Electronic               0.000              0.000              0.000
 Translational            0.889              2.981             40.409
 Rotational               0.889              2.981             28.200
 Vibrational            104.035             25.073             14.366
 Vibration     1          0.638              1.840              2.134
 Vibration     2          0.656              1.784              1.823
 Vibration     3          0.660              1.770              1.762
 Vibration     4          0.735              1.554              1.121
 Vibration     5          0.757              1.493              1.003
 Vibration     6          0.783              1.427              0.893
 Vibration     7          0.788              1.413              0.870
 Vibration     8          0.798              1.389              0.835
 Vibration     9          0.873              1.210              0.614
 Vibration    10          0.952              1.043              0.459
 Vibration    11          0.974              1.001              0.425

 Optimization completed.
    -- Stationary point found.
 Normal termination of Gaussian 09 at Mon Jan 27 18:55:07 2020.
