 Gaussian 09, Revision D.01,
 Gaussian 09:  ES64L-G09RevD.01 24-Apr-2013

 -----------------------------
 # b3lyp 6-31G(2df,p) opt Freq
 -----------------------------

 -----
 titel
 -----
 Symbolic Z-matrix:
 Charge =  0 Multiplicity = 1

 SCF Done:  E(RB3LYP) =  -423.223075190     A.U. after   14 cycles
 Optimization completed.
    -- Stationary point found.
 Normal termination of Gaussian 09 at Tue Jan 28 00:47:25 2020.

 ----------------------------------------------------------------------
 #N Geom=AllCheck Guess=TCheck SCRF=Check GenChk RB3LYP/6-31G(2df,p) Fr
 eq
 ----------------------------------------------------------------------

 Structure from the checkpoint file:  "/scratch/puck/g09_3a55a13c-411a-47a8-a9be-66089aa34284/Gau-38484.chk"
 -----
 titel
 -----
 Charge =  0 Multiplicity = 1

                         Standard orientation:
 ---------------------------------------------------------------------
 Center     Atomic      Atomic             Coordinates (Angstroms)
 Number     Number       Type             X           Y           Z
 ---------------------------------------------------------------------
      1          6           0       -2.714393    0.466625   -0.042857
      2          6           0       -1.216433    0.429479    0.088863
      3          6           0       -0.442037    1.500365   -0.108275
      4          6           0        1.064536    1.504517   -0.037263
      5          6           0        1.650314    0.103990    0.071141
      6          8           0        2.669804   -0.220337   -0.491194
      7          6           0        0.825928   -0.841974    0.920349
      8          6           0       -0.624348   -0.932553    0.402699
      9          8           0       -0.736189   -1.805084   -0.722831
     10          1           0       -3.200608    0.232248    0.912910
     11          1           0       -3.070488    1.444699   -0.375902
     12          1           0       -3.049072   -0.291694   -0.759298
     13          1           0       -0.906755    2.453268   -0.354579
     14          1           0        1.508624    1.999448   -0.907366
     15          1           0        1.399261    2.080958    0.840329
     16          1           0        1.286452   -1.831625    0.933241
     17          1           0        0.801472   -0.444843    1.944112
     18          1           0       -1.233427   -1.423232    1.170711
     19          1           0       -0.265779   -1.398547   -1.459908
 ---------------------------------------------------------------------

 SCF Done:  E(RB3LYP) =  -423.223075190     A.U. after    1 cycles

 The electronic state is 1-A.
 Alpha  occ. eigenvalues --  -19.14311 -19.13143 -10.27081 -10.24660 -10.19953
 Alpha  occ. eigenvalues --  -10.19744 -10.19521 -10.19118 -10.18496  -1.04215
 Alpha  occ. eigenvalues --   -1.02419  -0.83756  -0.76415  -0.75281  -0.67277
 Alpha  occ. eigenvalues --   -0.64099  -0.57502  -0.51755  -0.48973  -0.47079
 Alpha  occ. eigenvalues --   -0.46556  -0.45553  -0.43589  -0.42336  -0.41277
 Alpha  occ. eigenvalues --   -0.39900  -0.39334  -0.37046  -0.36491  -0.34807
 Alpha  occ. eigenvalues --   -0.33255  -0.27804  -0.25629  -0.24044
 Alpha virt. eigenvalues --   -0.01948   0.00845   0.08397   0.10031   0.11515
 Alpha virt. eigenvalues --    0.11979   0.13958   0.14812   0.15906   0.17202
 Alpha virt. eigenvalues --    0.17628   0.18048   0.18452   0.22485   0.23057

 Mulliken charges:
               1
     1  C   -0.480588
     2  C    0.284076
     3  C   -0.159335
     4  C   -0.352352
     5  C    0.363281
     6  O   -0.307363
     7  C   -0.319550
     8  C    0.031843
     9  O   -0.428938
    10  H    0.124980
    11  H    0.119478
    12  H    0.142411
    13  H    0.091831
    14  H    0.132429
    15  H    0.134387
    16  H    0.127057
    17  H    0.118554
    18  H    0.092809
    19  H    0.284990
 Sum of Mulliken charges =   0.00000

 Dipole moment (field-independent basis, Debye):
    X=             -1.8618    Y=              1.9316    Z=              1.1648  Tot=              2.9248
 Quadrupole moment (field-independent basis, Debye-Ang):
   XX=            -61.0225   YY=            -54.2636   ZZ=            -50.3864
   XY=              0.2613   XZ=              2.0579   YZ=             -1.4831

  Exact polarizability:  91.543   4.365  81.226  -3.394  -3.195  61.133
 Approx polarizability: 127.842  11.793 124.371 -10.704  -2.118  97.542

                      1                      2                      3
                      A                      A                      A
 Frequencies --     63.9301                94.1106               186.6467
 Red. masses --      4.6859                 4.6000                 1.0973
 Frc consts  --      0.0113                 0.0240                 0.0225
 IR Inten    --      4.0752                 2.0872                 1.1613

                      4                      5                      6
                      A                      A                      A
 Frequencies --    229.5838               261.1303               301.8745
 Red. masses --      2.6387                 1.9030                 1.9598
 Frc consts  --      0.0819                 0.0765                 0.1052
 IR Inten    --      1.3786                 4.6538                32.0310

                      7                      8                      9
                      A                      A                      A
 Frequencies --    323.7269               375.6107               399.2256
 Red. masses --      1.5372                 3.5021                 2.3248
 Frc consts  --      0.0949                 0.2911                 0.2183
 IR Inten    --     48.2824                 6.6558                 8.5674

                     10                     11                     12
                      A                      A                      A
 Frequencies --    479.3464               513.2558               566.3718
 Red. masses --      4.0288                 3.8598                 4.0503
 Frc consts  --      0.5454                 0.5991                 0.7655
 IR Inten    --     11.5040                 0.7243                 2.3012

                     13                     14                     15
                      A                      A                      A
 Frequencies --    610.6304               730.0619               745.4190
 Red. masses --      3.6164                 3.9628                 3.8501
 Frc consts  --      0.7945                 1.2444                 1.2604
 IR Inten    --      2.2750                 0.2236                 3.1710

                     16                     17                     18
                      A                      A                      A
 Frequencies --    793.2929               862.9925               907.7117
 Red. masses --      1.4806                 1.7651                 2.0305
 Frc consts  --      0.5490                 0.7745                 0.9857
 IR Inten    --      5.3194                 6.1560                20.7671

                     19                     20                     21
                      A                      A                      A
 Frequencies --    949.6517               968.6835              1046.4301
 Red. masses --      2.3260                 1.9232                 1.9334
 Frc consts  --      1.2359                 1.0632                 1.2474
 IR Inten    --      6.9205                14.6067                16.1009

                     22                     23                     24
                      A                      A                      A
 Frequencies --   1052.9920              1065.9008              1072.6090
 Red. masses --      2.4767                 1.6445                 1.7162
 Frc consts  --      1.6180                 1.1008                 1.1633
 IR Inten    --     58.3606                14.9337                 7.9646

                     25                     26                     27
                      A                      A                      A
 Frequencies --   1140.6368              1172.6805              1206.6663
 Red. masses --      1.6777                 2.1091                 1.6078
 Frc consts  --      1.2861                 1.7089                 1.3793
 IR Inten    --     40.0767                 1.9232                20.5382

                     28                     29                     30
                      A                      A                      A
 Frequencies --   1217.5085              1261.0956              1288.0814
 Red. masses --      1.4296                 1.5828                 1.4413
 Frc consts  --      1.2485                 1.4831                 1.4090
 IR Inten    --     18.2247                 8.4436                 8.8544

                     31                     32                     33
                      A                      A                      A
 Frequencies --   1327.0574              1364.0816              1390.5546
 Red. masses --      1.9100                 1.5138                 1.7208
 Frc consts  --      1.9818                 1.6595                 1.9605
 IR Inten    --      2.2297                18.3138                 7.2105

                     34                     35                     36
                      A                      A                      A
 Frequencies --   1407.6271              1427.0053              1446.7426
 Red. masses --      1.2657                 1.1843                 1.0937
 Frc consts  --      1.4776                 1.4209                 1.3487
 IR Inten    --      3.6615                45.7213                 5.8402

                     37                     38                     39
                      A                      A                      A
 Frequencies --   1458.5152              1476.8394              1495.4574
 Red. masses --      1.1015                 1.0474                 1.0570
 Frc consts  --      1.3805                 1.3460                 1.3927
 IR Inten    --     12.5202                 7.9696                 7.0404

                     40                     41                     42
                      A                      A                      A
 Frequencies --   1735.4924              1821.5933              2989.1397
 Red. masses --      7.0756                11.3197                 1.0702
 Frc consts  --     12.5562                22.1303                 5.6341
 IR Inten    --      0.1862               190.8231                13.2990

                     43                     44                     45
                      A                      A                      A
 Frequencies --   3022.1975              3026.4024              3044.3545
 Red. masses --      1.0415                 1.0660                 1.0823
 Frc consts  --      5.6049                 5.7528                 5.9102
 IR Inten    --     17.2370                11.7443                35.9678

                     46                     47                     48
                      A                      A                      A
 Frequencies --   3072.4185              3078.4078              3118.0549
 Red. masses --      1.0889                 1.0949                 1.1013
 Frc consts  --      6.0560                 6.1131                 6.3083
 IR Inten    --      9.5159                14.0057                13.6431

                     49                     50                     51
                      A                      A                      A
 Frequencies --   3122.3009              3142.7078              3793.8790
 Red. masses --      1.0968                 1.0892                 1.0662
 Frc consts  --      6.3000                 6.3384                 9.0415
 IR Inten    --     11.7862                23.0521                15.4763

 - Thermochemistry -
 -------------------
 Temperature   298.150 Kelvin.  Pressure   1.00000 Atm.
 Atom     1 has atomic number  6 and mass  12.00000

 Molecular mass:   126.06808 amu.
 Principal axes and moments of inertia in atomic units:
                           1         2         3
     Eigenvalues --   682.985401300.589961726.61691
           X            0.99994  -0.00720   0.00783
           Y            0.00741   0.99962  -0.02665
           Z           -0.00764   0.02671   0.99961
 This molecule is an asymmetric top.
 Rotational symmetry number  1.
 Warning -- assumption of classical behavior for rotation
           may cause significant error
 Rotational temperatures (Kelvin)      0.12682     0.06660     0.05016
 Rotational constants (GHZ):           2.64243     1.38763     1.04525
 Zero-point vibrational energy     416591.7 (Joules/Mol)
                                   99.56780 (Kcal/Mol)
 Warning -- explicit consideration of  13 degrees of freedom as
           vibrations may cause significant error
 Vibrational temperatures:     91.98   135.40   268.54   330.32   375.71
          (Kelvin)            434.33   465.77   540.42   574.40   689.67
                              738.46   814.88   878.56  1050.39  1072.49
                             1141.37  1241.65  1305.99  1366.34  1393.72
                             1505.58  1515.02  1533.59  1543.24  1641.12
                             1687.22  1736.12  1751.72  1814.43  1853.26
                             1909.34  1962.61  2000.70  2025.26  2053.14
                             2081.54  2098.48  2124.84  2151.63  2496.98
                             2620.86  4300.70  4348.26  4354.31  4380.14
                             4420.52  4429.14  4486.18  4492.29  4521.65
                             5458.54

 Zero-point correction=                           0.158671 (Hartree/Particle)
 Thermal correction to Energy=                    0.167623
 Thermal correction to Enthalpy=                  0.168567
 Thermal correction to Gibbs Free Energy=         0.124912
 Sum of electronic and zero-point Energies=           -423.064404
 Sum of electronic and thermal Energies=              -423.055452
 Sum of electronic and thermal Enthalpies=            -423.054508
 Sum of electronic and thermal Free Energies=         -423.098163

                     E (Thermal)             CV                S
                      KCal/Mol        Cal/Mol-Kelvin    Cal/Mol-Kelvin
 Total                  105.185             33.684             91.881
 Electronic               0.000              0.000              0.000
 Translational            0.889              2.981             40.409
 Rotational               0.889              2.981             28.819
 Vibrational            103.408             27.723             22.654
 Vibration     1          0.597              1.972              4.332
 Vibration     2          0.603              1.953              3.573
 Vibration     3          0.632              1.858              2.261
 Vibration     4          0.652              1.796              1.882
 Vibration     5          0.669              1.744              1.654
 Vibration     6          0.694              1.670              1.406
 Vibration     7          0.708              1.628              1.291
 Vibration     8          0.746              1.522              1.057
 Vibration     9          0.765              1.472              0.966
 Vibration    10          0.836              1.296              0.712
 Vibration    11          0.868              1.221              0.626
 Vibration    12          0.922              1.104              0.511
 Vibration    13          0.970              1.009              0.432

 Optimization completed.
    -- Stationary point found.
 Normal termination of Gaussian 09 at Tue Jan 28 02:55:54 2020.
