 Gaussian 09, Revision D.01,
 Gaussian 09:  ES64L-G09RevD.01 24-Apr-2013

 -----------------------------
 # b3lyp 6-31G(2df,p) opt Freq
 -----------------------------

 -----
 titel
 -----
 Symbolic Z-matrix:
 Charge =  0 Multiplicity = 1

 SCF Done:  E(RB3LYP) =  -423.166348938     A.U. after   14 cycles
 Optimization completed.
    -- Stationary point found.
 Normal termination of Gaussian 09 at Tue Jan 28 13:29:36 2020.

 ----------------------------------------------------------------------
 #N Geom=AllCheck Guess=TCheck SCRF=Check GenChk RB3LYP/6-31G(2df,p) Fr
 eq
 ----------------------------------------------------------------------

 Structure from the checkpoint file:  "/scratch/puck/g09_60b61bc3-f1bc-4fe2-bf19-5c691ea75168/Gau-31141.chk"
 -----
 titel
 -----
 Charge =  0 Multiplicity = 1

                         Standard orientation:
 ---------------------------------------------------------------------
 Center     Atomic      Atomic             Coordinates (Angstroms)
 Number     Number       Type             X           Y           Z
 ---------------------------------------------------------------------
      1          8           0        2.047125   -1.431422   -0.591097
      2          6           0        2.210998   -0.193076    0.078100
      3          6           0        1.172169    0.829496   -0.345857
      4          6           0        0.498145    1.690663    0.708426
      5          6           0       -0.258237    0.565078    0.043725
      6          8           0       -0.510204   -0.624397    0.784660
      7          6           0       -1.849473   -1.064709    0.527092
      8          6           0       -2.354687   -0.154321   -0.558890
      9          6           0       -1.435837    0.769324   -0.824786
     10          1           0        1.182208   -1.754423   -0.310989
     11          1           0        2.171422   -0.325095    1.169037
     12          1           0        3.215445    0.164588   -0.171348
     13          1           0        1.327626    1.266441   -1.328620
     14          1           0        0.797127    1.528580    1.739028
     15          1           0        0.225426    2.712892    0.468092
     16          1           0       -1.828231   -2.123138    0.230611
     17          1           0       -2.452255   -0.995281    1.446778
     18          1           0       -3.329927   -0.258764   -1.015316
     19          1           0       -1.502679    1.576026   -1.542628
 ---------------------------------------------------------------------

 SCF Done:  E(RB3LYP) =  -423.166348938     A.U. after    1 cycles

 The electronic state is 1-A.
 Alpha  occ. eigenvalues --  -19.15153 -19.11749 -10.24625 -10.24029 -10.22032
 Alpha  occ. eigenvalues --  -10.19446 -10.19217 -10.18847 -10.18746  -1.04813
 Alpha  occ. eigenvalues --   -1.00049  -0.85864  -0.79473  -0.70686  -0.67634
 Alpha  occ. eigenvalues --   -0.59379  -0.57990  -0.55536  -0.51525  -0.49633
 Alpha  occ. eigenvalues --   -0.46727  -0.46324  -0.44537  -0.41756  -0.40170
 Alpha  occ. eigenvalues --   -0.38715  -0.37683  -0.35455  -0.34209  -0.32527
 Alpha  occ. eigenvalues --   -0.29551  -0.28311  -0.25429  -0.21853
 Alpha virt. eigenvalues --    0.00946   0.07642   0.09841   0.11651   0.12414
 Alpha virt. eigenvalues --    0.13813   0.14355   0.15123   0.16364   0.16777
 Alpha virt. eigenvalues --    0.17125   0.18095   0.19876   0.20144   0.22489

 Mulliken charges:
               1
     1  O   -0.426531
     2  C   -0.073120
     3  C   -0.110486
     4  C   -0.365946
     5  C    0.431008
     6  O   -0.320624
     7  C   -0.135895
     8  C   -0.113121
     9  C   -0.147763
    10  H    0.287113
    11  H    0.091544
    12  H    0.106893
    13  H    0.091734
    14  H    0.124773
    15  H    0.113156
    16  H    0.112242
    17  H    0.111620
    18  H    0.110375
    19  H    0.113028
 Sum of Mulliken charges =   0.00000

 Dipole moment (field-independent basis, Debye):
    X=             -2.2996    Y=              1.3334    Z=              0.0682  Tot=              2.6591
 Quadrupole moment (field-independent basis, Debye-Ang):
   XX=            -52.4822   YY=            -52.0877   ZZ=            -53.7435
   XY=              5.3409   XZ=              2.7497   YZ=             -2.3791

  Exact polarizability:  93.130  11.846  78.647   1.048  -2.950  64.103
 Approx polarizability: 127.460  21.641 118.998  -1.821  -4.796  97.905

                      1                      2                      3
                      A                      A                      A
 Frequencies --     79.7188               113.0817               135.1952
 Red. masses --      3.4341                 4.5227                 3.3478
 Frc consts  --      0.0129                 0.0341                 0.0361
 IR Inten    --      0.7736                 5.1373                 1.8315

                      4                      5                      6
                      A                      A                      A
 Frequencies --    183.3431               318.0213               327.0939
 Red. masses --      2.5134                 3.2700                 2.7251
 Frc consts  --      0.0498                 0.1949                 0.1718
 IR Inten    --      1.1476                 1.0463                 1.3160

                      7                      8                      9
                      A                      A                      A
 Frequencies --    428.5537               453.1474               503.5120
 Red. masses --      2.3049                 2.3303                 1.3846
 Frc consts  --      0.2494                 0.2819                 0.2068
 IR Inten    --      4.9807                12.2439                90.1449

                     10                     11                     12
                      A                      A                      A
 Frequencies --    538.1224               613.2759               722.4846
 Red. masses --      2.9053                 3.5626                 1.3422
 Frc consts  --      0.4957                 0.7894                 0.4128
 IR Inten    --      1.7675                 1.9093                14.0567

                     13                     14                     15
                      A                      A                      A
 Frequencies --    779.7547               804.9238               840.4981
 Red. masses --      6.7612                 1.7663                 4.1538
 Frc consts  --      2.4221                 0.6743                 1.7289
 IR Inten    --      8.3629                12.4291                 8.3797

                     16                     17                     18
                      A                      A                      A
 Frequencies --    883.7562               905.6887               945.9917
 Red. masses --      1.6567                 2.0076                 1.6928
 Frc consts  --      0.7624                 0.9703                 0.8926
 IR Inten    --      5.8466                31.7834                 1.3798

                     19                     20                     21
                      A                      A                      A
 Frequencies --    950.5120               962.7337               994.4296
 Red. masses --      1.3508                 2.4608                 2.7797
 Frc consts  --      0.7190                 1.3438                 1.6195
 IR Inten    --      0.6518                 1.7459                30.6330

                     22                     23                     24
                      A                      A                      A
 Frequencies --   1042.0073              1043.6458              1064.6755
 Red. masses --      1.6203                 1.6833                 2.5967
 Frc consts  --      1.0366                 1.0802                 1.7342
 IR Inten    --      4.6648                12.3762                55.8878

                     25                     26                     27
                      A                      A                      A
 Frequencies --   1070.6273              1090.3984              1118.5313
 Red. masses --      2.1161                 3.3807                 1.4150
 Frc consts  --      1.4291                 2.3683                 1.0431
 IR Inten    --     38.4994                66.4912                35.7876

                     28                     29                     30
                      A                      A                      A
 Frequencies --   1145.9314              1196.0636              1208.4722
 Red. masses --      1.4631                 1.1594                 1.5357
 Frc consts  --      1.1320                 0.9772                 1.3214
 IR Inten    --     12.7147                 4.1273                20.4920

                     31                     32                     33
                      A                      A                      A
 Frequencies --   1260.9969              1273.4595              1353.0481
 Red. masses --      1.4613                 1.7906                 1.6092
 Frc consts  --      1.3690                 1.7109                 1.7358
 IR Inten    --      5.1281                18.8768                 2.6700

                     34                     35                     36
                      A                      A                      A
 Frequencies --   1378.2590              1392.0247              1424.5884
 Red. masses --      1.4196                 1.4362                 1.5252
 Frc consts  --      1.5888                 1.6397                 1.8237
 IR Inten    --      3.7251                 3.0005                 3.7988

                     37                     38                     39
                      A                      A                      A
 Frequencies --   1439.2776              1477.3827              1500.3504
 Red. masses --      1.3206                 1.5941                 1.1050
 Frc consts  --      1.6118                 2.0500                 1.4655
 IR Inten    --     68.1396                 4.3791                 1.6968

                     40                     41                     42
                      A                      A                      A
 Frequencies --   1520.1730              1679.6674              2974.5686
 Red. masses --      1.0889                 6.5152                 1.0658
 Frc consts  --      1.4826                10.8298                 5.5562
 IR Inten    --      2.4727                 1.1269                88.6798

                     43                     44                     45
                      A                      A                      A
 Frequencies --   2998.1031              3008.8399              3071.7721
 Red. masses --      1.0674                 1.0961                 1.0953
 Frc consts  --      5.6530                 5.8463                 6.0892
 IR Inten    --     44.6358                45.4044                37.3975

                     46                     47                     48
                      A                      A                      A
 Frequencies --   3125.9729              3143.7439              3214.7809
 Red. masses --      1.0536                 1.0894                 1.0893
 Frc consts  --      6.0656                 6.3434                 6.6326
 IR Inten    --     11.5835                16.0709                 0.5994

                     49                     50                     51
                      A                      A                      A
 Frequencies --   3217.1202              3238.3960              3787.9264
 Red. masses --      1.1134                 1.1067                 1.0654
 Frc consts  --      6.7893                 6.8379                 9.0065
 IR Inten    --      6.4484                 6.5645                31.3258

 - Thermochemistry -
 -------------------
 Temperature   298.150 Kelvin.  Pressure   1.00000 Atm.
 Atom     1 has atomic number  8 and mass  15.99491

 Molecular mass:   126.06808 amu.
 Principal axes and moments of inertia in atomic units:
                           1         2         3
     Eigenvalues --   641.765631338.823631621.21410
           X            0.99946   0.03113   0.01065
           Y           -0.03091   0.99931  -0.02052
           Z           -0.01129   0.02018   0.99973
 This molecule is an asymmetric top.
 Rotational symmetry number  1.
 Warning -- assumption of classical behavior for rotation
           may cause significant error
 Rotational temperatures (Kelvin)      0.13496     0.06469     0.05343
 Rotational constants (GHZ):           2.81215     1.34801     1.11320
 Zero-point vibrational energy     418361.9 (Joules/Mol)
                                   99.99089 (Kcal/Mol)
 Warning -- explicit consideration of  11 degrees of freedom as
           vibrations may cause significant error
 Vibrational temperatures:    114.70   162.70   194.52   263.79   457.56
          (Kelvin)            470.61   616.59   651.98   724.44   774.24
                              882.37  1039.49  1121.89  1158.10  1209.29
                             1271.53  1303.08  1361.07  1367.57  1385.16
                             1430.76  1499.21  1501.57  1531.83  1540.39
                             1568.84  1609.32  1648.74  1720.87  1738.72
                             1814.29  1832.22  1946.73  1983.00  2002.81
                             2049.66  2070.80  2125.62  2158.67  2187.19
                             2416.66  4279.74  4313.60  4329.04  4419.59
                             4497.57  4523.14  4625.35  4628.71  4659.32
                             5449.97

 Zero-point correction=                           0.159346 (Hartree/Particle)
 Thermal correction to Energy=                    0.167736
 Thermal correction to Enthalpy=                  0.168680
 Thermal correction to Gibbs Free Energy=         0.126081
 Sum of electronic and zero-point Energies=           -423.007003
 Sum of electronic and thermal Energies=              -422.998613
 Sum of electronic and thermal Enthalpies=            -422.997669
 Sum of electronic and thermal Free Energies=         -423.040267

                     E (Thermal)             CV                S
                      KCal/Mol        Cal/Mol-Kelvin    Cal/Mol-Kelvin
 Total                  105.256             32.090             89.656
 Electronic               0.000              0.000              0.000
 Translational            0.889              2.981             40.409
 Rotational               0.889              2.981             28.723
 Vibrational            103.478             26.128             20.525
 Vibration     1          0.600              1.963              3.898
 Vibration     2          0.607              1.939              3.215
 Vibration     3          0.613              1.918              2.871
 Vibration     4          0.631              1.862              2.294
 Vibration     5          0.704              1.639              1.320
 Vibration     6          0.711              1.621              1.274
 Vibration     7          0.790              1.408              0.863
 Vibration     8          0.812              1.354              0.786
 Vibration     9          0.859              1.242              0.649
 Vibration    10          0.893              1.166              0.569
 Vibration    11          0.973              1.004              0.427

 Optimization completed.
    -- Stationary point found.
 Normal termination of Gaussian 09 at Tue Jan 28 14:11:56 2020.
