 Gaussian 09, Revision D.01,
 Gaussian 09:  ES64L-G09RevD.01 24-Apr-2013

 -----------------------------
 # b3lyp 6-31G(2df,p) opt Freq
 -----------------------------

 -----
 titel
 -----
 Symbolic Z-matrix:
 Charge =  0 Multiplicity = 1

 SCF Done:  E(RB3LYP) =  -423.209276267     A.U. after   14 cycles
 Optimization completed.
    -- Stationary point found.
 Normal termination of Gaussian 09 at Tue Jan 28 09:50:48 2020.

 ----------------------------------------------------------------------
 #N Geom=AllCheck Guess=TCheck SCRF=Check GenChk RB3LYP/6-31G(2df,p) Fr
 eq
 ----------------------------------------------------------------------

 Structure from the checkpoint file:  "/scratch/puck/g09_a66a1822-4746-4ed7-acc8-fe0f276e6388/Gau-106645.chk"
 -----
 titel
 -----
 Charge =  0 Multiplicity = 1

                         Standard orientation:
 ---------------------------------------------------------------------
 Center     Atomic      Atomic             Coordinates (Angstroms)
 Number     Number       Type             X           Y           Z
 ---------------------------------------------------------------------
      1          8           0        2.379343    0.047619    0.852533
      2          6           0        1.759902   -0.713856   -0.164169
      3          6           0        0.273718   -0.446233   -0.271996
      4          6           0       -0.634979   -1.428594   -1.002867
      5          6           0       -0.842359   -1.192598    0.456236
      6          6           0       -1.938150   -0.198103    0.843353
      7          6           0       -1.652540    1.070608    0.009801
      8          6           0       -0.160106    0.981826   -0.323492
      9          8           0        0.586494    1.921999   -0.493359
     10          1           0        2.273092    0.970871    0.589528
     11          1           0        2.227586   -0.526368   -1.143659
     12          1           0        1.929469   -1.768637    0.079602
     13          1           0       -1.357207   -1.056515   -1.722471
     14          1           0       -0.154308   -2.355617   -1.299205
     15          1           0       -0.589279   -1.984714    1.152210
     16          1           0       -2.941224   -0.601720    0.673086
     17          1           0       -1.856373    0.033418    1.910131
     18          1           0       -2.224651    1.089466   -0.925502
     19          1           0       -1.866717    2.004575    0.531696
 ---------------------------------------------------------------------

 SCF Done:  E(RB3LYP) =  -423.209276267     A.U. after    1 cycles

 The electronic state is 1-A.
 Alpha  occ. eigenvalues --  -19.13426 -19.12365 -10.27146 -10.22990 -10.21010
 Alpha  occ. eigenvalues --  -10.20681 -10.20437 -10.20065 -10.19678  -1.04493
 Alpha  occ. eigenvalues --   -1.00715  -0.89915  -0.77879  -0.70870  -0.67286
 Alpha  occ. eigenvalues --   -0.63140  -0.57911  -0.53002  -0.50598  -0.48682
 Alpha  occ. eigenvalues --   -0.47049  -0.45551  -0.43220  -0.41832  -0.41387
 Alpha  occ. eigenvalues --   -0.40348  -0.38549  -0.35898  -0.35444  -0.33921
 Alpha  occ. eigenvalues --   -0.31028  -0.28999  -0.26065  -0.24428
 Alpha virt. eigenvalues --   -0.01964   0.08038   0.09130   0.10407   0.11504
 Alpha virt. eigenvalues --    0.11792   0.14585   0.15332   0.16166   0.17216
 Alpha virt. eigenvalues --    0.17795   0.19358   0.20389   0.21815   0.21882

 Mulliken charges:
               1
     1  O   -0.424195
     2  C   -0.162774
     3  C    0.209810
     4  C   -0.336926
     5  C   -0.071266
     6  C   -0.227927
     7  C   -0.339817
     8  C    0.375985
     9  O   -0.357677
    10  H    0.297314
    11  H    0.098027
    12  H    0.103789
    13  H    0.118741
    14  H    0.125162
    15  H    0.101416
    16  H    0.107949
    17  H    0.118608
    18  H    0.130983
    19  H    0.132799
 Sum of Mulliken charges =   0.00000

 Dipole moment (field-independent basis, Debye):
    X=             -2.7621    Y=             -1.8064    Z=             -0.6035  Tot=              3.3550
 Quadrupole moment (field-independent basis, Debye-Ang):
   XX=            -55.0976   YY=            -54.4701   ZZ=            -53.2352
   XY=             -1.7897   XZ=             -2.3213   YZ=              2.2017

  Exact polarizability:  81.409   1.430  79.416  -2.303   1.657  64.588
 Approx polarizability: 112.620  10.489 122.462  -1.215   0.297 100.352

                      1                      2                      3
                      A                      A                      A
 Frequencies --     95.2045               119.3465               174.8211
 Red. masses --      4.0175                 3.1783                 4.1587
 Frc consts  --      0.0215                 0.0267                 0.0749
 IR Inten    --      6.0346                 1.2019                 2.8225

                      4                      5                      6
                      A                      A                      A
 Frequencies --    215.0850               274.1001               377.0731
 Red. masses --      2.2980                 2.5593                 2.4589
 Frc consts  --      0.0626                 0.1133                 0.2060
 IR Inten    --      2.0415                 2.4888                 1.0453

                      7                      8                      9
                      A                      A                      A
 Frequencies --    429.1868               471.2904               510.2796
 Red. masses --      3.2984                 3.7121                 1.3966
 Frc consts  --      0.3580                 0.4858                 0.2143
 IR Inten    --      1.7045                 4.5833                84.9137

                     10                     11                     12
                      A                      A                      A
 Frequencies --    551.1045               593.8042               673.4572
 Red. masses --      2.4152                 2.4394                 4.4353
 Frc consts  --      0.4322                 0.5068                 1.1852
 IR Inten    --     74.9003                 0.8821                 5.5828

                     13                     14                     15
                      A                      A                      A
 Frequencies --    692.5008               791.4432               813.7034
 Red. masses --      3.3022                 2.1319                 2.1045
 Frc consts  --      0.9330                 0.7868                 0.8210
 IR Inten    --      1.4881                 6.2711                 4.7535

                     16                     17                     18
                      A                      A                      A
 Frequencies --    856.3590               919.5651               935.4913
 Red. masses --      1.8604                 1.7869                 1.7240
 Frc consts  --      0.8038                 0.8903                 0.8889
 IR Inten    --      2.9803                 9.2299                 1.2492

                     19                     20                     21
                      A                      A                      A
 Frequencies --    972.6455               991.8538              1045.4683
 Red. masses --      2.1215                 1.9974                 2.5843
 Frc consts  --      1.1825                 1.1577                 1.6642
 IR Inten    --      5.9480                12.2379                22.3559

                     22                     23                     24
                      A                      A                      A
 Frequencies --   1053.2525              1061.3154              1085.7570
 Red. masses --      1.5530                 1.4588                 2.7095
 Frc consts  --      1.0151                 0.9681                 1.8820
 IR Inten    --      9.8444                21.4325                95.0889

                     25                     26                     27
                      A                      A                      A
 Frequencies --   1091.9306              1112.5302              1174.7963
 Red. masses --      2.0432                 1.8170                 1.3642
 Frc consts  --      1.4353                 1.3250                 1.1093
 IR Inten    --      1.4843                14.8140                 8.1111

                     28                     29                     30
                      A                      A                      A
 Frequencies --   1206.2064              1231.8370              1274.6708
 Red. masses --      1.3261                 1.3929                 1.3850
 Frc consts  --      1.1367                 1.2453                 1.3259
 IR Inten    --     16.0341                 2.8426                 1.1066

                     31                     32                     33
                      A                      A                      A
 Frequencies --   1300.5319              1326.3069              1344.7595
 Red. masses --      1.6635                 2.1821                 2.0649
 Frc consts  --      1.6577                 2.2616                 2.2001
 IR Inten    --      1.7223                23.9797                17.5757

                     34                     35                     36
                      A                      A                      A
 Frequencies --   1388.1610              1400.7627              1440.1223
 Red. masses --      1.3380                 1.8839                 1.2724
 Frc consts  --      1.5191                 2.1779                 1.5549
 IR Inten    --      3.4734                 5.0885                86.2381

                     37                     38                     39
                      A                      A                      A
 Frequencies --   1460.1247              1488.4183              1495.7679
 Red. masses --      1.1072                 1.1755                 1.1035
 Frc consts  --      1.3908                 1.5343                 1.4546
 IR Inten    --      9.1668                 3.9937                 2.3090

                     40                     41                     42
                      A                      A                      A
 Frequencies --   1503.4683              1800.5469              2979.7220
 Red. masses --      1.1481                12.0086                 1.0687
 Frc consts  --      1.5291                22.9378                 5.5903
 IR Inten    --      1.3465               241.1799                57.4109

                     43                     44                     45
                      A                      A                      A
 Frequencies --   3045.3826              3048.7314              3062.6336
 Red. masses --      1.0660                 1.0626                 1.0939
 Frc consts  --      5.8251                 5.8190                 6.0453
 IR Inten    --     19.8491                25.2061                25.6198

                     46                     47                     48
                      A                      A                      A
 Frequencies --   3086.7739              3122.8048              3124.9178
 Red. masses --      1.1039                 1.0942                 1.0551
 Frc consts  --      6.1970                 6.2866                 6.0706
 IR Inten    --     18.9676                 6.5901                15.6768

                     49                     50                     51
                      A                      A                      A
 Frequencies --   3174.7769              3208.3882              3772.9019
 Red. masses --      1.0916                 1.1159                 1.0655
 Frc consts  --      6.4827                 6.7677                 8.9362
 IR Inten    --      8.8125                 7.5155                44.0358

 - Thermochemistry -
 -------------------
 Temperature   298.150 Kelvin.  Pressure   1.00000 Atm.
 Atom     1 has atomic number  8 and mass  15.99491

 Molecular mass:   126.06808 amu.
 Principal axes and moments of inertia in atomic units:
                           1         2         3
     Eigenvalues --   747.821171130.004071492.87204
           X            0.99929  -0.03330  -0.01790
           Y            0.03388   0.99887   0.03327
           Z            0.01677  -0.03385   0.99929
 This molecule is an asymmetric top.
 Rotational symmetry number  1.
 Warning -- assumption of classical behavior for rotation
           may cause significant error
 Rotational temperatures (Kelvin)      0.11582     0.07665     0.05802
 Rotational constants (GHZ):           2.41333     1.59711     1.20891
 Zero-point vibrational energy     420918.5 (Joules/Mol)
                                  100.60194 (Kcal/Mol)
 Warning -- explicit consideration of  11 degrees of freedom as
           vibrations may cause significant error
 Vibrational temperatures:    136.98   171.71   251.53   309.46   394.37
          (Kelvin)            542.52   617.50   678.08   734.18   792.92
                              854.35   968.95   996.35  1138.71  1170.74
                             1232.11  1323.05  1345.96  1399.42  1427.05
                             1504.19  1515.39  1526.99  1562.16  1571.04
                             1600.68  1690.27  1735.46  1772.34  1833.96
                             1871.17  1908.26  1934.81  1997.25  2015.38
                             2072.01  2100.79  2141.50  2152.07  2163.15
                             2590.58  4287.15  4381.62  4386.44  4406.44
                             4441.17  4493.01  4496.05  4567.79  4616.15
                             5428.36

 Zero-point correction=                           0.160319 (Hartree/Particle)
 Thermal correction to Energy=                    0.168553
 Thermal correction to Enthalpy=                  0.169497
 Thermal correction to Gibbs Free Energy=         0.127514
 Sum of electronic and zero-point Energies=           -423.048957
 Sum of electronic and thermal Energies=              -423.040723
 Sum of electronic and thermal Enthalpies=            -423.039779
 Sum of electronic and thermal Free Energies=         -423.081762

                     E (Thermal)             CV                S
                      KCal/Mol        Cal/Mol-Kelvin    Cal/Mol-Kelvin
 Total                  105.768             31.855             88.360
 Electronic               0.000              0.000              0.000
 Translational            0.889              2.981             40.409
 Rotational               0.889              2.981             28.624
 Vibrational            103.991             25.893             19.327
 Vibration     1          0.603              1.953              3.550
 Vibration     2          0.609              1.933              3.111
 Vibration     3          0.627              1.873              2.383
 Vibration     4          0.645              1.818              2.000
 Vibration     5          0.676              1.721              1.570
 Vibration     6          0.748              1.519              1.051
 Vibration     7          0.791              1.407              0.861
 Vibration     8          0.828              1.314              0.734
 Vibration     9          0.865              1.227              0.633
 Vibration    10          0.906              1.137              0.542
 Vibration    11          0.951              1.045              0.460

 Normal termination of Gaussian 09 at Tue Jan 28 10:34:03 2020.
