 Gaussian 09, Revision D.01,
 Gaussian 09:  ES64L-G09RevD.01 24-Apr-2013

 -----------------------------
 # b3lyp 6-31G(2df,p) opt Freq
 -----------------------------

 -----
 titel
 -----
 Symbolic Z-matrix:
 Charge =  0 Multiplicity = 1

 SCF Done:  E(RB3LYP) =  -423.166921189     A.U. after   14 cycles
 Optimization completed.
    -- Stationary point found.
 Normal termination of Gaussian 09 at Mon Jan 27 13:19:22 2020.

 ----------------------------------------------------------------------
 #N Geom=AllCheck Guess=TCheck SCRF=Check GenChk RB3LYP/6-31G(2df,p) Fr
 eq
 ----------------------------------------------------------------------

 Structure from the checkpoint file:  "/scratch/puck/g09_efe95acb-8a09-43f3-ac3a-3a126454e98e/Gau-55333.chk"
 -----
 titel
 -----
 Charge =  0 Multiplicity = 1

                         Standard orientation:
 ---------------------------------------------------------------------
 Center     Atomic      Atomic             Coordinates (Angstroms)
 Number     Number       Type             X           Y           Z
 ---------------------------------------------------------------------
      1          8           0       -3.522677    0.186095    0.234995
      2          6           0       -2.411726    0.425369   -0.159822
      3          6           0       -1.262381   -0.559341   -0.111287
      4          6           0       -0.258462   -0.323607    1.047891
      5          6           0        0.767955   -0.088280   -0.082586
      6          6           0        1.635647    1.186710   -0.110020
      7          6           0        2.850345    0.311572    0.308895
      8          6           0        2.054192   -0.938798   -0.158984
      9          8           0       -0.249937   -0.265770   -1.089326
     10          1           0       -2.124926    1.418372   -0.577082
     11          1           0       -1.650865   -1.580385   -0.192784
     12          1           0       -0.468430    0.550310    1.669242
     13          1           0       -0.083261   -1.188913    1.688055
     14          1           0        1.732163    1.547172   -1.138300
     15          1           0        1.338460    2.019319    0.533077
     16          1           0        3.802526    0.510641   -0.184976
     17          1           0        3.010570    0.318591    1.390005
     18          1           0        2.270430   -1.190145   -1.201337
     19          1           0        2.100832   -1.849316    0.444222
 ---------------------------------------------------------------------

 SCF Done:  E(RB3LYP) =  -423.166921189     A.U. after    1 cycles

 The electronic state is 1-A.
 Alpha  occ. eigenvalues --  -19.14631 -19.14512 -10.27196 -10.24827 -10.24660
 Alpha  occ. eigenvalues --  -10.20461 -10.19181 -10.18748 -10.18696  -1.05857
 Alpha  occ. eigenvalues --   -1.04669  -0.84728  -0.76013  -0.70094  -0.67108
 Alpha  occ. eigenvalues --   -0.62124  -0.57545  -0.53103  -0.50206  -0.49962
 Alpha  occ. eigenvalues --   -0.48299  -0.46903  -0.43229  -0.41571  -0.41084
 Alpha  occ. eigenvalues --   -0.39287  -0.37760  -0.36913  -0.34562  -0.32802
 Alpha  occ. eigenvalues --   -0.31659  -0.30727  -0.27158  -0.24484
 Alpha virt. eigenvalues --   -0.03270   0.06687   0.08078   0.10473   0.11254
 Alpha virt. eigenvalues --    0.12205   0.12940   0.14131   0.15355   0.17120
 Alpha virt. eigenvalues --    0.17479   0.18167   0.18598   0.20509   0.21165

 Mulliken charges:
               1
     1  O   -0.240264
     2  C    0.138096
     3  C    0.040335
     4  C   -0.374639
     5  C    0.467838
     6  C   -0.287043
     7  C   -0.215155
     8  C   -0.287081
     9  O   -0.324949
    10  H    0.084984
    11  H    0.103301
    12  H    0.120237
    13  H    0.125006
    14  H    0.118551
    15  H    0.098288
    16  H    0.107479
    17  H    0.107800
    18  H    0.118555
    19  H    0.098659
 Sum of Mulliken charges =   0.00000

 Dipole moment (field-independent basis, Debye):
    X=              2.9193    Y=              0.0345    Z=              0.9672  Tot=              3.0755
 Quadrupole moment (field-independent basis, Debye-Ang):
   XX=            -63.8101   YY=            -51.2947   ZZ=            -53.6938
   XY=              0.2893   XZ=              1.3112   YZ=             -0.7163

  Exact polarizability:  95.495   0.823  70.628  -1.532  -2.027  63.174
 Approx polarizability: 123.644   2.856 102.605  -4.035  -2.845  99.280

                      1                      2                      3
                      A                      A                      A
 Frequencies --     41.8463                63.1874               120.0419
 Red. masses --      4.8677                 3.7929                 2.1823
 Frc consts  --      0.0050                 0.0089                 0.0185
 IR Inten    --      1.0907                 6.7472                 1.6488

                      4                      5                      6
                      A                      A                      A
 Frequencies --    216.6481               296.9633               313.7954
 Red. masses --      2.2776                 2.4349                 3.5606
 Frc consts  --      0.0630                 0.1265                 0.2066
 IR Inten    --      0.7096                 0.9657                 9.1648

                      7                      8                      9
                      A                      A                      A
 Frequencies --    384.0457               396.5651               421.4223
 Red. masses --      2.4085                 3.5636                 3.0293
 Frc consts  --      0.2093                 0.3302                 0.3170
 IR Inten    --      5.6137                 4.3094                 5.4753

                     10                     11                     12
                      A                      A                      A
 Frequencies --    586.1119               693.9894               781.9396
 Red. masses --      5.8608                 1.5052                 1.2253
 Frc consts  --      1.1862                 0.4271                 0.4414
 IR Inten    --      3.6292                 1.6286                 0.1223

                     13                     14                     15
                      A                      A                      A
 Frequencies --    821.6877               856.2565               878.0713
 Red. masses --      2.0699                 1.7910                 2.5415
 Frc consts  --      0.8234                 0.7737                 1.1545
 IR Inten    --     22.9292                 2.4540                 2.4352

                     16                     17                     18
                      A                      A                      A
 Frequencies --    915.2087               917.0580               923.0749
 Red. masses --      3.0891                 2.2012                 2.5587
 Frc consts  --      1.5245                 1.0907                 1.2845
 IR Inten    --      1.9130                 2.6815                 0.8156

                     19                     20                     21
                      A                      A                      A
 Frequencies --    947.5123               969.6199              1026.0898
 Red. masses --      1.6762                 3.4337                 1.1492
 Frc consts  --      0.8867                 1.9020                 0.7129
 IR Inten    --     15.4788                23.7253                 1.4950

                     22                     23                     24
                      A                      A                      A
 Frequencies --   1044.1500              1063.4130              1146.2480
 Red. masses --      3.1727                 3.3627                 2.7103
 Frc consts  --      2.0380                 2.2405                 2.0981
 IR Inten    --     83.3912                48.4994                 1.2184

                     25                     26                     27
                      A                      A                      A
 Frequencies --   1154.5279              1174.1767              1188.9576
 Red. masses --      2.7457                 1.4662                 1.9356
 Frc consts  --      2.1563                 1.1910                 1.6121
 IR Inten    --     60.8229                 7.0238                 2.2086

                     28                     29                     30
                      A                      A                      A
 Frequencies --   1213.1065              1239.7834              1244.9794
 Red. masses --      1.5432                 1.3153                 1.1998
 Frc consts  --      1.3380                 1.1912                 1.0957
 IR Inten    --      0.2698                 3.5360                 0.5074

                     31                     32                     33
                      A                      A                      A
 Frequencies --   1257.7426              1274.5388              1285.1682
 Red. masses --      1.3926                 1.5613                 1.5842
 Frc consts  --      1.2980                 1.4943                 1.5416
 IR Inten    --      1.4499                 0.7558                 9.2689

                     34                     35                     36
                      A                      A                      A
 Frequencies --   1308.0807              1327.5830              1401.8581
 Red. masses --      1.6244                 1.8970                 1.2615
 Frc consts  --      1.6376                 1.9699                 1.4606
 IR Inten    --     25.5200                 8.4569                 3.2654

                     37                     38                     39
                      A                      A                      A
 Frequencies --   1466.4255              1481.6265              1490.8387
 Red. masses --      1.0905                 1.0956                 1.1080
 Frc consts  --      1.3816                 1.4170                 1.4510
 IR Inten    --      3.1246                 4.6700                 1.1337

                     40                     41                     42
                      A                      A                      A
 Frequencies --   1505.0734              1833.9227              2873.6024
 Red. masses --      1.1315                10.6321                 1.0836
 Frc consts  --      1.5102                21.0684                 5.2722
 IR Inten    --      2.3734               169.4158                81.3639

                     43                     44                     45
                      A                      A                      A
 Frequencies --   3053.2241              3054.2123              3058.9114
 Red. masses --      1.0852                 1.0574                 1.0584
 Frc consts  --      5.9604                 5.8115                 5.8350
 IR Inten    --     25.7885                52.1808                 7.9069

                     46                     47                     48
                      A                      A                      A
 Frequencies --   3070.5467              3072.4807              3106.9980
 Red. masses --      1.0617                 1.0611                 1.1063
 Frc consts  --      5.8979                 5.9018                 6.2920
 IR Inten    --     22.4626                17.8809                12.1629

                     49                     50                     51
                      A                      A                      A
 Frequencies --   3111.2364              3129.8879              3133.3951
 Red. masses --      1.1082                 1.1073                 1.1073
 Frc consts  --      6.3204                 6.3908                 6.4054
 IR Inten    --      9.9833                39.6044                14.1353

 - Thermochemistry -
 -------------------
 Temperature   298.150 Kelvin.  Pressure   1.00000 Atm.
 Atom     1 has atomic number  8 and mass  15.99491

 Molecular mass:   126.06808 amu.
 Principal axes and moments of inertia in atomic units:
                           1         2         3
     Eigenvalues --   364.364682027.232362061.47908
           X            0.99999   0.00284   0.00222
           Y           -0.00251   0.99052  -0.13734
           Z           -0.00259   0.13733   0.99052
 This molecule is an asymmetric top.
 Rotational symmetry number  1.
 Rotational temperatures (Kelvin)      0.23771     0.04273     0.04202
 Rotational constants (GHZ):           4.95312     0.89025     0.87546
 Zero-point vibrational energy     414732.3 (Joules/Mol)
                                   99.12340 (Kcal/Mol)
 Warning -- explicit consideration of  10 degrees of freedom as
           vibrations may cause significant error
 Vibrational temperatures:     60.21    90.91   172.71   311.71   427.26
          (Kelvin)            451.48   552.56   570.57   606.33   843.28
                              998.49  1125.04  1182.22  1231.96  1263.35
                             1316.78  1319.44  1328.10  1363.26  1395.06
                             1476.31  1502.30  1530.01  1649.19  1661.11
                             1689.38  1710.64  1745.39  1783.77  1791.25
                             1809.61  1833.77  1849.07  1882.03  1910.09
                             2016.96  2109.86  2131.73  2144.98  2165.46
                             2638.60  4134.47  4392.90  4394.32  4401.09
                             4417.83  4420.61  4470.27  4476.37  4503.20
                             4508.25

 Zero-point correction=                           0.157963 (Hartree/Particle)
 Thermal correction to Energy=                    0.166543
 Thermal correction to Enthalpy=                  0.167487
 Thermal correction to Gibbs Free Energy=         0.123599
 Sum of electronic and zero-point Energies=           -423.008958
 Sum of electronic and thermal Energies=              -423.000379
 Sum of electronic and thermal Enthalpies=            -422.999434
 Sum of electronic and thermal Free Energies=         -423.043322

                     E (Thermal)             CV                S
                      KCal/Mol        Cal/Mol-Kelvin    Cal/Mol-Kelvin
 Total                  104.507             31.634             92.370
 Electronic               0.000              0.000              0.000
 Translational            0.889              2.981             40.409
 Rotational               0.889              2.981             28.811
 Vibrational            102.730             25.672             23.150
 Vibration     1          0.594              1.980              5.170
 Vibration     2          0.597              1.972              4.355
 Vibration     3          0.609              1.933              3.100
 Vibration     4          0.645              1.816              1.987
 Vibration     5          0.691              1.679              1.434
 Vibration     6          0.702              1.647              1.342
 Vibration     7          0.753              1.504              1.023
 Vibration     8          0.763              1.478              0.975
 Vibration     9          0.784              1.424              0.887
 Vibration    10          0.943              1.061              0.474

 Optimization completed.
    -- Stationary point found.
 Normal termination of Gaussian 09 at Mon Jan 27 14:02:43 2020.
