 Gaussian 09, Revision D.01,
 Gaussian 09:  ES64L-G09RevD.01 24-Apr-2013

 -----------------------------
 # b3lyp 6-31G(2df,p) opt Freq
 -----------------------------

 -----
 titel
 -----
 Symbolic Z-matrix:
 Charge =  0 Multiplicity = 1

 SCF Done:  E(RB3LYP) =  -423.177520086     A.U. after   14 cycles
 Optimization completed.
    -- Stationary point found.
 Normal termination of Gaussian 09 at Mon Jan 27 22:14:27 2020.

 ----------------------------------------------------------------------
 #N Geom=AllCheck Guess=TCheck SCRF=Check GenChk RB3LYP/6-31G(2df,p) Fr
 eq
 ----------------------------------------------------------------------

 Structure from the checkpoint file:  "/scratch/puck/g09_20474514-53cd-4353-90e3-d0760e6ac5ca/Gau-28758.chk"
 -----
 titel
 -----
 Charge =  0 Multiplicity = 1

                         Standard orientation:
 ---------------------------------------------------------------------
 Center     Atomic      Atomic             Coordinates (Angstroms)
 Number     Number       Type             X           Y           Z
 ---------------------------------------------------------------------
      1          6           0        3.027593   -0.214626   -0.019696
      2          6           0        1.554976   -0.143697   -0.369484
      3          6           0        0.762643    0.998243    0.266476
      4          6           0        0.555509   -0.497840    0.669339
      5          6           0       -0.873344   -0.503429    0.099776
      6          6           0       -1.263772   -1.499598   -0.979160
      7          8           0       -1.795056   -0.536159    1.181893
      8          6           0       -0.633830    1.007635   -0.246975
      9          8           0       -1.421423    1.865849   -0.543535
     10          1           0        3.413064   -1.226536   -0.181086
     11          1           0        3.612460    0.472139   -0.639429
     12          1           0        3.199411    0.047396    1.028958
     13          1           0        1.339107   -0.391634   -1.406117
     14          1           0        1.268705    1.803873    0.784720
     15          1           0        0.814941   -0.942246    1.621543
     16          1           0       -1.374759   -2.496578   -0.541815
     17          1           0       -2.224182   -1.210341   -1.419294
     18          1           0       -0.528703   -1.549970   -1.787362
     19          1           0       -2.566860   -0.023748    0.911363
 ---------------------------------------------------------------------

 SCF Done:  E(RB3LYP) =  -423.177520086     A.U. after    1 cycles

 The electronic state is 1-A.
 Alpha  occ. eigenvalues --  -19.14410 -19.13221 -10.26532 -10.24615 -10.21776
 Alpha  occ. eigenvalues --  -10.21015 -10.20568 -10.19401 -10.18111  -1.04810
 Alpha  occ. eigenvalues --   -1.02177  -0.90759  -0.76499  -0.72951  -0.65137
 Alpha  occ. eigenvalues --   -0.63716  -0.58100  -0.53947  -0.49944  -0.47910
 Alpha  occ. eigenvalues --   -0.45848  -0.44833  -0.42806  -0.41899  -0.40832
 Alpha  occ. eigenvalues --   -0.40119  -0.38114  -0.37763  -0.36630  -0.33835
 Alpha  occ. eigenvalues --   -0.30584  -0.29475  -0.27913  -0.23285
 Alpha virt. eigenvalues --   -0.01315   0.07506   0.08911   0.09940   0.10817
 Alpha virt. eigenvalues --    0.13327   0.14320   0.14846   0.15636   0.16123
 Alpha virt. eigenvalues --    0.16692   0.17967   0.19496   0.20443   0.22506

 Mulliken charges:
               1
     1  C   -0.421300
     2  C   -0.032993
     3  C   -0.190654
     4  C   -0.083486
     5  C    0.286264
     6  C   -0.452894
     7  O   -0.478500
     8  C    0.353845
     9  O   -0.342009
    10  H    0.128042
    11  H    0.129040
    12  H    0.123769
    13  H    0.095805
    14  H    0.109007
    15  H    0.111382
    16  H    0.128889
    17  H    0.126369
    18  H    0.117407
    19  H    0.292018
 Sum of Mulliken charges =   0.00000

 Dipole moment (field-independent basis, Debye):
    X=              2.1216    Y=             -1.6066    Z=             -0.2031  Tot=              2.6691
 Quadrupole moment (field-independent basis, Debye-Ang):
   XX=            -49.6556   YY=            -57.8081   ZZ=            -54.1981
   XY=              2.7368   XZ=              0.5090   YZ=              3.2446

  Exact polarizability:  92.368  -2.094  74.846   1.653  -0.198  63.632
 Approx polarizability: 124.039  -9.963 117.796   1.883  -6.751 100.365

                      1                      2                      3
                      A                      A                      A
 Frequencies --    105.3398               165.1380               182.1107
 Red. masses --      3.7670                 3.0703                 1.6738
 Frc consts  --      0.0246                 0.0493                 0.0327
 IR Inten    --      9.5299                 0.6752                 7.2457

                      4                      5                      6
                      A                      A                      A
 Frequencies --    202.2609               226.9170               234.7183
 Red. masses --      1.3187                 1.6856                 1.6616
 Frc consts  --      0.0318                 0.0511                 0.0539
 IR Inten    --      1.3808                 2.1601                 8.6527

                      7                      8                      9
                      A                      A                      A
 Frequencies --    256.6120               316.7539               353.4822
 Red. masses --      2.3530                 1.5793                 3.1863
 Frc consts  --      0.0913                 0.0934                 0.2346
 IR Inten    --     21.2440                67.7664                 2.6915

                     10                     11                     12
                      A                      A                      A
 Frequencies --    401.4574               464.1728               510.5295
 Red. masses --      3.0805                 3.6042                 3.7930
 Frc consts  --      0.2925                 0.4575                 0.5825
 IR Inten    --      2.4218                 1.8703                 3.7335

                     13                     14                     15
                      A                      A                      A
 Frequencies --    653.4175               691.6264               751.1833
 Red. masses --      4.0305                 3.9895                 3.0542
 Frc consts  --      1.0139                 1.1244                 1.0154
 IR Inten    --      4.4422                 0.9295                16.7497

                     16                     17                     18
                      A                      A                      A
 Frequencies --    778.2783               876.2146               879.1229
 Red. masses --      4.0998                 2.1942                 1.6252
 Frc consts  --      1.4631                 0.9926                 0.7401
 IR Inten    --     23.5718                 7.2206                 8.7195

                     19                     20                     21
                      A                      A                      A
 Frequencies --    927.3396               963.0943               969.0513
 Red. masses --      2.4328                 1.8229                 1.8080
 Frc consts  --      1.2326                 0.9962                 1.0003
 IR Inten    --     11.3422                10.1642                32.0726

                     22                     23                     24
                      A                      A                      A
 Frequencies --    996.8579              1048.9206              1072.6927
 Red. masses --      1.6279                 1.2128                 1.9848
 Frc consts  --      0.9531                 0.7862                 1.3456
 IR Inten    --     21.5120                 1.7797                11.4031

                     25                     26                     27
                      A                      A                      A
 Frequencies --   1100.5087              1128.3907              1148.6977
 Red. masses --      1.6862                 1.7048                 1.6290
 Frc consts  --      1.2032                 1.2789                 1.2664
 IR Inten    --     13.2694                74.2969                 9.5570

                     28                     29                     30
                      A                      A                      A
 Frequencies --   1173.3613              1188.5288              1216.7315
 Red. masses --      3.4177                 2.0839                 2.6072
 Frc consts  --      2.7723                 1.7344                 2.2741
 IR Inten    --     44.9321                 2.0021                15.7351

                     31                     32                     33
                      A                      A                      A
 Frequencies --   1266.5141              1296.1218              1367.1241
 Red. masses --      1.8142                 1.8319                 1.6768
 Frc consts  --      1.7145                 1.8132                 1.8464
 IR Inten    --      6.1803                11.2473                25.4088

                     34                     35                     36
                      A                      A                      A
 Frequencies --   1403.5924              1416.0890              1421.5835
 Red. masses --      1.2901                 1.3031                 1.9743
 Frc consts  --      1.4975                 1.5396                 2.3507
 IR Inten    --     10.6582                 6.1263                 7.5113

                     37                     38                     39
                      A                      A                      A
 Frequencies --   1485.8407              1489.1956              1493.4155
 Red. masses --      1.0700                 1.0572                 1.0461
 Frc consts  --      1.3919                 1.3814                 1.3747
 IR Inten    --      3.8442                 1.6994                 2.1640

                     40                     41                     42
                      A                      A                      A
 Frequencies --   1501.9358              1863.9139              3035.7022
 Red. masses --      1.0734                12.3994                 1.0349
 Frc consts  --      1.4266                25.3806                 5.6193
 IR Inten    --      6.1873               330.0524                21.7441

                     43                     44                     45
                      A                      A                      A
 Frequencies --   3035.9587              3103.2113              3104.5713
 Red. masses --      1.0349                 1.1004                 1.1007
 Frc consts  --      5.6199                 6.2432                 6.2504
 IR Inten    --     21.2763                13.3739                14.8571

                     46                     47                     48
                      A                      A                      A
 Frequencies --   3105.6999              3115.1911              3131.0938
 Red. masses --      1.1003                 1.1018                 1.0905
 Frc consts  --      6.2526                 6.2999                 6.2988
 IR Inten    --     14.5021                12.9335                32.8316

                     49                     50                     51
                      A                      A                      A
 Frequencies --   3188.9631              3207.4537              3785.3243
 Red. masses --      1.0922                 1.0945                 1.0661
 Frc consts  --      6.5439                 6.6343                 8.9999
 IR Inten    --      7.2870                 2.6917                30.4288

 - Thermochemistry -
 -------------------
 Temperature   298.150 Kelvin.  Pressure   1.00000 Atm.
 Atom     1 has atomic number  6 and mass  12.00000

 Molecular mass:   126.06808 amu.
 Principal axes and moments of inertia in atomic units:
                           1         2         3
     Eigenvalues --   694.523111355.146581622.14792
           X            0.99953   0.02721   0.01396
           Y           -0.02830   0.99602   0.08457
           Z           -0.01160  -0.08493   0.99632
 This molecule is an asymmetric top.
 Rotational symmetry number  1.
 Warning -- assumption of classical behavior for rotation
           may cause significant error
 Rotational temperatures (Kelvin)      0.12471     0.06391     0.05339
 Rotational constants (GHZ):           2.59853     1.33177     1.11256
 Zero-point vibrational energy     411527.4 (Joules/Mol)
                                   98.35740 (Kcal/Mol)
 Warning -- explicit consideration of  12 degrees of freedom as
           vibrations may cause significant error
 Vibrational temperatures:    151.56   237.60   262.02   291.01   326.48
          (Kelvin)            337.71   369.21   455.74   508.58   577.61
                              667.84   734.54   940.12   995.09  1080.78
                             1119.77  1260.68  1264.86  1334.23  1385.68
                             1394.25  1434.25  1509.16  1543.36  1583.38
                             1623.50  1652.72  1688.20  1710.03  1750.60
                             1822.23  1864.83  1966.98  2019.45  2037.43
                             2045.34  2137.79  2142.62  2148.69  2160.95
                             2681.75  4367.69  4368.06  4464.82  4466.78
                             4468.40  4482.06  4504.94  4588.20  4614.80
                             5446.23

 Zero-point correction=                           0.156743 (Hartree/Particle)
 Thermal correction to Energy=                    0.166070
 Thermal correction to Enthalpy=                  0.167014
 Thermal correction to Gibbs Free Energy=         0.123178
 Sum of electronic and zero-point Energies=           -423.020778
 Sum of electronic and thermal Energies=              -423.011450
 Sum of electronic and thermal Enthalpies=            -423.010506
 Sum of electronic and thermal Free Energies=         -423.054342

                     E (Thermal)             CV                S
                      KCal/Mol        Cal/Mol-Kelvin    Cal/Mol-Kelvin
 Total                  104.211             35.094             92.260
 Electronic               0.000              0.000              0.000
 Translational            0.889              2.981             40.409
 Rotational               0.889              2.981             28.814
 Vibrational            102.433             29.133             23.038
 Vibration     1          0.605              1.945              3.353
 Vibration     2          0.624              1.885              2.490
 Vibration     3          0.630              1.864              2.307
 Vibration     4          0.639              1.837              2.112
 Vibration     5          0.651              1.800              1.903
 Vibration     6          0.655              1.788              1.843
 Vibration     7          0.666              1.752              1.685
 Vibration     8          0.704              1.642              1.327
 Vibration     9          0.730              1.568              1.151
 Vibration    10          0.767              1.467              0.957
 Vibration    11          0.822              1.330              0.754
 Vibration    12          0.866              1.227              0.632

 Optimization completed.
    -- Stationary point found.
 Normal termination of Gaussian 09 at Tue Jan 28 00:27:01 2020.
