 Gaussian 09, Revision D.01,
 Gaussian 09:  ES64L-G09RevD.01 24-Apr-2013

 -----------------------------
 # b3lyp 6-31G(2df,p) opt Freq
 -----------------------------

 -----
 titel
 -----
 Symbolic Z-matrix:
 Charge =  0 Multiplicity = 1

 SCF Done:  E(RB3LYP) =  -423.154824482     A.U. after   14 cycles
 Optimization completed.
    -- Stationary point found.
 Normal termination of Gaussian 09 at Tue Jan 28 08:13:10 2020.

 ----------------------------------------------------------------------
 #N Geom=AllCheck Guess=TCheck SCRF=Check GenChk RB3LYP/6-31G(2df,p) Fr
 eq
 ----------------------------------------------------------------------

 Structure from the checkpoint file:  "/scratch/puck/g09_e5fe6de6-4371-4562-83b6-9592336923d1/Gau-14284.chk"
 -----
 titel
 -----
 Charge =  0 Multiplicity = 1

                         Standard orientation:
 ---------------------------------------------------------------------
 Center     Atomic      Atomic             Coordinates (Angstroms)
 Number     Number       Type             X           Y           Z
 ---------------------------------------------------------------------
      1          8           0        2.465638   -1.434464    0.113331
      2          6           0        1.464698   -0.531954   -0.328764
      3          6           0        1.661371    0.862027    0.280476
      4          8           0        0.677371    1.774111   -0.173219
      5          6           0       -0.631605    1.380771    0.182451
      6          6           0       -1.003368    0.020622   -0.451462
      7          6           0        0.047647   -1.037087   -0.038626
      8          6           0       -2.357208   -0.373445   -0.083628
      9          6           0       -3.469008   -0.684581    0.251842
     10          1           0        2.335705   -1.583198    1.056796
     11          1           0        1.607386   -0.453914   -1.412966
     12          1           0        1.635490    0.781695    1.383568
     13          1           0        2.632888    1.271319   -0.007019
     14          1           0       -0.735263    1.308630    1.277949
     15          1           0       -1.302763    2.165657   -0.173835
     16          1           0       -0.953377    0.150441   -1.541131
     17          1           0       -0.052224   -1.227412    1.039828
     18          1           0       -0.132606   -1.986104   -0.551258
     19          1           0       -4.454462   -0.962413    0.533440
 ---------------------------------------------------------------------

 SCF Done:  E(RB3LYP) =  -423.154824482     A.U. after    1 cycles

 The electronic state is 1-A.
 Alpha  occ. eigenvalues --  -19.14784 -19.14347 -10.23641 -10.23586 -10.22970
 Alpha  occ. eigenvalues --  -10.21777 -10.19379 -10.18461 -10.17596  -1.04450
 Alpha  occ. eigenvalues --   -1.02402  -0.82360  -0.76670  -0.73189  -0.65886
 Alpha  occ. eigenvalues --   -0.64745  -0.59315  -0.53601  -0.51173  -0.49344
 Alpha  occ. eigenvalues --   -0.48252  -0.46136  -0.45168  -0.44466  -0.39263
 Alpha  occ. eigenvalues --   -0.38921  -0.37737  -0.36146  -0.33447  -0.32173
 Alpha  occ. eigenvalues --   -0.29329  -0.27159  -0.26459  -0.24835
 Alpha virt. eigenvalues --    0.04860   0.05225   0.06835   0.08731   0.09998
 Alpha virt. eigenvalues --    0.12561   0.13410   0.14492   0.15198   0.16375
 Alpha virt. eigenvalues --    0.17028   0.17806   0.18632   0.21263   0.23627

 Mulliken charges:
               1
     1  O   -0.429801
     2  C    0.104342
     3  C   -0.099982
     4  O   -0.241687
     5  C   -0.078943
     6  C   -0.197404
     7  C   -0.233259
     8  C    0.299167
     9  C   -0.434946
    10  H    0.279665
    11  H    0.100285
    12  H    0.073351
    13  H    0.117806
    14  H    0.095273
    15  H    0.120966
    16  H    0.115141
    17  H    0.095764
    18  H    0.118583
    19  H    0.195681
 Sum of Mulliken charges =   0.00000

 Dipole moment (field-independent basis, Debye):
    X=             -0.7604    Y=             -0.4274    Z=              1.2128  Tot=              1.4939
 Quadrupole moment (field-independent basis, Debye-Ang):
   XX=            -53.6011   YY=            -57.2386   ZZ=            -50.6173
   XY=              1.4999   XZ=              1.7205   YZ=             -1.4626

  Exact polarizability: 102.542   4.483  67.614  -3.607  -1.707  62.299
 Approx polarizability: 140.691   8.494  96.493 -10.779  -6.146 100.017

                      1                      2                      3
                      A                      A                      A
 Frequencies --    108.1946               131.0968               164.6025
 Red. masses --      3.1611                 3.9763                 2.7706
 Frc consts  --      0.0218                 0.0403                 0.0442
 IR Inten    --      1.1580                 0.0828                 1.4724

                      4                      5                      6
                      A                      A                      A
 Frequencies --    253.6671               286.7963               342.1213
 Red. masses --      2.7874                 1.1693                 4.4021
 Frc consts  --      0.1057                 0.0567                 0.3036
 IR Inten    --      6.0946                55.8971                33.7861

                      7                      8                      9
                      A                      A                      A
 Frequencies --    347.9880               394.1654               426.4641
 Red. masses --      2.9597                 5.1725                 4.0031
 Frc consts  --      0.2112                 0.4735                 0.4290
 IR Inten    --     25.2786                 1.1286                 2.7312

                     10                     11                     12
                      A                      A                      A
 Frequencies --    461.6161               506.0290               541.5037
 Red. masses --      2.0703                 4.5325                 3.9299
 Frc consts  --      0.2599                 0.6838                 0.6789
 IR Inten    --      2.8305                 3.9968                 0.5825

                     13                     14                     15
                      A                      A                      A
 Frequencies --    568.6788               633.8314               644.9594
 Red. masses --      3.6286                 1.2122                 1.2422
 Frc consts  --      0.6914                 0.2869                 0.3044
 IR Inten    --      2.9787                41.7406                41.9032

                     16                     17                     18
                      A                      A                      A
 Frequencies --    866.9848               871.9542               927.2449
 Red. masses --      1.6900                 2.3485                 2.5212
 Frc consts  --      0.7485                 1.0520                 1.2772
 IR Inten    --      9.5639                 4.1339                10.4121

                     19                     20                     21
                      A                      A                      A
 Frequencies --    963.8085               974.1903              1016.9648
 Red. masses --      3.6953                 1.4348                 3.1108
 Frc consts  --      2.0225                 0.8023                 1.8956
 IR Inten    --     23.7340                 3.1291                 6.2796

                     22                     23                     24
                      A                      A                      A
 Frequencies --   1074.8432              1089.3774              1126.2773
 Red. masses --      3.0246                 2.9471                 2.9606
 Frc consts  --      2.0588                 2.0606                 2.2127
 IR Inten    --     77.9753                47.4832                24.0740

                     25                     26                     27
                      A                      A                      A
 Frequencies --   1134.0804              1162.8863              1190.0326
 Red. masses --      3.2553                 2.5491                 1.5904
 Frc consts  --      2.4668                 2.0310                 1.3270
 IR Inten    --     75.3931                 6.2422                39.3816

                     28                     29                     30
                      A                      A                      A
 Frequencies --   1229.7814              1285.6438              1297.8862
 Red. masses --      1.2399                 1.2315                 1.3381
 Frc consts  --      1.1048                 1.1993                 1.3280
 IR Inten    --      3.4635                 1.0076                 4.7952

                     31                     32                     33
                      A                      A                      A
 Frequencies --   1315.5090              1328.7508              1347.3313
 Red. masses --      1.3123                 1.2638                 1.2415
 Frc consts  --      1.3381                 1.3146                 1.3278
 IR Inten    --     16.9015                 4.0676                 5.6740

                     34                     35                     36
                      A                      A                      A
 Frequencies --   1371.4263              1394.9209              1411.3851
 Red. masses --      1.3732                 1.3588                 1.3426
 Frc consts  --      1.5217                 1.5577                 1.5758
 IR Inten    --      6.8956                15.4198                15.5893

                     37                     38                     39
                      A                      A                      A
 Frequencies --   1424.6831              1486.4282              1490.6585
 Red. masses --      1.2978                 1.0928                 1.0868
 Frc consts  --      1.5520                 1.4226                 1.4228
 IR Inten    --     39.6921                 2.0775                 0.4997

                     40                     41                     42
                      A                      A                      A
 Frequencies --   1503.3533              2235.8041              2934.1967
 Red. masses --      1.0986                 5.9415                 1.0711
 Frc consts  --      1.4629                17.4990                 5.4330
 IR Inten    --      7.6896                 3.6535                50.4247

                     43                     44                     45
                      A                      A                      A
 Frequencies --   2971.9834              3007.8195              3021.3480
 Red. masses --      1.0701                 1.0709                 1.0785
 Frc consts  --      5.5687                 5.7081                 5.8004
 IR Inten    --     38.7740                 6.7842                24.2105

                     46                     47                     48
                      A                      A                      A
 Frequencies --   3050.4725              3092.0180              3101.6328
 Red. masses --      1.0833                 1.0954                 1.0913
 Frc consts  --      5.9392                 6.1703                 6.1857
 IR Inten    --     31.0443                24.8386                33.2789

                     49                     50                     51
                      A                      A                      A
 Frequencies --   3104.8438              3504.2147              3796.3634
 Red. masses --      1.0946                 1.1619                 1.0658
 Frc consts  --      6.2173                 8.4062                 9.0506
 IR Inten    --     22.6155                73.0995                13.4025

 - Thermochemistry -
 -------------------
 Temperature   298.150 Kelvin.  Pressure   1.00000 Atm.
 Atom     1 has atomic number  8 and mass  15.99491

 Molecular mass:   126.06808 amu.
 Principal axes and moments of inertia in atomic units:
                           1         2         3
     Eigenvalues --   621.240471606.376032103.11946
           X            0.99999   0.00312   0.00203
           Y           -0.00313   0.99999   0.00287
           Z           -0.00203  -0.00288   0.99999
 This molecule is an asymmetric top.
 Rotational symmetry number  1.
 Warning -- assumption of classical behavior for rotation
           may cause significant error
 Rotational temperatures (Kelvin)      0.13942     0.05392     0.04118
 Rotational constants (GHZ):           2.90506     1.12349     0.85813
 Zero-point vibrational energy     418207.4 (Joules/Mol)
                                   99.95396 (Kcal/Mol)
 Warning -- explicit consideration of  13 degrees of freedom as
           vibrations may cause significant error
 Vibrational temperatures:    155.67   188.62   236.83   364.97   412.64
          (Kelvin)            492.24   500.68   567.12   613.59   664.16
                              728.06   779.10   818.20   911.94   927.95
                             1247.40  1254.55  1334.10  1386.70  1401.64
                             1463.18  1546.46  1567.37  1620.46  1631.69
                             1673.13  1712.19  1769.38  1849.75  1867.37
                             1892.72  1911.77  1938.51  1973.17  2006.98
                             2030.67  2049.80  2138.64  2144.72  2162.99
                             3216.82  4221.65  4276.02  4327.58  4347.04
                             4388.94  4448.72  4462.55  4467.17  5041.78
                             5462.11

 Zero-point correction=                           0.159287 (Hartree/Particle)
 Thermal correction to Energy=                    0.168046
 Thermal correction to Enthalpy=                  0.168990
 Thermal correction to Gibbs Free Energy=         0.126089
 Sum of electronic and zero-point Energies=           -422.995538
 Sum of electronic and thermal Energies=              -422.986778
 Sum of electronic and thermal Enthalpies=            -422.985834
 Sum of electronic and thermal Free Energies=         -423.028735

                     E (Thermal)             CV                S
                      KCal/Mol        Cal/Mol-Kelvin    Cal/Mol-Kelvin
 Total                  105.450             33.791             90.293
 Electronic               0.000              0.000              0.000
 Translational            0.889              2.981             40.409
 Rotational               0.889              2.981             29.130
 Vibrational            103.673             27.829             20.754
 Vibration     1          0.606              1.943              3.301
 Vibration     2          0.612              1.922              2.930
 Vibration     3          0.623              1.886              2.496
 Vibration     4          0.665              1.757              1.705
 Vibration     5          0.684              1.698              1.493
 Vibration     6          0.721              1.591              1.202
 Vibration     7          0.726              1.579              1.175
 Vibration     8          0.761              1.483              0.984
 Vibration     9          0.788              1.413              0.870
 Vibration    10          0.819              1.335              0.761
 Vibration    11          0.861              1.237              0.643
 Vibration    12          0.897              1.158              0.562
 Vibration    13          0.925              1.099              0.507

 Normal termination of Gaussian 09 at Tue Jan 28 08:54:32 2020.
