 Gaussian 09, Revision D.01,
 Gaussian 09:  ES64L-G09RevD.01 24-Apr-2013

 -----------------------------
 # b3lyp 6-31G(2df,p) opt Freq
 -----------------------------

 -----
 titel
 -----
 Symbolic Z-matrix:
 Charge =  0 Multiplicity = 1

 SCF Done:  E(RB3LYP) =  -423.164517644     A.U. after   13 cycles
 Optimization completed.
    -- Stationary point found.
 Normal termination of Gaussian 09 at Mon Jan 27 23:05:31 2020.

 ----------------------------------------------------------------------
 #N Geom=AllCheck Guess=TCheck SCRF=Check GenChk RB3LYP/6-31G(2df,p) Fr
 eq
 ----------------------------------------------------------------------

 Structure from the checkpoint file:  "/scratch/puck/g09_2397a7f3-0191-4f1f-a2a4-497f387de6a9/Gau-103074.chk"
 -----
 titel
 -----
 Charge =  0 Multiplicity = 1

                         Standard orientation:
 ---------------------------------------------------------------------
 Center     Atomic      Atomic             Coordinates (Angstroms)
 Number     Number       Type             X           Y           Z
 ---------------------------------------------------------------------
      1          6           0        2.426684   -0.320380   -0.361927
      2          6           0        0.946727   -0.270229   -0.115493
      3          8           0        0.494391   -0.781539    1.159117
      4          6           0        0.018709   -1.408031   -0.050345
      5          6           0       -1.372923   -0.980036   -0.468942
      6          6           0       -2.085843   -0.039787    0.470786
      7          6           0       -1.306156    0.517011   -0.694509
      8          6           0        0.145135    0.985677   -0.501710
      9          8           0        0.334867    2.038755    0.425993
     10          1           0        2.646351   -0.255383   -1.432880
     11          1           0        2.917117    0.524117    0.133989
     12          1           0        2.852750   -1.247422    0.029608
     13          1           0        0.336033   -2.439056   -0.183880
     14          1           0       -1.936141   -1.643693   -1.114011
     15          1           0       -3.166392    0.013205    0.394903
     16          1           0       -1.694548    0.054455    1.475804
     17          1           0       -1.873171    0.984555   -1.491159
     18          1           0        0.521107    1.372058   -1.455646
     19          1           0        0.128834    1.674086    1.295231
 ---------------------------------------------------------------------

 SCF Done:  E(RB3LYP) =  -423.164517644     A.U. after    1 cycles

 The electronic state is 1-A.
 Alpha  occ. eigenvalues --  -19.15134 -19.13203 -10.23805 -10.23597 -10.23421
 Alpha  occ. eigenvalues --  -10.19580 -10.18980 -10.18813 -10.18321  -1.07281
 Alpha  occ. eigenvalues --   -1.01286  -0.86738  -0.75884  -0.69744  -0.68379
 Alpha  occ. eigenvalues --   -0.58967  -0.57223  -0.56640  -0.52896  -0.48809
 Alpha  occ. eigenvalues --   -0.45864  -0.45097  -0.43048  -0.41413  -0.40729
 Alpha  occ. eigenvalues --   -0.38826  -0.37462  -0.36277  -0.34150  -0.31689
 Alpha  occ. eigenvalues --   -0.29940  -0.28739  -0.26069  -0.24849
 Alpha virt. eigenvalues --    0.07031   0.07938   0.08804   0.11578   0.12515
 Alpha virt. eigenvalues --    0.14725   0.15426   0.15908   0.16570   0.16836
 Alpha virt. eigenvalues --    0.17423   0.18521   0.19506   0.21627   0.22491

 Mulliken charges:
               1
     1  C   -0.492592
     2  C    0.369812
     3  O   -0.307283
     4  C   -0.039101
     5  C   -0.060047
     6  C   -0.296233
     7  C   -0.072282
     8  C    0.062301
     9  O   -0.437253
    10  H    0.122681
    11  H    0.139217
    12  H    0.128387
    13  H    0.094445
    14  H    0.086471
    15  H    0.110729
    16  H    0.126875
    17  H    0.088511
    18  H    0.086341
    19  H    0.289021
 Sum of Mulliken charges =   0.00000

 Dipole moment (field-independent basis, Debye):
    X=             -0.4051    Y=             -1.3907    Z=             -1.4414  Tot=              2.0435
 Quadrupole moment (field-independent basis, Debye-Ang):
   XX=            -50.0826   YY=            -56.4061   ZZ=            -52.1190
   XY=             -0.6936   XZ=             -0.6070   YZ=              1.8550

  Exact polarizability:  83.434   1.727  72.293  -1.628   0.002  64.141
 Approx polarizability: 107.411   5.227 110.178  -2.068  -0.536 106.240

                      1                      2                      3
                      A                      A                      A
 Frequencies --    123.5475               196.8107               219.5094
 Red. masses --      3.7955                 1.1637                 2.6926
 Frc consts  --      0.0341                 0.0266                 0.0764
 IR Inten    --      5.7266                 0.0545                 1.8330

                      4                      5                      6
                      A                      A                      A
 Frequencies --    230.9072               272.1024               362.9899
 Red. masses --      2.8186                 2.9281                 1.4962
 Frc consts  --      0.0885                 0.1277                 0.1162
 IR Inten    --      1.8930                 4.0386                35.7121

                      7                      8                      9
                      A                      A                      A
 Frequencies --    389.9695               463.7571               531.9321
 Red. masses --      2.1708                 3.0863                 5.2351
 Frc consts  --      0.1945                 0.3911                 0.8728
 IR Inten    --     36.2688                23.9455                10.8028

                     10                     11                     12
                      A                      A                      A
 Frequencies --    574.0205               633.0642               681.2392
 Red. masses --      3.9414                 2.8731                 4.4403
 Frc consts  --      0.7652                 0.6784                 1.2141
 IR Inten    --      5.3887                 0.4873                 3.5584

                     13                     14                     15
                      A                      A                      A
 Frequencies --    729.4587               784.3523               814.6036
 Red. masses --      4.1538                 2.0586                 1.6556
 Frc consts  --      1.3023                 0.7462                 0.6473
 IR Inten    --      6.0535                13.1577                 6.2683

                     16                     17                     18
                      A                      A                      A
 Frequencies --    840.5751               883.6087               935.2656
 Red. masses --      2.9731                 2.7712                 2.3352
 Frc consts  --      1.2377                 1.2748                 1.2035
 IR Inten    --      6.6087                26.4896                18.3684

                     19                     20                     21
                      A                      A                      A
 Frequencies --    948.9541               981.7994              1032.0856
 Red. masses --      2.9586                 1.9022                 2.2776
 Frc consts  --      1.5697                 1.0803                 1.4294
 IR Inten    --      3.0123                10.0705                 4.7699

                     22                     23                     24
                      A                      A                      A
 Frequencies --   1040.8032              1066.5329              1080.6852
 Red. masses --      1.4742                 1.7021                 1.3594
 Frc consts  --      0.9409                 1.1407                 0.9354
 IR Inten    --      6.7106                 2.4541                 9.8436

                     25                     26                     27
                      A                      A                      A
 Frequencies --   1090.4858              1103.9061              1112.4497
 Red. masses --      2.5548                 1.3490                 1.6496
 Frc consts  --      1.7900                 0.9686                 1.2028
 IR Inten    --     75.6543                17.8299                25.7811

                     28                     29                     30
                      A                      A                      A
 Frequencies --   1114.8304              1196.1013              1228.1503
 Red. masses --      1.4915                 1.6184                 1.7793
 Frc consts  --      1.0922                 1.3642                 1.5813
 IR Inten    --      3.8942                 5.4640                 5.8281

                     31                     32                     33
                      A                      A                      A
 Frequencies --   1280.9813              1292.4457              1319.4096
 Red. masses --      1.6437                 1.5123                 1.6661
 Frc consts  --      1.5891                 1.4884                 1.7088
 IR Inten    --     10.2592                 7.4875                 2.1079

                     34                     35                     36
                      A                      A                      A
 Frequencies --   1344.5058              1380.4059              1405.3581
 Red. masses --      1.6654                 1.9595                 1.2806
 Frc consts  --      1.7737                 2.2000                 1.4902
 IR Inten    --      2.5012                 0.9576                 4.6023

                     37                     38                     39
                      A                      A                      A
 Frequencies --   1431.8583              1451.8134              1479.3121
 Red. masses --      1.2910                 2.0564                 1.1501
 Frc consts  --      1.5595                 2.5538                 1.4829
 IR Inten    --     55.7646                12.8153                12.5118

                     40                     41                     42
                      A                      A                      A
 Frequencies --   1486.1264              1497.9947              3035.7733
 Red. masses --      1.2876                 1.2075                 1.0363
 Frc consts  --      1.6755                 1.5964                 5.6271
 IR Inten    --      2.8259                 1.2881                14.6307

                     43                     44                     45
                      A                      A                      A
 Frequencies --   3053.7117              3100.7898              3123.7993
 Red. masses --      1.0843                 1.1005                 1.1015
 Frc consts  --      5.9573                 6.2344                 6.3329
 IR Inten    --     29.1885                14.1328                12.6127

                     46                     47                     48
                      A                      A                      A
 Frequencies --   3142.0379              3146.9307              3171.7910
 Red. masses --      1.0549                 1.0903                 1.0897
 Frc consts  --      6.1358                 6.3617                 6.4590
 IR Inten    --     17.3007                21.3369                15.7917

                     49                     50                     51
                      A                      A                      A
 Frequencies --   3184.8863              3232.8218              3790.3354
 Red. masses --      1.0936                 1.1150                 1.0653
 Frc consts  --      6.5360                 6.8659                 9.0174
 IR Inten    --     17.4188                 4.8050                15.3525

 - Thermochemistry -
 -------------------
 Temperature   298.150 Kelvin.  Pressure   1.00000 Atm.
 Atom     1 has atomic number  6 and mass  12.00000

 Molecular mass:   126.06808 amu.
 Principal axes and moments of inertia in atomic units:
                           1         2         3
     Eigenvalues --   702.90130 997.185451329.09367
           X            0.99974  -0.01625  -0.01586
           Y            0.01650   0.99973   0.01608
           Z            0.01560  -0.01634   0.99974
 This molecule is an asymmetric top.
 Rotational symmetry number  1.
 Warning -- assumption of classical behavior for rotation
           may cause significant error
 Rotational temperatures (Kelvin)      0.12322     0.08686     0.06517
 Rotational constants (GHZ):           2.56756     1.80984     1.35787
 Zero-point vibrational energy     418798.2 (Joules/Mol)
                                  100.09516 (Kcal/Mol)
 Warning -- explicit consideration of  10 degrees of freedom as
           vibrations may cause significant error
 Vibrational temperatures:    177.76   283.17   315.82   332.22   391.49
          (Kelvin)            522.26   561.08   667.24   765.33   825.89
                              910.84   980.15  1049.53  1128.51  1172.03
                             1209.40  1271.31  1345.64  1365.33  1412.59
                             1484.94  1497.48  1534.50  1554.86  1568.96
                             1588.27  1600.57  1603.99  1720.92  1767.03
                             1843.04  1859.54  1898.33  1934.44  1986.09
                             2021.99  2060.12  2088.83  2128.40  2138.20
                             2155.28  4367.80  4393.60  4461.34  4494.44
                             4520.69  4527.73  4563.49  4582.34  4651.30
                             5453.44

 Zero-point correction=                           0.159512 (Hartree/Particle)
 Thermal correction to Energy=                    0.167511
 Thermal correction to Enthalpy=                  0.168455
 Thermal correction to Gibbs Free Energy=         0.127493
 Sum of electronic and zero-point Energies=           -423.005006
 Sum of electronic and thermal Energies=              -422.997007
 Sum of electronic and thermal Enthalpies=            -422.996063
 Sum of electronic and thermal Free Energies=         -423.037025

                     E (Thermal)             CV                S
                      KCal/Mol        Cal/Mol-Kelvin    Cal/Mol-Kelvin
 Total                  105.114             31.998             86.211
 Electronic               0.000              0.000              0.000
 Translational            0.889              2.981             40.409
 Rotational               0.889              2.981             28.323
 Vibrational            103.337             26.037             17.479
 Vibration     1          0.610              1.929              3.044
 Vibration     2          0.636              1.844              2.163
 Vibration     3          0.647              1.811              1.963
 Vibration     4          0.653              1.794              1.872
 Vibration     5          0.675              1.725              1.583
 Vibration     6          0.737              1.548              1.109
 Vibration     7          0.758              1.492              1.000
 Vibration     8          0.821              1.330              0.755
 Vibration     9          0.887              1.179              0.583
 Vibration    10          0.930              1.087              0.497

 Optimization completed.
    -- Stationary point found.
 Normal termination of Gaussian 09 at Mon Jan 27 23:51:47 2020.
