 Gaussian 09, Revision D.01,
 Gaussian 09:  ES64L-G09RevD.01 24-Apr-2013

 -----------------------------
 # b3lyp 6-31G(2df,p) opt Freq
 -----------------------------

 -----
 titel
 -----
 Symbolic Z-matrix:
 Charge =  0 Multiplicity = 1

 SCF Done:  E(RB3LYP) =  -423.167526526     A.U. after   14 cycles
 Optimization completed.
    -- Stationary point found.
 Normal termination of Gaussian 09 at Mon Jan 27 15:56:24 2020.

 ----------------------------------------------------------------------
 #N Geom=AllCheck Guess=TCheck SCRF=Check GenChk RB3LYP/6-31G(2df,p) Fr
 eq
 ----------------------------------------------------------------------

 Structure from the checkpoint file:  "/scratch/puck/g09_d2dc9ae8-ca51-4bb5-a51e-a9aecbc4a473/Gau-35141.chk"
 -----
 titel
 -----
 Charge =  0 Multiplicity = 1

                         Standard orientation:
 ---------------------------------------------------------------------
 Center     Atomic      Atomic             Coordinates (Angstroms)
 Number     Number       Type             X           Y           Z
 ---------------------------------------------------------------------
      1          6           0       -2.194417   -0.849953    1.182196
      2          6           0       -1.840664   -0.486695   -0.247768
      3          8           0       -2.689037   -0.298094   -1.088605
      4          6           0       -0.358252   -0.360567   -0.590430
      5          6           0        0.387454    0.632636    0.309880
      6          8           0       -0.294854    1.875970    0.390999
      7          6           0        1.850559    0.853192   -0.142333
      8          6           0        2.667998   -0.349086   -0.060912
      9          6           0        3.314796   -1.358788    0.025821
     10          1           0       -3.248081   -1.125224    1.239868
     11          1           0       -1.568178   -1.665093    1.559252
     12          1           0       -2.019200    0.021996    1.822651
     13          1           0        0.120937   -1.343681   -0.506432
     14          1           0       -0.291856   -0.048016   -1.639144
     15          1           0        0.407760    0.254861    1.337517
     16          1           0       -0.519917    2.157934   -0.503291
     17          1           0        1.850474    1.238371   -1.171347
     18          1           0        2.274328    1.643573    0.487541
     19          1           0        3.900016   -2.242157    0.095515
 ---------------------------------------------------------------------

 SCF Done:  E(RB3LYP) =  -423.167526526     A.U. after    1 cycles

 The electronic state is 1-A.
 Alpha  occ. eigenvalues --  -19.15248 -19.12740 -10.27142 -10.25515 -10.21644
 Alpha  occ. eigenvalues --  -10.19468 -10.19100 -10.18710 -10.18038  -1.04070
 Alpha  occ. eigenvalues --   -1.03365  -0.81475  -0.77086  -0.73162  -0.70595
 Alpha  occ. eigenvalues --   -0.63253  -0.54467  -0.53672  -0.49708  -0.49014
 Alpha  occ. eigenvalues --   -0.47208  -0.45494  -0.44668  -0.43213  -0.41736
 Alpha  occ. eigenvalues --   -0.40715  -0.38156  -0.37452  -0.35469  -0.33473
 Alpha  occ. eigenvalues --   -0.30110  -0.27325  -0.26787  -0.24337
 Alpha virt. eigenvalues --   -0.01168   0.04316   0.04769   0.06712   0.09485
 Alpha virt. eigenvalues --    0.11749   0.12244   0.13081   0.14037   0.15813
 Alpha virt. eigenvalues --    0.16909   0.18007   0.18384   0.19728   0.21323

 Mulliken charges:
               1
     1  C   -0.483493
     2  C    0.393812
     3  O   -0.300510
     4  C   -0.327017
     5  C    0.116144
     6  O   -0.425027
     7  C   -0.372773
     8  C    0.299838
     9  C   -0.447022
    10  H    0.141399
    11  H    0.130875
    12  H    0.161348
    13  H    0.135951
    14  H    0.111129
    15  H    0.107033
    16  H    0.289278
    17  H    0.124964
    18  H    0.143649
    19  H    0.200423
 Sum of Mulliken charges =   0.00000

 Dipole moment (field-independent basis, Debye):
    X=              1.9047    Y=             -0.5114    Z=              0.7044  Tot=              2.0942
 Quadrupole moment (field-independent basis, Debye-Ang):
   XX=            -60.3442   YY=            -49.7956   ZZ=            -54.3539
   XY=             -1.1892   XZ=             -4.7689   YZ=             -4.2588

  Exact polarizability:  90.977 -10.452  76.446   1.922  -3.800  65.449
 Approx polarizability: 118.543 -23.809 122.629  10.094  -6.503 101.889

                      1                      2                      3
                      A                      A                      A
 Frequencies --     37.7425                58.7555                89.1606
 Red. masses --      4.3972                 3.5572                 3.9403
 Frc consts  --      0.0037                 0.0072                 0.0185
 IR Inten    --      6.3466                 2.0878                 1.6719

                      4                      5                      6
                      A                      A                      A
 Frequencies --    143.3827               147.5156               169.3247
 Red. masses --      2.0659                 3.2654                 1.4817
 Frc consts  --      0.0250                 0.0419                 0.0250
 IR Inten    --      0.7452                 0.0461                 1.2987

                      7                      8                      9
                      A                      A                      A
 Frequencies --    292.5237               302.3816               358.0650
 Red. masses --      2.9777                 1.1992                 2.7931
 Frc consts  --      0.1501                 0.0646                 0.2110
 IR Inten    --      5.1132                95.4523                 3.9621

                     10                     11                     12
                      A                      A                      A
 Frequencies --    377.5159               422.2755               444.2987
 Red. masses --      3.0860                 3.8642                 2.4340
 Frc consts  --      0.2591                 0.4060                 0.2831
 IR Inten    --     13.4534                 6.2600                 7.2332

                     13                     14                     15
                      A                      A                      A
 Frequencies --    514.1132               533.2331               584.4442
 Red. masses --      3.4046                 3.9571                 2.6884
 Frc consts  --      0.5302                 0.6629                 0.5410
 IR Inten    --      1.2338                21.7637                 2.6387

                     16                     17                     18
                      A                      A                      A
 Frequencies --    629.9597               653.7940               775.9643
 Red. masses --      1.2139                 1.2294                 2.9867
 Frc consts  --      0.2838                 0.3096                 1.0596
 IR Inten    --     43.6012                44.4112                 2.2403

                     19                     20                     21
                      A                      A                      A
 Frequencies --    844.1271               890.0081               948.9073
 Red. masses --      2.1517                 1.6721                 1.7917
 Frc consts  --      0.9033                 0.7804                 0.9505
 IR Inten    --      3.2033                 0.0578                16.5302

                     22                     23                     24
                      A                      A                      A
 Frequencies --    972.9330              1000.0607              1048.2873
 Red. masses --      3.6260                 2.0569                 1.9772
 Frc consts  --      2.0223                 1.2120                 1.2801
 IR Inten    --      4.8318                 9.6402                15.3704

                     25                     26                     27
                      A                      A                      A
 Frequencies --   1083.2113              1108.0734              1154.0222
 Red. masses --      2.7982                 3.1152                 1.3721
 Frc consts  --      1.9345                 2.2536                 1.0766
 IR Inten    --     33.7356                62.9627                16.3201

                     28                     29                     30
                      A                      A                      A
 Frequencies --   1197.9713              1243.7023              1282.5407
 Red. masses --      1.1974                 2.1132                 1.3739
 Frc consts  --      1.0125                 1.9258                 1.3315
 IR Inten    --      3.4115                82.9256                19.1170

                     31                     32                     33
                      A                      A                      A
 Frequencies --   1304.6093              1354.2533              1375.7716
 Red. masses --      1.4514                 1.4344                 1.3615
 Frc consts  --      1.4554                 1.5500                 1.5183
 IR Inten    --     17.9061                11.8413                10.0718

                     34                     35                     36
                      A                      A                      A
 Frequencies --   1379.9677              1423.3943              1462.9203
 Red. masses --      1.3391                 1.2110                 1.0841
 Frc consts  --      1.5025                 1.4456                 1.3670
 IR Inten    --     47.7591                45.4553                 4.2666

                     37                     38                     39
                      A                      A                      A
 Frequencies --   1468.1655              1470.2649              1481.2434
 Red. masses --      1.0625                 1.0884                 1.0521
 Frc consts  --      1.3493                 1.3863                 1.3601
 IR Inten    --     10.3753                 4.2719                 8.0795

                     40                     41                     42
                      A                      A                      A
 Frequencies --   1813.8747              2237.3492              3016.1801
 Red. masses --     10.6397                 5.9322                 1.0639
 Frc consts  --     20.6250                17.4958                 5.7026
 IR Inten    --    169.4070                 1.5939                13.2786

                     43                     44                     45
                      A                      A                      A
 Frequencies --   3032.8881              3039.5726              3056.9105
 Red. masses --      1.0569                 1.0383                 1.0856
 Frc consts  --      5.7277                 5.6520                 5.9770
 IR Inten    --      5.6516                 1.1175                 7.1738

                     46                     47                     48
                      A                      A                      A
 Frequencies --   3070.1905              3087.7795              3103.6938
 Red. masses --      1.0970                 1.1011                 1.0986
 Frc consts  --      6.0925                 6.1857                 6.2351
 IR Inten    --     10.7006                25.0724                 6.7163

                     49                     50                     51
                      A                      A                      A
 Frequencies --   3152.0892              3505.1952              3795.0643
 Red. masses --      1.1020                 1.1622                 1.0661
 Frc consts  --      6.4513                 8.4129                 9.0465
 IR Inten    --     10.4487                68.1079                23.8244

 - Thermochemistry -
 -------------------
 Temperature   298.150 Kelvin.  Pressure   1.00000 Atm.
 Atom     1 has atomic number  6 and mass  12.00000

 Molecular mass:   126.06808 amu.
 Principal axes and moments of inertia in atomic units:
                           1         2         3
     Eigenvalues --   664.904202060.905752311.88216
           X            0.99977   0.00423  -0.02091
           Y           -0.00567   0.99761  -0.06886
           Z            0.02057   0.06896   0.99741
 This molecule is an asymmetric top.
 Rotational symmetry number  1.
 Warning -- assumption of classical behavior for rotation
           may cause significant error
 Rotational temperatures (Kelvin)      0.13027     0.04203     0.03746
 Rotational constants (GHZ):           2.71429     0.87570     0.78064
 Zero-point vibrational energy     406369.5 (Joules/Mol)
                                   97.12464 (Kcal/Mol)
 Warning -- explicit consideration of  15 degrees of freedom as
           vibrations may cause significant error
 Vibrational temperatures:     54.30    84.54   128.28   206.30   212.24
          (Kelvin)            243.62   420.88   435.06   515.18   543.16
                              607.56   639.25   739.69   767.20   840.88
                              906.37   940.66  1116.44  1214.51  1280.52
                             1365.26  1399.83  1438.86  1508.25  1558.50
                             1594.27  1660.38  1723.61  1789.41  1845.29
                             1877.04  1948.47  1979.43  1985.46  2047.94
                             2104.81  2112.36  2115.38  2131.18  2609.76
                             3219.04  4339.61  4363.64  4373.26  4398.21
                             4417.31  4442.62  4465.52  4535.15  5043.19
                             5460.24

 Zero-point correction=                           0.154778 (Hartree/Particle)
 Thermal correction to Energy=                    0.165447
 Thermal correction to Enthalpy=                  0.166391
 Thermal correction to Gibbs Free Energy=         0.117940
 Sum of electronic and zero-point Energies=           -423.012749
 Sum of electronic and thermal Energies=              -423.002080
 Sum of electronic and thermal Enthalpies=            -423.001136
 Sum of electronic and thermal Free Energies=         -423.049586

                     E (Thermal)             CV                S
                      KCal/Mol        Cal/Mol-Kelvin    Cal/Mol-Kelvin
 Total                  103.819             37.785            101.973
 Electronic               0.000              0.000              0.000
 Translational            0.889              2.981             40.409
 Rotational               0.889              2.981             29.539
 Vibrational            102.042             31.824             32.025
 Vibration     1          0.594              1.982              5.374
 Vibration     2          0.596              1.974              4.499
 Vibration     3          0.602              1.957              3.678
 Vibration     4          0.616              1.910              2.758
 Vibration     5          0.617              1.905              2.704
 Vibration     6          0.625              1.880              2.443
 Vibration     7          0.688              1.688              1.459
 Vibration     8          0.694              1.669              1.404
 Vibration     9          0.733              1.559              1.130
 Vibration    10          0.748              1.518              1.049
 Vibration    11          0.785              1.422              0.884
 Vibration    12          0.804              1.373              0.813
 Vibration    13          0.869              1.219              0.624
 Vibration    14          0.888              1.176              0.580
 Vibration    15          0.941              1.065              0.477

 Optimization completed.
    -- Stationary point found.
 Normal termination of Gaussian 09 at Mon Jan 27 16:49:07 2020.
