 Gaussian 09, Revision D.01,
 Gaussian 09:  ES64L-G09RevD.01 24-Apr-2013

 -----------------------------
 # b3lyp 6-31G(2df,p) opt Freq
 -----------------------------

 -----
 titel
 -----
 Symbolic Z-matrix:
 Charge =  0 Multiplicity = 1

 SCF Done:  E(RB3LYP) =  -423.216168875     A.U. after   14 cycles
 Optimization completed.
    -- Stationary point found.
 Normal termination of Gaussian 09 at Tue Jan 28 12:40:05 2020.

 ----------------------------------------------------------------------
 #N Geom=AllCheck Guess=TCheck SCRF=Check GenChk RB3LYP/6-31G(2df,p) Fr
 eq
 ----------------------------------------------------------------------

 Structure from the checkpoint file:  "/scratch/puck/g09_0455f5ce-9b41-4312-be7c-3424484405a5/Gau-29193.chk"
 -----
 titel
 -----
 Charge =  0 Multiplicity = 1

                         Standard orientation:
 ---------------------------------------------------------------------
 Center     Atomic      Atomic             Coordinates (Angstroms)
 Number     Number       Type             X           Y           Z
 ---------------------------------------------------------------------
      1          6           0       -0.026476    1.911429   -0.333522
      2          6           0        0.279198    0.629668    0.462183
      3          6           0        1.673774    0.076526    0.106198
      4          8           0        2.700099    0.702889    0.141645
      5          6           0        1.528675   -1.391777   -0.325059
      6          6           0        0.050423   -1.630642   -0.209038
      7          6           0       -0.628839   -0.558970    0.216956
      8          6           0       -2.106536   -0.524922    0.475388
      9          8           0       -2.801915    0.430041   -0.323875
     10          1           0       -0.045135    1.706778   -1.409372
     11          1           0       -0.997897    2.321124   -0.053497
     12          1           0        0.755338    2.651379   -0.142869
     13          1           0        0.285604    0.892184    1.531169
     14          1           0        1.927985   -1.529158   -1.338212
     15          1           0        2.131373   -2.037839    0.326942
     16          1           0       -0.405356   -2.591657   -0.425651
     17          1           0       -2.525690   -1.534393    0.345698
     18          1           0       -2.303365   -0.221075    1.510841
     19          1           0       -2.629643    0.211344   -1.245834
 ---------------------------------------------------------------------

 SCF Done:  E(RB3LYP) =  -423.216168875     A.U. after    1 cycles

 The electronic state is 1-A.
 Alpha  occ. eigenvalues --  -19.14372 -19.13197 -10.26862 -10.23815 -10.19878
 Alpha  occ. eigenvalues --  -10.19772 -10.19600 -10.19515 -10.17819  -1.04283
 Alpha  occ. eigenvalues --   -1.02281  -0.85504  -0.75822  -0.73528  -0.65644
 Alpha  occ. eigenvalues --   -0.64804  -0.54597  -0.53504  -0.51234  -0.46745
 Alpha  occ. eigenvalues --   -0.46539  -0.43919  -0.43245  -0.42190  -0.40983
 Alpha  occ. eigenvalues --   -0.40207  -0.38335  -0.37148  -0.35399  -0.34306
 Alpha  occ. eigenvalues --   -0.33384  -0.28079  -0.25575  -0.23953
 Alpha virt. eigenvalues --   -0.01823   0.00015   0.08234   0.10546   0.11846
 Alpha virt. eigenvalues --    0.12690   0.14423   0.15487   0.15930   0.16287
 Alpha virt. eigenvalues --    0.17929   0.18458   0.19478   0.20723   0.22453

 Mulliken charges:
               1
     1  C   -0.393984
     2  C   -0.197988
     3  C    0.395386
     4  O   -0.310832
     5  C   -0.373235
     6  C   -0.184072
     7  C    0.287428
     8  C   -0.171091
     9  O   -0.405277
    10  H    0.107426
    11  H    0.138475
    12  H    0.133657
    13  H    0.106892
    14  H    0.138402
    15  H    0.138719
    16  H    0.097504
    17  H    0.094174
    18  H    0.115757
    19  H    0.282658
 Sum of Mulliken charges =   0.00000

 Dipole moment (field-independent basis, Debye):
    X=             -1.4164    Y=             -2.2289    Z=             -0.6092  Tot=              2.7102
 Quadrupole moment (field-independent basis, Debye-Ang):
   XX=            -65.2083   YY=            -51.8657   ZZ=            -49.2936
   XY=             -1.4717   XZ=              0.7715   YZ=              0.6194

  Exact polarizability:  88.964  -4.411  84.762  -3.228   4.282  59.990
 Approx polarizability: 125.492  -8.777 126.606  -5.795  10.308  95.330

                      1                      2                      3
                      A                      A                      A
 Frequencies --     41.6597                80.1238               170.5823
 Red. masses --      4.4801                 2.9302                 3.6776
 Frc consts  --      0.0046                 0.0111                 0.0630
 IR Inten    --      5.4853                 0.0571                 0.5186

                      4                      5                      6
                      A                      A                      A
 Frequencies --    227.7260               245.2975               258.4280
 Red. masses --      1.3119                 1.9606                 2.2679
 Frc consts  --      0.0401                 0.0695                 0.0892
 IR Inten    --      0.5950                 5.0457                 4.9540

                      7                      8                      9
                      A                      A                      A
 Frequencies --    276.7877               328.1749               384.9814
 Red. masses --      2.5530                 1.8605                 1.7815
 Frc consts  --      0.1152                 0.1181                 0.1556
 IR Inten    --     11.2393                40.3232                84.3958

                     10                     11                     12
                      A                      A                      A
 Frequencies --    484.7581               520.1525               600.1787
 Red. masses --      3.0829                 3.6089                 3.4469
 Frc consts  --      0.4268                 0.5753                 0.7315
 IR Inten    --      5.8147                 3.5951                 4.2530

                     13                     14                     15
                      A                      A                      A
 Frequencies --    621.9114               717.8257               748.5501
 Red. masses --      4.3420                 4.8660                 2.7225
 Frc consts  --      0.9894                 1.4773                 0.8988
 IR Inten    --      4.9503                10.1193                 3.8161

                     16                     17                     18
                      A                      A                      A
 Frequencies --    821.9123               833.7548               933.8777
 Red. masses --      2.2252                 1.4066                 1.6119
 Frc consts  --      0.8857                 0.5761                 0.8282
 IR Inten    --      7.7002                12.9417                 6.7597

                     19                     20                     21
                      A                      A                      A
 Frequencies --    956.1549               997.0220              1004.0072
 Red. masses --      1.6261                 2.0426                 2.3868
 Frc consts  --      0.8759                 1.1963                 1.4176
 IR Inten    --      4.3491                26.3935                29.8204

                     22                     23                     24
                      A                      A                      A
 Frequencies --   1056.2179              1073.1248              1086.5411
 Red. masses --      3.4924                 2.0401                 1.5596
 Frc consts  --      2.2955                 1.3842                 1.0848
 IR Inten    --     49.2948                15.6841                 3.4508

                     25                     26                     27
                      A                      A                      A
 Frequencies --   1143.5899              1154.2165              1181.7526
 Red. masses --      2.9063                 1.4301                 1.4651
 Frc consts  --      2.2394                 1.1225                 1.2055
 IR Inten    --     38.8295                 7.3118                14.9306

                     28                     29                     30
                      A                      A                      A
 Frequencies --   1207.3609              1275.2496              1288.2562
 Red. masses --      1.3616                 1.8619                 1.6692
 Frc consts  --      1.1694                 1.7840                 1.6322
 IR Inten    --      2.1745                 0.5271                11.1623

                     31                     32                     33
                      A                      A                      A
 Frequencies --   1300.2568              1345.5827              1376.2186
 Red. masses --      1.3970                 2.1665                 1.3320
 Frc consts  --      1.3915                 2.3112                 1.4864
 IR Inten    --      3.2557                 2.6140                 1.9399

                     34                     35                     36
                      A                      A                      A
 Frequencies --   1406.6489              1417.3483              1442.6390
 Red. masses --      1.2491                 1.2381                 1.0897
 Frc consts  --      1.4562                 1.4654                 1.3362
 IR Inten    --      3.7870                55.9919                 7.5039

                     37                     38                     39
                      A                      A                      A
 Frequencies --   1490.2783              1496.3616              1503.5109
 Red. masses --      1.0490                 1.0875                 1.0532
 Frc consts  --      1.3727                 1.4347                 1.4028
 IR Inten    --      9.2901                 1.5024                 3.2038

                     40                     41                     42
                      A                      A                      A
 Frequencies --   1701.3452              1849.8614              2986.9630
 Red. masses --      7.5113                12.7334                 1.0665
 Frc consts  --     12.8100                25.6728                 5.6063
 IR Inten    --      0.5809               190.3430                60.2466

                     43                     44                     45
                      A                      A                      A
 Frequencies --   2993.9727              3025.6471              3042.1792
 Red. masses --      1.0807                 1.0601                 1.0375
 Frc consts  --      5.7077                 5.7181                 5.6571
 IR Inten    --     12.0262                16.6534                21.1461

                     46                     47                     48
                      A                      A                      A
 Frequencies --   3052.4122              3052.7885              3112.1349
 Red. masses --      1.0974                 1.0978                 1.0989
 Frc consts  --      6.0241                 6.0280                 6.2707
 IR Inten    --     27.5062                 5.3830                21.8793

                     49                     50                     51
                      A                      A                      A
 Frequencies --   3146.3265              3181.0672              3810.5414
 Red. masses --      1.1022                 1.0929                 1.0662
 Frc consts  --      6.4284                 6.5160                 9.1217
 IR Inten    --      7.7857                14.4464                15.9290

 - Thermochemistry -
 -------------------
 Temperature   298.150 Kelvin.  Pressure   1.00000 Atm.
 Atom     1 has atomic number  6 and mass  12.00000

 Molecular mass:   126.06808 amu.
 Principal axes and moments of inertia in atomic units:
                           1         2         3
     Eigenvalues --   625.982111475.521261947.59699
           X            0.99992  -0.01061  -0.00618
           Y            0.01060   0.99994  -0.00128
           Z            0.00619   0.00121   0.99998
 This molecule is an asymmetric top.
 Rotational symmetry number  1.
 Warning -- assumption of classical behavior for rotation
           may cause significant error
 Rotational temperatures (Kelvin)      0.13836     0.05870     0.04447
 Rotational constants (GHZ):           2.88306     1.22312     0.92665
 Zero-point vibrational energy     415428.7 (Joules/Mol)
                                   99.28985 (Kcal/Mol)
 Warning -- explicit consideration of  12 degrees of freedom as
           vibrations may cause significant error
 Vibrational temperatures:     59.94   115.28   245.43   327.65   352.93
          (Kelvin)            371.82   398.24   472.17   553.90   697.46
                              748.38   863.52   894.79  1032.79  1077.00
                             1182.55  1199.59  1343.64  1375.69  1434.49
                             1444.54  1519.66  1543.99  1563.29  1645.37
                             1660.66  1700.28  1737.12  1834.80  1853.51
                             1870.78  1935.99  1980.07  2023.85  2039.25
                             2075.63  2144.18  2152.93  2163.21  2447.85
                             2661.53  4297.57  4307.65  4353.23  4377.01
                             4391.73  4392.28  4477.66  4526.86  4576.84
                             5482.51

 Zero-point correction=                           0.158228 (Hartree/Particle)
 Thermal correction to Energy=                    0.167452
 Thermal correction to Enthalpy=                  0.168396
 Thermal correction to Gibbs Free Energy=         0.123651
 Sum of electronic and zero-point Energies=           -423.057940
 Sum of electronic and thermal Energies=              -423.048717
 Sum of electronic and thermal Enthalpies=            -423.047773
 Sum of electronic and thermal Free Energies=         -423.092518

                     E (Thermal)             CV                S
                      KCal/Mol        Cal/Mol-Kelvin    Cal/Mol-Kelvin
 Total                  105.078             33.928             94.175
 Electronic               0.000              0.000              0.000
 Translational            0.889              2.981             40.409
 Rotational               0.889              2.981             28.977
 Vibrational            103.300             27.966             24.790
 Vibration     1          0.594              1.981              5.179
 Vibration     2          0.600              1.963              3.888
 Vibration     3          0.626              1.879              2.429
 Vibration     4          0.651              1.799              1.897
 Vibration     5          0.660              1.771              1.764
 Vibration     6          0.667              1.749              1.672
 Vibration     7          0.678              1.716              1.553
 Vibration     8          0.711              1.619              1.269
 Vibration     9          0.754              1.502              1.020
 Vibration    10          0.841              1.284              0.697
 Vibration    11          0.875              1.205              0.610
 Vibration    12          0.958              1.031              0.449

 Normal termination of Gaussian 09 at Tue Jan 28 13:21:55 2020.
