 Gaussian 09, Revision D.01,
 Gaussian 09:  ES64L-G09RevD.01 24-Apr-2013

 -----------------------------
 # b3lyp 6-31G(2df,p) opt Freq
 -----------------------------

 -----
 titel
 -----
 Symbolic Z-matrix:
 Charge =  0 Multiplicity = 1

 SCF Done:  E(RB3LYP) =  -423.152792750     A.U. after   13 cycles
 Optimization completed.
    -- Stationary point found.
 Normal termination of Gaussian 09 at Mon Jan 27 11:18:38 2020.

 ----------------------------------------------------------------------
 #N Geom=AllCheck Guess=TCheck SCRF=Check GenChk RB3LYP/6-31G(2df,p) Fr
 eq
 ----------------------------------------------------------------------

 Structure from the checkpoint file:  "/scratch/puck/g09_3dcaad38-a9ea-454a-bf14-c1a07a8feb9f/Gau-150496.chk"
 -----
 titel
 -----
 Charge =  0 Multiplicity = 1

                         Standard orientation:
 ---------------------------------------------------------------------
 Center     Atomic      Atomic             Coordinates (Angstroms)
 Number     Number       Type             X           Y           Z
 ---------------------------------------------------------------------
      1          6           0        1.162565   -0.722839    1.082389
      2          6           0        1.768044    0.397218    0.229610
      3          6           0        0.719001    1.239785   -0.430417
      4          6           0       -0.627397    1.661880    0.140167
      5          8           0       -1.435145    0.615772    0.658265
      6          6           0       -1.760096   -0.388496   -0.268847
      7          8           0       -0.935973   -1.518438   -0.179759
      8          6           0        0.454622   -1.268461   -0.206492
      9          6           0        1.030308   -0.109300   -1.029995
     10          1           0        1.908655   -1.424514    1.462401
     11          1           0        0.504720   -0.418224    1.896268
     12          1           0        2.795521    0.735006    0.292473
     13          1           0        1.156454    2.045322   -1.019577
     14          1           0       -0.488362    2.361926    0.971108
     15          1           0       -1.180446    2.196733   -0.649496
     16          1           0       -2.766366   -0.746334   -0.033264
     17          1           0       -1.743506    0.029887   -1.288872
     18          1           0        0.905408   -2.215567   -0.510910
     19          1           0        1.394589   -0.201633   -2.046662
 ---------------------------------------------------------------------

 SCF Done:  E(RB3LYP) =  -423.152792750     A.U. after    1 cycles

 The electronic state is 1-A.
 Alpha  occ. eigenvalues --  -19.14386 -19.13561 -10.26777 -10.23340 -10.23314
 Alpha  occ. eigenvalues --  -10.19817 -10.19612 -10.19239 -10.17640  -1.06390
 Alpha  occ. eigenvalues --   -1.00432  -0.89385  -0.74202  -0.72537  -0.66060
 Alpha  occ. eigenvalues --   -0.61791  -0.56985  -0.54119  -0.52279  -0.50055
 Alpha  occ. eigenvalues --   -0.47784  -0.46077  -0.44444  -0.41909  -0.39550
 Alpha  occ. eigenvalues --   -0.39104  -0.37599  -0.36411  -0.31900  -0.30928
 Alpha  occ. eigenvalues --   -0.29067  -0.27747  -0.25529  -0.24456
 Alpha virt. eigenvalues --    0.08225   0.09459   0.10143   0.13235   0.13381
 Alpha virt. eigenvalues --    0.13925   0.15286   0.15868   0.16740   0.16907
 Alpha virt. eigenvalues --    0.17672   0.18131   0.19489   0.20775   0.22577

 Mulliken charges:
               1
     1  C   -0.268470
     2  C   -0.072214
     3  C   -0.022335
     4  C   -0.124105
     5  O   -0.236645
     6  C    0.017807
     7  O   -0.255243
     8  C    0.134562
     9  C   -0.142901
    10  H    0.097894
    11  H    0.117746
    12  H    0.086560
    13  H    0.090027
    14  H    0.113405
    15  H    0.095514
    16  H    0.111876
    17  H    0.082158
    18  H    0.091714
    19  H    0.082650
 Sum of Mulliken charges =   0.00000

 Dipole moment (field-independent basis, Debye):
    X=              1.2418    Y=              1.2694    Z=             -1.1374  Tot=              2.1088
 Quadrupole moment (field-independent basis, Debye-Ang):
   XX=            -51.5298   YY=            -52.9684   ZZ=            -53.3065
   XY=             -1.1149   XZ=              1.2870   YZ=             -0.8710

  Exact polarizability:  78.160  -0.814  76.374   2.296  -1.531  66.795
 Approx polarizability: 107.895   0.666 111.365   3.077  -0.043 104.784

                      1                      2                      3
                      A                      A                      A
 Frequencies --    160.3195               213.5243               309.8280
 Red. masses --      2.4445                 3.4198                 4.8468
 Frc consts  --      0.0370                 0.0919                 0.2741
 IR Inten    --      3.8024                 2.9703                 2.2465

                      4                      5                      6
                      A                      A                      A
 Frequencies --    338.3224               382.5049               441.2537
 Red. masses --      3.3188                 2.8895                 1.9820
 Frc consts  --      0.2238                 0.2491                 0.2274
 IR Inten    --      0.4173                 1.2326                 1.9425

                      7                      8                      9
                      A                      A                      A
 Frequencies --    478.6318               632.2030               680.6497
 Red. masses --      4.7356                 5.9629                 3.2290
 Frc consts  --      0.6392                 1.4042                 0.8814
 IR Inten    --      2.6598                 6.5333                 8.4430

                     10                     11                     12
                      A                      A                      A
 Frequencies --    703.1078               767.8325               802.6447
 Red. masses --      2.9189                 2.3983                 2.3947
 Frc consts  --      0.8502                 0.8331                 0.9090
 IR Inten    --      1.7682                 8.6150                 5.8964

                     13                     14                     15
                      A                      A                      A
 Frequencies --    829.0586               874.5280               940.9438
 Red. masses --      2.3224                 2.0517                 2.6653
 Frc consts  --      0.9405                 0.9245                 1.3903
 IR Inten    --      5.8136                 3.8521                26.3844

                     16                     17                     18
                      A                      A                      A
 Frequencies --    973.4785               980.3840               992.5948
 Red. masses --      1.9901                 1.8630                 2.7454
 Frc consts  --      1.1112                 1.0550                 1.5937
 IR Inten    --      2.5245                 4.3670                22.1562

                     19                     20                     21
                      A                      A                      A
 Frequencies --   1011.8686              1027.4980              1060.6696
 Red. masses --      2.2012                 2.3856                 1.5012
 Frc consts  --      1.3279                 1.4839                 0.9951
 IR Inten    --      2.1438                32.7108                17.8770

                     22                     23                     24
                      A                      A                      A
 Frequencies --   1069.7506              1093.4960              1101.9636
 Red. masses --      2.2994                 2.2999                 1.9246
 Frc consts  --      1.5504                 1.6203                 1.3770
 IR Inten    --     59.0771                17.5603                29.8867

                     25                     26                     27
                      A                      A                      A
 Frequencies --   1149.7650              1172.8313              1185.1630
 Red. masses --      1.9454                 1.6748                 1.8072
 Frc consts  --      1.5153                 1.3573                 1.4956
 IR Inten    --     27.9287                47.6783                16.1744

                     28                     29                     30
                      A                      A                      A
 Frequencies --   1212.4358              1238.7652              1268.7392
 Red. masses --      2.6106                 1.6128                 1.2996
 Frc consts  --      2.2610                 1.4582                 1.2325
 IR Inten    --    147.0256                 3.0444                 0.3888

                     31                     32                     33
                      A                      A                      A
 Frequencies --   1291.7432              1307.6201              1333.6472
 Red. masses --      1.1617                 1.5848                 1.1635
 Frc consts  --      1.1421                 1.5966                 1.2193
 IR Inten    --     14.9485                 8.5252                 4.7173

                     34                     35                     36
                      A                      A                      A
 Frequencies --   1346.7121              1389.0456              1401.5458
 Red. masses --      1.4892                 1.2672                 1.4777
 Frc consts  --      1.5913                 1.4406                 1.7102
 IR Inten    --      9.6040                16.8186                12.7478

                     37                     38                     39
                      A                      A                      A
 Frequencies --   1447.3792              1457.5319              1491.9861
 Red. masses --      1.6156                 1.4078                 1.1319
 Frc consts  --      1.9941                 1.7621                 1.4845
 IR Inten    --      7.0037                 6.1625                 3.1674

                     40                     41                     42
                      A                      A                      A
 Frequencies --   1496.1500              1513.2482              2960.3464
 Red. masses --      1.0847                 1.1017                 1.0693
 Frc consts  --      1.4306                 1.4864                 5.5210
 IR Inten    --      1.8921                 3.4390                23.4353

                     43                     44                     45
                      A                      A                      A
 Frequencies --   2971.4755              3067.0948              3071.4463
 Red. masses --      1.0700                 1.0913                 1.0668
 Frc consts  --      5.5666                 6.0487                 5.9293
 IR Inten    --    108.3264                31.0896                23.9232

                     46                     47                     48
                      A                      A                      A
 Frequencies --   3084.9839              3088.5504              3116.1358
 Red. masses --      1.0833                 1.0938                 1.0857
 Frc consts  --      6.0745                 6.1475                 6.2114
 IR Inten    --     40.0811                44.2096                15.2879

                     49                     50                     51
                      A                      A                      A
 Frequencies --   3137.7741              3170.9821              3185.0127
 Red. masses --      1.1051                 1.0893                 1.0955
 Frc consts  --      6.4104                 6.4534                 6.5476
 IR Inten    --     15.0437                20.1347                23.8698

 - Thermochemistry -
 -------------------
 Temperature   298.150 Kelvin.  Pressure   1.00000 Atm.
 Atom     1 has atomic number  6 and mass  12.00000

 Molecular mass:   126.06808 amu.
 Principal axes and moments of inertia in atomic units:
                           1         2         3
     Eigenvalues --   713.86118 876.825811211.88238
           X            0.99843  -0.05255   0.01953
           Y            0.05304   0.99827  -0.02546
           Z           -0.01816   0.02646   0.99948
 This molecule is an asymmetric top.
 Rotational symmetry number  1.
 Warning -- assumption of classical behavior for rotation
           may cause significant error
 Rotational temperatures (Kelvin)      0.12133     0.09878     0.07147
 Rotational constants (GHZ):           2.52814     2.05827     1.48920
 Zero-point vibrational energy     427217.4 (Joules/Mol)
                                  102.10740 (Kcal/Mol)
 Warning -- explicit consideration of   7 degrees of freedom as
           vibrations may cause significant error
 Vibrational temperatures:    230.66   307.21   445.77   486.77   550.34
          (Kelvin)            634.86   688.64   909.60   979.30  1011.61
                             1104.74  1154.83  1192.83  1258.25  1353.81
                             1400.62  1410.55  1428.12  1455.85  1478.34
                             1526.07  1539.13  1573.29  1585.48  1654.25
                             1687.44  1705.18  1744.42  1782.30  1825.43
                             1858.53  1881.37  1918.82  1937.62  1998.52
                             2016.51  2082.45  2097.06  2146.63  2152.62
                             2177.22  4259.27  4275.29  4412.86  4419.12
                             4438.60  4443.73  4483.42  4514.55  4562.33
                             4582.52

 Zero-point correction=                           0.162719 (Hartree/Particle)
 Thermal correction to Energy=                    0.169532
 Thermal correction to Enthalpy=                  0.170476
 Thermal correction to Gibbs Free Energy=         0.131821
 Sum of electronic and zero-point Energies=           -422.990074
 Sum of electronic and thermal Energies=              -422.983261
 Sum of electronic and thermal Enthalpies=            -422.982317
 Sum of electronic and thermal Free Energies=         -423.020972

                     E (Thermal)             CV                S
                      KCal/Mol        Cal/Mol-Kelvin    Cal/Mol-Kelvin
 Total                  106.383             28.188             81.357
 Electronic               0.000              0.000              0.000
 Translational            0.889              2.981             40.409
 Rotational               0.889              2.981             28.119
 Vibrational            104.606             22.226             12.829
 Vibration     1          0.622              1.891              2.546
 Vibration     2          0.644              1.820              2.013
 Vibration     3          0.699              1.655              1.363
 Vibration     4          0.719              1.599              1.220
 Vibration     5          0.752              1.508              1.029
 Vibration     6          0.801              1.380              0.823
 Vibration     7          0.835              1.297              0.714

 Optimization completed.
    -- Stationary point found.
 Normal termination of Gaussian 09 at Mon Jan 27 12:08:16 2020.
