 Gaussian 09, Revision D.01,
 Gaussian 09:  ES64L-G09RevD.01 24-Apr-2013

 -----------------------------
 # b3lyp 6-31G(2df,p) opt Freq
 -----------------------------

 -----
 titel
 -----
 Symbolic Z-matrix:
 Charge =  0 Multiplicity = 1

 SCF Done:  E(RB3LYP) =  -423.197095806     A.U. after   13 cycles
 Optimization completed.
    -- Stationary point found.
 Normal termination of Gaussian 09 at Mon Jan 27 18:13:32 2020.

 ----------------------------------------------------------------------
 #N Geom=AllCheck Guess=TCheck SCRF=Check GenChk RB3LYP/6-31G(2df,p) Fr
 eq
 ----------------------------------------------------------------------

 Structure from the checkpoint file:  "/scratch/puck/g09_e5846a78-c4a0-4820-a7fc-379f3da01e71/Gau-181857.chk"
 -----
 titel
 -----
 Charge =  0 Multiplicity = 1

                         Standard orientation:
 ---------------------------------------------------------------------
 Center     Atomic      Atomic             Coordinates (Angstroms)
 Number     Number       Type             X           Y           Z
 ---------------------------------------------------------------------
      1          6           0       -2.373328   -0.456814    0.050942
      2          6           0       -0.947900    0.022967   -0.045372
      3          6           0       -0.603813    1.524605   -0.225275
      4          6           0        0.751045    1.188553    0.434254
      5          8           0        1.611449    0.560000   -0.533673
      6          6           0        1.100668   -0.762184   -0.632641
      7          6           0        0.985960   -1.212057    0.829758
      8          6           0        0.078976   -0.036295    1.153496
      9          8           0       -0.248135   -0.721571   -1.073329
     10          1           0       -2.412201   -1.516675    0.320757
     11          1           0       -2.923275    0.117392    0.802603
     12          1           0       -2.879620   -0.334826   -0.912167
     13          1           0       -0.579667    1.912206   -1.245471
     14          1           0       -1.221001    2.161119    0.417221
     15          1           0        1.316386    1.946499    0.977323
     16          1           0        1.699759   -1.331776   -1.340633
     17          1           0        0.507616   -2.188095    0.933499
     18          1           0        1.944085   -1.195497    1.353239
     19          1           0       -0.308240    0.109567    2.158667
 ---------------------------------------------------------------------

 SCF Done:  E(RB3LYP) =  -423.197095806     A.U. after    1 cycles

 The electronic state is 1-A.
 Alpha  occ. eigenvalues --  -19.13887 -19.13766 -10.27231 -10.23920 -10.23342
 Alpha  occ. eigenvalues --  -10.19247 -10.18335 -10.17762 -10.17675  -1.08196
 Alpha  occ. eigenvalues --   -0.99433  -0.83474  -0.77005  -0.72490  -0.65516
 Alpha  occ. eigenvalues --   -0.61149  -0.59860  -0.53474  -0.50868  -0.48944
 Alpha  occ. eigenvalues --   -0.46599  -0.44063  -0.42932  -0.40862  -0.40294
 Alpha  occ. eigenvalues --   -0.38624  -0.36689  -0.36446  -0.35301  -0.33662
 Alpha  occ. eigenvalues --   -0.31396  -0.29078  -0.25905  -0.24675
 Alpha virt. eigenvalues --    0.09100   0.10825   0.11843   0.12319   0.13490
 Alpha virt. eigenvalues --    0.13980   0.15076   0.16238   0.16633   0.17102
 Alpha virt. eigenvalues --    0.18152   0.18985   0.19371   0.20162   0.20945

 Mulliken charges:
               1
     1  C   -0.482376
     2  C    0.420399
     3  C   -0.268005
     4  C    0.089029
     5  O   -0.275979
     6  C    0.184782
     7  C   -0.253639
     8  C   -0.133476
     9  O   -0.311172
    10  H    0.122258
    11  H    0.113763
    12  H    0.131196
    13  H    0.107561
    14  H    0.093114
    15  H    0.077105
    16  H    0.090377
    17  H    0.108527
    18  H    0.108820
    19  H    0.077716
 Sum of Mulliken charges =   0.00000

 Dipole moment (field-independent basis, Debye):
    X=             -0.7883    Y=             -0.1229    Z=              1.9267  Tot=              2.0854
 Quadrupole moment (field-independent basis, Debye-Ang):
   XX=            -53.4177   YY=            -51.5238   ZZ=            -53.6575
   XY=             -2.7145   XZ=              0.1536   YZ=              0.5776

  Exact polarizability:  78.446  -3.116  74.906   0.364   0.497  66.527
 Approx polarizability: 109.410  -2.503 108.738  -1.339   3.122 104.153

                      1                      2                      3
                      A                      A                      A
 Frequencies --    204.8411               229.9555               283.8519
 Red. masses --      1.0785                 2.5433                 2.4764
 Frc consts  --      0.0267                 0.0792                 0.1176
 IR Inten    --      0.0847                 0.7272                 0.1099

                      4                      5                      6
                      A                      A                      A
 Frequencies --    392.6399               411.6968               456.1001
 Red. masses --      2.9039                 2.2936                 2.0004
 Frc consts  --      0.2638                 0.2290                 0.2452
 IR Inten    --      3.0513                 2.2309                 0.5272

                      7                      8                      9
                      A                      A                      A
 Frequencies --    559.1776               581.8865               640.1509
 Red. masses --      4.2105                 4.7922                 5.0400
 Frc consts  --      0.7757                 0.9560                 1.2169
 IR Inten    --      1.9784                 9.0206                 4.9182

                     10                     11                     12
                      A                      A                      A
 Frequencies --    687.0649               795.2501               830.3247
 Red. masses --      3.8192                 2.6945                 2.9744
 Frc consts  --      1.0622                 1.0040                 1.2082
 IR Inten    --      0.3099                 8.6888                 4.0510

                     13                     14                     15
                      A                      A                      A
 Frequencies --    839.4687               870.9709               882.0271
 Red. masses --      3.1660                 2.5936                 2.4039
 Frc consts  --      1.3145                 1.1592                 1.1019
 IR Inten    --      0.3596                14.4659                 9.2471

                     16                     17                     18
                      A                      A                      A
 Frequencies --    909.3284               924.3593               958.9026
 Red. masses --      4.1432                 2.7753                 1.6731
 Frc consts  --      2.0185                 1.3972                 0.9064
 IR Inten    --     40.7277                22.2300                 8.4942

                     19                     20                     21
                      A                      A                      A
 Frequencies --    960.2420               981.4700               993.8510
 Red. masses --      2.2885                 1.7221                 1.8252
 Frc consts  --      1.2433                 0.9774                 1.0622
 IR Inten    --     15.9078                 6.0350                16.9690

                     22                     23                     24
                      A                      A                      A
 Frequencies --   1017.4329              1072.3864              1096.2665
 Red. masses --      1.6242                 3.2187                 1.2353
 Frc consts  --      0.9906                 2.1809                 0.8747
 IR Inten    --     16.8817                49.6269                 5.8747

                     25                     26                     27
                      A                      A                      A
 Frequencies --   1116.2601              1147.8952              1175.9401
 Red. masses --      2.6792                 2.2427                 1.5907
 Frc consts  --      1.9669                 1.7411                 1.2960
 IR Inten    --     92.0684                 9.8221                 3.4502

                     28                     29                     30
                      A                      A                      A
 Frequencies --   1203.8805              1207.0041              1238.9141
 Red. masses --      1.6582                 1.7170                 1.7032
 Frc consts  --      1.4160                 1.4738                 1.5403
 IR Inten    --      6.8898                 7.9139                 6.6690

                     31                     32                     33
                      A                      A                      A
 Frequencies --   1261.9478              1286.7416              1298.9925
 Red. masses --      1.9458                 1.5399                 1.4874
 Frc consts  --      1.8257                 1.5022                 1.4788
 IR Inten    --     14.1943                 2.8349                12.6789

                     34                     35                     36
                      A                      A                      A
 Frequencies --   1331.3145              1336.2346              1368.8827
 Red. masses --      2.6681                 1.4642                 1.3828
 Frc consts  --      2.7862                 1.5404                 1.5266
 IR Inten    --     27.2329                 7.8133                11.3974

                     37                     38                     39
                      A                      A                      A
 Frequencies --   1413.3373              1464.3261              1476.1636
 Red. masses --      1.4163                 1.1426                 1.1220
 Frc consts  --      1.6668                 1.4436                 1.4405
 IR Inten    --     10.4941                 2.5710                 3.0540

                     40                     41                     42
                      A                      A                      A
 Frequencies --   1481.6248              1492.3831              3036.6198
 Red. masses --      1.0507                 1.0502                 1.0352
 Frc consts  --      1.3590                 1.3781                 5.6242
 IR Inten    --      3.2631                 2.9290                16.8127

                     43                     44                     45
                      A                      A                      A
 Frequencies --   3052.1693              3075.3682              3105.9122
 Red. masses --      1.0593                 1.0576                 1.0906
 Frc consts  --      5.8143                 5.8933                 6.1986
 IR Inten    --     26.5834                17.8282                51.5160

                     46                     47                     48
                      A                      A                      A
 Frequencies --   3107.5466              3113.4058              3125.7075
 Red. masses --      1.1012                 1.1016                 1.1060
 Frc consts  --      6.2654                 6.2916                 6.3665
 IR Inten    --     14.9694                16.0375                19.1536

                     49                     50                     51
                      A                      A                      A
 Frequencies --   3134.4156              3150.4392              3155.8634
 Red. masses --      1.1089                 1.0904                 1.0924
 Frc consts  --      6.4186                 6.3765                 6.4104
 IR Inten    --     15.6248                45.5387                 5.3331

 - Thermochemistry -
 -------------------
 Temperature   298.150 Kelvin.  Pressure   1.00000 Atm.
 Atom     1 has atomic number  6 and mass  12.00000

 Molecular mass:   126.06808 amu.
 Principal axes and moments of inertia in atomic units:
                           1         2         3
     Eigenvalues --   629.64782 928.614581070.31255
           X            0.99949  -0.03064   0.00900
           Y            0.03092   0.99897  -0.03327
           Z           -0.00797   0.03354   0.99941
 This molecule is an asymmetric top.
 Rotational symmetry number  1.
 Warning -- assumption of classical behavior for rotation
           may cause significant error
 Rotational temperatures (Kelvin)      0.13756     0.09327     0.08092
 Rotational constants (GHZ):           2.86627     1.94348     1.68618
 Zero-point vibrational energy     424309.1 (Joules/Mol)
                                  101.41230 (Kcal/Mol)
 Warning -- explicit consideration of   8 degrees of freedom as
           vibrations may cause significant error
 Vibrational temperatures:    294.72   330.85   408.40   564.92   592.34
          (Kelvin)            656.23   804.53   837.20   921.03   988.53
                             1144.19  1194.65  1207.81  1253.13  1269.04
                             1308.32  1329.95  1379.65  1381.57  1412.11
                             1429.93  1463.86  1542.92  1577.28  1606.05
                             1651.56  1691.91  1732.11  1736.61  1782.52
                             1815.66  1851.33  1868.96  1915.46  1922.54
                             1969.51  2033.47  2106.84  2123.87  2131.72
                             2147.20  4369.01  4391.39  4424.76  4468.71
                             4471.06  4479.49  4497.19  4509.72  4532.77
                             4540.58

 Zero-point correction=                           0.161611 (Hartree/Particle)
 Thermal correction to Energy=                    0.168327
 Thermal correction to Enthalpy=                  0.169271
 Thermal correction to Gibbs Free Energy=         0.131027
 Sum of electronic and zero-point Energies=           -423.035485
 Sum of electronic and thermal Energies=              -423.028769
 Sum of electronic and thermal Enthalpies=            -423.027824
 Sum of electronic and thermal Free Energies=         -423.066069

                     E (Thermal)             CV                S
                      KCal/Mol        Cal/Mol-Kelvin    Cal/Mol-Kelvin
 Total                  105.627             28.600             80.492
 Electronic               0.000              0.000              0.000
 Translational            0.889              2.981             40.409
 Rotational               0.889              2.981             27.928
 Vibrational            103.850             22.638             12.156
 Vibration     1          0.640              1.833              2.089
 Vibration     2          0.652              1.795              1.879
 Vibration     3          0.682              1.704              1.510
 Vibration     4          0.760              1.486              0.990
 Vibration     5          0.776              1.445              0.921
 Vibration     6          0.814              1.347              0.778
 Vibration     7          0.915              1.120              0.525
 Vibration     8          0.939              1.070              0.482

 Optimization completed.
    -- Stationary point found.
 Normal termination of Gaussian 09 at Mon Jan 27 19:02:02 2020.
