 Gaussian 09, Revision D.01,
 Gaussian 09:  ES64L-G09RevD.01 24-Apr-2013

 -----------------------------
 # b3lyp 6-31G(2df,p) opt Freq
 -----------------------------

 -----
 titel
 -----
 Symbolic Z-matrix:
 Charge =  0 Multiplicity = 1

 SCF Done:  E(RB3LYP) =  -423.207545134     A.U. after   13 cycles
 Optimization completed.
    -- Stationary point found.
 Normal termination of Gaussian 09 at Mon Jan 27 22:01:01 2020.

 ----------------------------------------------------------------------
 #N Geom=AllCheck Guess=TCheck SCRF=Check GenChk RB3LYP/6-31G(2df,p) Fr
 eq
 ----------------------------------------------------------------------

 Structure from the checkpoint file:  "/scratch/puck/g09_19b4e923-78a5-488a-81e3-087f0cb5ebf4/Gau-45696.chk"
 -----
 titel
 -----
 Charge =  0 Multiplicity = 1

                         Standard orientation:
 ---------------------------------------------------------------------
 Center     Atomic      Atomic             Coordinates (Angstroms)
 Number     Number       Type             X           Y           Z
 ---------------------------------------------------------------------
      1          6           0       -0.538158    2.024600    0.763816
      2          6           0       -0.228186    0.735877    0.015607
      3          8           0       -1.437711    0.308589   -0.632704
      4          6           0       -1.378465   -1.091703   -0.669450
      5          8           0       -0.772465   -1.506717    0.537542
      6          6           0        0.164319   -0.496896    0.903492
      7          6           0        1.622656   -0.859414    0.534978
      8          6           0        1.911455   -0.011563   -0.679773
      9          6           0        0.930606    0.846373   -0.951410
     10          1           0       -0.823419    2.813912    0.061840
     11          1           0       -1.367800    1.867188    1.458811
     12          1           0        0.337824    2.365461    1.323602
     13          1           0       -2.395650   -1.491626   -0.716151
     14          1           0       -0.792725   -1.442445   -1.537246
     15          1           0        0.039972   -0.311515    1.973682
     16          1           0        2.313533   -0.629248    1.356595
     17          1           0        1.712047   -1.934077    0.343151
     18          1           0        2.836769   -0.097812   -1.240245
     19          1           0        0.915497    1.561539   -1.766303
 ---------------------------------------------------------------------

 SCF Done:  E(RB3LYP) =  -423.207545134     A.U. after    1 cycles

 The electronic state is 1-A.
 Alpha  occ. eigenvalues --  -19.14166 -19.13981 -10.26685 -10.24069 -10.23239
 Alpha  occ. eigenvalues --  -10.19082 -10.18697 -10.18071 -10.17840  -1.08242
 Alpha  occ. eigenvalues --   -0.98918  -0.84278  -0.75301  -0.71572  -0.67210
 Alpha  occ. eigenvalues --   -0.62139  -0.57950  -0.54923  -0.50842  -0.48948
 Alpha  occ. eigenvalues --   -0.47079  -0.45035  -0.43317  -0.40767  -0.40275
 Alpha  occ. eigenvalues --   -0.38776  -0.37923  -0.37127  -0.35938  -0.32841
 Alpha  occ. eigenvalues --   -0.31166  -0.27346  -0.25510  -0.24882
 Alpha virt. eigenvalues --    0.01190   0.09366   0.11126   0.12215   0.12981
 Alpha virt. eigenvalues --    0.13681   0.15174   0.16185   0.16531   0.16967
 Alpha virt. eigenvalues --    0.17439   0.18590   0.19771   0.20689   0.21284

 Mulliken charges:
               1
     1  C   -0.454020
     2  C    0.347808
     3  O   -0.281221
     4  C    0.007003
     5  O   -0.262564
     6  C    0.041537
     7  C   -0.283416
     8  C   -0.077169
     9  C   -0.121196
    10  H    0.125987
    11  H    0.127324
    12  H    0.119485
    13  H    0.115789
    14  H    0.083377
    15  H    0.083078
    16  H    0.109182
    17  H    0.120837
    18  H    0.099633
    19  H    0.098546
 Sum of Mulliken charges =   0.00000

 Dipole moment (field-independent basis, Debye):
    X=              1.4794    Y=              0.5517    Z=             -0.0192  Tot=              1.5791
 Quadrupole moment (field-independent basis, Debye-Ang):
   XX=            -52.4029   YY=            -53.7898   ZZ=            -52.0863
   XY=              0.0935   XZ=              0.1691   YZ=              1.9478

  Exact polarizability:  81.808  -4.184  75.578   0.777  -1.011  68.358
 Approx polarizability: 120.019 -10.746 111.244   4.874  -5.908 101.733

                      1                      2                      3
                      A                      A                      A
 Frequencies --     70.8242               200.4852               225.2569
 Red. masses --      3.5085                 2.6559                 1.0613
 Frc consts  --      0.0104                 0.0629                 0.0317
 IR Inten    --      0.9979                 0.6179                 0.1144

                      4                      5                      6
                      A                      A                      A
 Frequencies --    250.6911               274.5238               375.2678
 Red. masses --      2.3075                 2.5895                 3.0250
 Frc consts  --      0.0854                 0.1150                 0.2510
 IR Inten    --      3.5169                 0.9930                 5.1596

                      7                      8                      9
                      A                      A                      A
 Frequencies --    428.5841               490.2365               598.9759
 Red. masses --      2.6735                 2.5576                 5.2317
 Frc consts  --      0.2893                 0.3622                 1.1059
 IR Inten    --      1.6870                 5.5071                 4.7321

                     10                     11                     12
                      A                      A                      A
 Frequencies --    618.8579               720.8067               762.6486
 Red. masses --      3.7383                 3.6632                 2.8621
 Frc consts  --      0.8435                 1.1214                 0.9808
 IR Inten    --      0.2788                 4.6076                 4.4076

                     13                     14                     15
                      A                      A                      A
 Frequencies --    773.3724               837.2176               881.0979
 Red. masses --      2.5797                 2.5049                 3.1591
 Frc consts  --      0.9091                 1.0345                 1.4450
 IR Inten    --     16.5417                12.2051                13.7815

                     16                     17                     18
                      A                      A                      A
 Frequencies --    902.7058               952.0368               955.8086
 Red. masses --      2.0597                 1.8128                 2.4424
 Frc consts  --      0.9889                 0.9681                 1.3146
 IR Inten    --     15.1426                 5.0041                 6.0334

                     19                     20                     21
                      A                      A                      A
 Frequencies --    981.9513               994.2494              1024.3120
 Red. masses --      1.3247                 3.4543                 2.0963
 Frc consts  --      0.7526                 2.0119                 1.2959
 IR Inten    --      3.3566                56.5206                 4.3244

                     22                     23                     24
                      A                      A                      A
 Frequencies --   1057.3218              1108.7704              1112.1931
 Red. masses --      3.4188                 1.6251                 2.0766
 Frc consts  --      2.2519                 1.1771                 1.5134
 IR Inten    --     13.1358                56.0198                97.1450

                     25                     26                     27
                      A                      A                      A
 Frequencies --   1143.6479              1175.7234              1189.8962
 Red. masses --      2.8194                 1.8205                 1.6756
 Frc consts  --      2.1726                 1.4827                 1.3978
 IR Inten    --     16.6621                40.7454                31.4510

                     28                     29                     30
                      A                      A                      A
 Frequencies --   1196.8738              1225.0721              1249.9546
 Red. masses --      1.5323                 1.7425                 1.4295
 Frc consts  --      1.2933                 1.5408                 1.3159
 IR Inten    --     35.1693                 5.0210                 4.1446

                     31                     32                     33
                      A                      A                      A
 Frequencies --   1277.3547              1325.0950              1361.6654
 Red. masses --      1.9577                 1.5566                 1.2613
 Frc consts  --      1.8820                 1.6103                 1.3779
 IR Inten    --      2.0761                 0.4631                 7.4026

                     34                     35                     36
                      A                      A                      A
 Frequencies --   1389.1750              1404.6408              1428.0001
 Red. masses --      1.6976                 1.2701                 1.2528
 Frc consts  --      1.9302                 1.4764                 1.5052
 IR Inten    --      5.9732                 4.3402                 7.9128

                     37                     38                     39
                      A                      A                      A
 Frequencies --   1472.1254              1482.1085              1494.4697
 Red. masses --      1.0918                 1.0533                 1.0536
 Frc consts  --      1.3941                 1.3632                 1.3864
 IR Inten    --      4.3112                 2.5356                 2.0060

                     40                     41                     42
                      A                      A                      A
 Frequencies --   1541.5721              1686.0312              2947.3753
 Red. masses --      1.0995                 6.4942                 1.0701
 Frc consts  --      1.5395                10.8769                 5.4769
 IR Inten    --      2.6688                 2.9557                90.8408

                     43                     44                     45
                      A                      A                      A
 Frequencies --   3023.7350              3040.2958              3068.1371
 Red. masses --      1.0663                 1.0344                 1.0905
 Frc consts  --      5.7443                 5.6336                 6.0483
 IR Inten    --     25.6059                15.2457                11.4934

                     46                     47                     48
                      A                      A                      A
 Frequencies --   3073.7555              3084.6258              3114.7797
 Red. masses --      1.0922                 1.0949                 1.1016
 Frc consts  --      6.0795                 6.1382                 6.2969
 IR Inten    --     43.0107                46.6390                17.8805

                     49                     50                     51
                      A                      A                      A
 Frequencies --   3120.0434              3178.6521              3206.0962
 Red. masses --      1.1025                 1.0852                 1.1034
 Frc consts  --      6.3237                 6.4605                 6.6824
 IR Inten    --     17.1252                 8.7570                15.8017

 - Thermochemistry -
 -------------------
 Temperature   298.150 Kelvin.  Pressure   1.00000 Atm.
 Atom     1 has atomic number  6 and mass  12.00000

 Molecular mass:   126.06808 amu.
 Principal axes and moments of inertia in atomic units:
                           1         2         3
     Eigenvalues --   808.87417 901.825721209.32392
           X            0.99372  -0.11192  -0.00105
           Y            0.11182   0.99234   0.05253
           Z           -0.00483  -0.05232   0.99862
 This molecule is an asymmetric top.
 Rotational symmetry number  1.
 Warning -- assumption of classical behavior for rotation
           may cause significant error
 Rotational temperatures (Kelvin)      0.10708     0.09604     0.07162
 Rotational constants (GHZ):           2.23118     2.00121     1.49236
 Zero-point vibrational energy     421678.2 (Joules/Mol)
                                  100.78352 (Kcal/Mol)
 Warning -- explicit consideration of  10 degrees of freedom as
           vibrations may cause significant error
 Vibrational temperatures:    101.90   288.45   324.09   360.69   394.98
          (Kelvin)            539.93   616.64   705.34   861.79   890.40
                             1037.08  1097.28  1112.71  1204.57  1267.70
                             1298.79  1369.77  1375.19  1412.81  1430.50
                             1473.75  1521.25  1595.27  1600.20  1645.45
                             1691.60  1711.99  1722.03  1762.60  1798.40
                             1837.83  1906.51  1959.13  1998.71  2020.96
                             2054.57  2118.06  2132.42  2150.21  2217.98
                             2425.82  4240.61  4350.47  4374.30  4414.36
                             4422.44  4438.08  4481.47  4489.04  4573.37
                             4612.85

 Zero-point correction=                           0.160609 (Hartree/Particle)
 Thermal correction to Energy=                    0.168327
 Thermal correction to Enthalpy=                  0.169271
 Thermal correction to Gibbs Free Energy=         0.128421
 Sum of electronic and zero-point Energies=           -423.046936
 Sum of electronic and thermal Energies=              -423.039218
 Sum of electronic and thermal Enthalpies=            -423.038274
 Sum of electronic and thermal Free Energies=         -423.079124

                     E (Thermal)             CV                S
                      KCal/Mol        Cal/Mol-Kelvin    Cal/Mol-Kelvin
 Total                  105.627             30.268             85.976
 Electronic               0.000              0.000              0.000
 Translational            0.889              2.981             40.409
 Rotational               0.889              2.981             28.269
 Vibrational            103.849             24.306             17.298
 Vibration     1          0.598              1.968              4.130
 Vibration     2          0.638              1.839              2.129
 Vibration     3          0.650              1.803              1.916
 Vibration     4          0.663              1.762              1.726
 Vibration     5          0.677              1.720              1.568
 Vibration     6          0.746              1.523              1.058
 Vibration     7          0.790              1.408              0.863
 Vibration     8          0.846              1.272              0.683
 Vibration     9          0.957              1.034              0.451
 Vibration    10          0.979              0.992              0.418

 Normal termination of Gaussian 09 at Mon Jan 27 22:52:33 2020.
