 Gaussian 09, Revision D.01,
 Gaussian 09:  ES64L-G09RevD.01 24-Apr-2013

 -----------------------------
 # b3lyp 6-31G(2df,p) opt Freq
 -----------------------------

 -----
 titel
 -----
 Symbolic Z-matrix:
 Charge =  0 Multiplicity = 1

 SCF Done:  E(RB3LYP) =  -423.146546099     A.U. after   13 cycles
 Optimization completed.
    -- Stationary point found.
 Normal termination of Gaussian 09 at Mon Jan 27 12:14:01 2020.

 ----------------------------------------------------------------------
 #N Geom=AllCheck Guess=TCheck SCRF=Check GenChk RB3LYP/6-31G(2df,p) Fr
 eq
 ----------------------------------------------------------------------

 Structure from the checkpoint file:  "/scratch/puck/g09_6d146b88-3fee-4e72-8c89-7e48fa34eb80/Gau-45083.chk"
 -----
 titel
 -----
 Charge =  0 Multiplicity = 1

                         Standard orientation:
 ---------------------------------------------------------------------
 Center     Atomic      Atomic             Coordinates (Angstroms)
 Number     Number       Type             X           Y           Z
 ---------------------------------------------------------------------
      1          6           0        2.392525   -0.737502   -0.001049
      2          6           0        2.085781    0.776368    0.002650
      3          6           0        0.632423    0.316911    0.017219
      4          8           0        0.984053   -1.068818    0.052417
      5          6           0       -0.530112    0.903392    0.770552
      6          6           0       -1.646852   -0.053295    1.167516
      7          6           0       -1.944316   -0.826017   -0.137666
      8          8           0       -1.522403    0.010297   -1.221710
      9          6           0       -0.528172    0.874632   -0.753416
     10          1           0        2.861945   -1.122585   -0.912995
     11          1           0        2.930319   -1.120213    0.873031
     12          1           0        2.412806    1.313827    0.895447
     13          1           0        2.398934    1.325813   -0.887535
     14          1           0       -0.389042    1.813591    1.345013
     15          1           0       -1.365834   -0.736182    1.974076
     16          1           0       -2.514901    0.526007    1.497966
     17          1           0       -1.380620   -1.764294   -0.157634
     18          1           0       -3.006501   -1.042871   -0.280943
     19          1           0       -0.407973    1.748125   -1.386913
 ---------------------------------------------------------------------

 SCF Done:  E(RB3LYP) =  -423.146546099     A.U. after    1 cycles

 The electronic state is 1-A.
 Alpha  occ. eigenvalues --  -19.13721 -19.13568 -10.23635 -10.23510 -10.22638
 Alpha  occ. eigenvalues --  -10.21860 -10.19433 -10.18583 -10.18516  -1.04961
 Alpha  occ. eigenvalues --   -1.02873  -0.83909  -0.75615  -0.73898  -0.65496
 Alpha  occ. eigenvalues --   -0.61137  -0.57660  -0.52837  -0.51056  -0.48629
 Alpha  occ. eigenvalues --   -0.47375  -0.46227  -0.43974  -0.41157  -0.39789
 Alpha  occ. eigenvalues --   -0.38205  -0.37628  -0.35545  -0.33630  -0.32089
 Alpha  occ. eigenvalues --   -0.31089  -0.30267  -0.24213  -0.21220
 Alpha virt. eigenvalues --    0.06422   0.10200   0.10677   0.11246   0.12807
 Alpha virt. eigenvalues --    0.13876   0.14364   0.15012   0.16301   0.17121
 Alpha virt. eigenvalues --    0.17975   0.18480   0.19024   0.21978   0.22277

 Mulliken charges:
               1
     1  C   -0.068879
     2  C   -0.370591
     3  C    0.432754
     4  O   -0.308317
     5  C   -0.197904
     6  C   -0.240119
     7  C   -0.084293
     8  O   -0.260024
     9  C    0.017746
    10  H    0.110395
    11  H    0.108226
    12  H    0.114157
    13  H    0.116432
    14  H    0.086364
    15  H    0.112739
    16  H    0.106803
    17  H    0.125023
    18  H    0.102952
    19  H    0.096535
 Sum of Mulliken charges =   0.00000

 Dipole moment (field-independent basis, Debye):
    X=              1.3140    Y=              1.1923    Z=              1.3056  Tot=              2.2029
 Quadrupole moment (field-independent basis, Debye-Ang):
   XX=            -48.4053   YY=            -52.3400   ZZ=            -54.4443
   XY=              1.3938   XZ=             -2.9779   YZ=             -0.4693

  Exact polarizability:  88.653   0.621  69.601  -2.446  -0.331  66.986
 Approx polarizability: 112.281  -0.004 103.213  -0.760  -0.809 103.143

                      1                      2                      3
                      A                      A                      A
 Frequencies --     76.2707               154.8685               162.5128
 Red. masses --      2.3635                 3.4835                 5.0389
 Frc consts  --      0.0081                 0.0492                 0.0784
 IR Inten    --      1.6683                 3.0593                 1.6048

                      4                      5                      6
                      A                      A                      A
 Frequencies --    205.6760               252.6700               407.2522
 Red. masses --      1.9766                 2.8746                 3.7860
 Frc consts  --      0.0493                 0.1081                 0.3700
 IR Inten    --      2.9457                 2.0748                 0.1636

                      7                      8                      9
                      A                      A                      A
 Frequencies --    523.9282               609.7475               692.5611
 Red. masses --      2.9486                 4.4697                 3.0827
 Frc consts  --      0.4769                 0.9791                 0.8711
 IR Inten    --      0.6501                10.8416                 7.9062

                     10                     11                     12
                      A                      A                      A
 Frequencies --    713.3953               779.7475               825.0025
 Red. masses --      6.4161                 1.2949                 1.7975
 Frc consts  --      1.9239                 0.4639                 0.7208
 IR Inten    --     10.1126                 2.2258                 4.2540

                     13                     14                     15
                      A                      A                      A
 Frequencies --    832.3686               860.7053               884.7160
 Red. masses --      1.9489                 2.0324                 2.4143
 Frc consts  --      0.7956                 0.8871                 1.1134
 IR Inten    --      9.6614                 5.8606                 4.6115

                     16                     17                     18
                      A                      A                      A
 Frequencies --    928.7708               961.1031               973.5324
 Red. masses --      2.7045                 2.6409                 2.9356
 Frc consts  --      1.3745                 1.4373                 1.6393
 IR Inten    --      6.6564                19.4117                24.1088

                     19                     20                     21
                      A                      A                      A
 Frequencies --    997.4513              1025.9325              1029.6211
 Red. masses --      3.2256                 2.9818                 1.6258
 Frc consts  --      1.8908                 1.8491                 1.0155
 IR Inten    --     19.0040               111.6063                11.5107

                     22                     23                     24
                      A                      A                      A
 Frequencies --   1060.7455              1109.4908              1122.0007
 Red. masses --      2.0584                 2.0766                 2.2390
 Frc consts  --      1.3646                 1.5061                 1.6607
 IR Inten    --      4.7846                11.3913                24.7413

                     25                     26                     27
                      A                      A                      A
 Frequencies --   1155.3717              1166.3291              1173.9560
 Red. masses --      2.6356                 1.3679                 2.7442
 Frc consts  --      2.0729                 1.0964                 2.2283
 IR Inten    --     48.8490                 5.6398                18.0621

                     28                     29                     30
                      A                      A                      A
 Frequencies --   1213.1959              1219.9688              1222.2027
 Red. masses --      1.2067                 1.6553                 1.2185
 Frc consts  --      1.0464                 1.4515                 1.0724
 IR Inten    --      0.6179                 6.9428                 0.8477

                     31                     32                     33
                      A                      A                      A
 Frequencies --   1248.2372              1265.3418              1299.0528
 Red. masses --      1.3723                 1.4190                 1.3547
 Frc consts  --      1.2598                 1.3386                 1.3469
 IR Inten    --      6.6701                 8.3736                11.3592

                     34                     35                     36
                      A                      A                      A
 Frequencies --   1314.7163              1353.7629              1394.8071
 Red. masses --      1.4860                 1.4559                 1.3512
 Frc consts  --      1.5133                 1.5721                 1.5488
 IR Inten    --      6.3128                 2.2684                 2.4107

                     37                     38                     39
                      A                      A                      A
 Frequencies --   1443.1311              1489.5269              1491.4209
 Red. masses --      3.1808                 1.1030                 1.1181
 Frc consts  --      3.9030                 1.4418                 1.4653
 IR Inten    --     18.0438                 1.4911                 2.6371

                     40                     41                     42
                      A                      A                      A
 Frequencies --   1518.8372              1530.0988              3030.2880
 Red. masses --      1.0925                 1.1453                 1.0550
 Frc consts  --      1.4849                 1.5798                 5.7080
 IR Inten    --      1.1964                 1.5446                83.8933

                     43                     44                     45
                      A                      A                      A
 Frequencies --   3046.8642              3051.1102              3069.0257
 Red. masses --      1.0570                 1.0627                 1.0600
 Frc consts  --      5.7813                 5.8290                 5.8822
 IR Inten    --     38.1480                36.3559                32.5197

                     46                     47                     48
                      A                      A                      A
 Frequencies --   3074.3026              3088.1264              3105.2984
 Red. masses --      1.1110                 1.1031                 1.1080
 Frc consts  --      6.1865                 6.1982                 6.2952
 IR Inten    --     26.6639                17.7549                37.9709

                     49                     50                     51
                      A                      A                      A
 Frequencies --   3122.4081              3152.0566              3161.4653
 Red. masses --      1.1089                 1.0885                 1.0933
 Frc consts  --      6.3699                 6.3721                 6.4383
 IR Inten    --     25.5769                13.3212                20.5747

 - Thermochemistry -
 -------------------
 Temperature   298.150 Kelvin.  Pressure   1.00000 Atm.
 Atom     1 has atomic number  6 and mass  12.00000

 Molecular mass:   126.06808 amu.
 Principal axes and moments of inertia in atomic units:
                           1         2         3
     Eigenvalues --   519.207741352.523031389.46619
           X            0.99964   0.01552  -0.02187
           Y           -0.01571   0.99984  -0.00879
           Z            0.02173   0.00913   0.99972
 This molecule is an asymmetric top.
 Rotational symmetry number  1.
 Warning -- assumption of classical behavior for rotation
           may cause significant error
 Rotational temperatures (Kelvin)      0.16682     0.06404     0.06234
 Rotational constants (GHZ):           3.47595     1.33435     1.29887
 Zero-point vibrational energy     422227.8 (Joules/Mol)
                                  100.91486 (Kcal/Mol)
 Warning -- explicit consideration of   8 degrees of freedom as
           vibrations may cause significant error
 Vibrational temperatures:    109.74   222.82   233.82   295.92   363.54
          (Kelvin)            585.94   753.81   877.29   996.44  1026.42
                             1121.88  1186.99  1197.59  1238.36  1272.91
                             1336.29  1382.81  1400.69  1435.11  1476.09
                             1481.39  1526.17  1596.31  1614.31  1662.32
                             1678.09  1689.06  1745.52  1755.26  1758.47
                             1795.93  1820.54  1869.04  1891.58  1947.76
                             2006.81  2076.34  2143.09  2145.82  2185.27
                             2201.47  4359.90  4383.75  4389.86  4415.64
                             4423.23  4443.12  4467.83  4492.44  4535.10
                             4548.64

 Zero-point correction=                           0.160818 (Hartree/Particle)
 Thermal correction to Energy=                    0.168462
 Thermal correction to Enthalpy=                  0.169406
 Thermal correction to Gibbs Free Energy=         0.128336
 Sum of electronic and zero-point Energies=           -422.985728
 Sum of electronic and thermal Energies=              -422.978084
 Sum of electronic and thermal Enthalpies=            -422.977140
 Sum of electronic and thermal Free Energies=         -423.018210

                     E (Thermal)             CV                S
                      KCal/Mol        Cal/Mol-Kelvin    Cal/Mol-Kelvin
 Total                  105.711             29.312             86.438
 Electronic               0.000              0.000              0.000
 Translational            0.889              2.981             40.409
 Rotational               0.889              2.981             28.369
 Vibrational            103.934             23.350             17.660
 Vibration     1          0.599              1.965              3.985
 Vibration     2          0.620              1.897              2.612
 Vibration     3          0.623              1.888              2.520
 Vibration     4          0.640              1.832              2.082
 Vibration     5          0.664              1.758              1.712
 Vibration     6          0.772              1.454              0.936
 Vibration     7          0.879              1.197              0.601
 Vibration     8          0.969              1.011              0.433

 Optimization completed.
    -- Stationary point found.
 Normal termination of Gaussian 09 at Mon Jan 27 12:57:36 2020.
