 Gaussian 09, Revision D.01,
 Gaussian 09:  ES64L-G09RevD.01 24-Apr-2013

 -----------------------------
 # b3lyp 6-31G(2df,p) opt Freq
 -----------------------------

 -----
 titel
 -----
 Symbolic Z-matrix:
 Charge =  0 Multiplicity = 1

 SCF Done:  E(RB3LYP) =  -423.132087686     A.U. after   14 cycles
 Optimization completed.
    -- Stationary point found.
 Normal termination of Gaussian 09 at Mon Jan 27 14:26:59 2020.

 ----------------------------------------------------------------------
 #N Geom=AllCheck Guess=TCheck SCRF=Check GenChk RB3LYP/6-31G(2df,p) Fr
 eq
 ----------------------------------------------------------------------

 Structure from the checkpoint file:  "/scratch/puck/g09_403aa5f7-cb86-4e97-bc4d-cf39ef51aee4/Gau-159427.chk"
 -----
 titel
 -----
 Charge =  0 Multiplicity = 1

                         Standard orientation:
 ---------------------------------------------------------------------
 Center     Atomic      Atomic             Coordinates (Angstroms)
 Number     Number       Type             X           Y           Z
 ---------------------------------------------------------------------
      1          6           0       -2.989585    1.036561    0.775670
      2          6           0       -2.563077    0.033247   -0.306618
      3          8           0       -3.099717   -1.265086   -0.052422
      4          6           0       -1.106156   -0.000178   -0.463502
      5          6           0        0.096327   -0.052298   -0.547076
      6          6           0        1.522369   -0.117840   -0.665649
      7          6           0        2.382920    1.129264   -0.444405
      8          6           0        2.409014    0.008741    0.551717
      9          8           0        3.499803   -0.859736    0.585776
     10          1           0       -2.660963    2.048644    0.521445
     11          1           0       -4.078530    1.026641    0.870856
     12          1           0       -2.549360    0.767028    1.741136
     13          1           0       -3.019341    0.332563   -1.258456
     14          1           0       -2.575538   -1.656162    0.655265
     15          1           0        1.907502   -0.805313   -1.413010
     16          1           0        3.243438    1.234761   -1.095393
     17          1           0        1.876283    2.050015   -0.180379
     18          1           0        1.904466    0.167898    1.503768
     19          1           0        4.240486   -0.392484    0.987107
 ---------------------------------------------------------------------

 SCF Done:  E(RB3LYP) =  -423.132087686     A.U. after    1 cycles

 The electronic state is 1-A.
 Alpha  occ. eigenvalues --  -19.15109 -19.13316 -10.25098 -10.24695 -10.21385
 Alpha  occ. eigenvalues --  -10.19685 -10.17785 -10.17721 -10.16903  -1.03738
 Alpha  occ. eigenvalues --   -1.01620  -0.86272  -0.77492  -0.72654  -0.64869
 Alpha  occ. eigenvalues --   -0.61829  -0.61032  -0.54509  -0.52544  -0.50055
 Alpha  occ. eigenvalues --   -0.46076  -0.45020  -0.43081  -0.41365  -0.39411
 Alpha  occ. eigenvalues --   -0.38546  -0.37416  -0.35606  -0.34131  -0.31627
 Alpha  occ. eigenvalues --   -0.28331  -0.27611  -0.24816  -0.23828
 Alpha virt. eigenvalues --    0.03373   0.04841   0.07879   0.09763   0.11146
 Alpha virt. eigenvalues --    0.12248   0.13560   0.14289   0.15618   0.16537
 Alpha virt. eigenvalues --    0.17043   0.17853   0.18731   0.22785   0.23988

 Mulliken charges:
               1
     1  C   -0.381390
     2  C   -0.014780
     3  O   -0.415836
     4  C    0.105733
     5  C    0.018207
     6  C   -0.204276
     7  C   -0.314595
     8  C    0.111927
     9  O   -0.421082
    10  H    0.121230
    11  H    0.124060
    12  H    0.114121
    13  H    0.114995
    14  H    0.281363
    15  H    0.124859
    16  H    0.121623
    17  H    0.124643
    18  H    0.098966
    19  H    0.290233
 Sum of Mulliken charges =   0.00000

 Dipole moment (field-independent basis, Debye):
    X=              2.0019    Y=              1.9990    Z=              1.3921  Tot=              3.1530
 Quadrupole moment (field-independent basis, Debye-Ang):
   XX=            -49.5845   YY=            -54.7171   ZZ=            -51.0210
   XY=              0.7884   XZ=             -0.1333   YZ=             -1.0850

  Exact polarizability: 120.977   0.702  66.926  -0.664  -0.758  63.038
 Approx polarizability: 165.174   1.997  97.914   0.834  -1.789  92.392

                      1                      2                      3
                      A                      A                      A
 Frequencies --     22.1735                72.4385                77.4751
 Red. masses --      3.3188                 4.9441                 3.7065
 Frc consts  --      0.0010                 0.0153                 0.0131
 IR Inten    --      0.3786                 0.4339                 0.6317

                      4                      5                      6
                      A                      A                      A
 Frequencies --    174.5747               206.7494               255.6431
 Red. masses --      3.6005                 2.4968                 1.1157
 Frc consts  --      0.0647                 0.0629                 0.0430
 IR Inten    --      2.4474                 8.7129                17.4013

                      7                      8                      9
                      A                      A                      A
 Frequencies --    269.0262               289.2654               320.7154
 Red. masses --      1.2729                 1.4560                 2.5686
 Frc consts  --      0.0543                 0.0718                 0.1557
 IR Inten    --     41.6084               123.6740                18.7816

                     10                     11                     12
                      A                      A                      A
 Frequencies --    368.9068               410.4132               452.2358
 Red. masses --      3.1577                 3.3429                 3.6053
 Frc consts  --      0.2532                 0.3318                 0.4344
 IR Inten    --      8.9039                13.0433                16.7965

                     13                     14                     15
                      A                      A                      A
 Frequencies --    504.6127               564.9604               578.4475
 Red. masses --      3.2638                 5.5190                 4.3182
 Frc consts  --      0.4897                 1.0379                 0.8513
 IR Inten    --      9.4412                 4.7742                 5.4656

                     16                     17                     18
                      A                      A                      A
 Frequencies --    711.7287               807.8967               862.0398
 Red. masses --      2.3405                 2.3492                 2.3854
 Frc consts  --      0.6985                 0.9034                 1.0444
 IR Inten    --      3.1290                 5.1721                 3.0072

                     19                     20                     21
                      A                      A                      A
 Frequencies --    899.9346               928.3215               947.0084
 Red. masses --      3.3474                 1.7567                 2.1644
 Frc consts  --      1.5973                 0.8919                 1.1437
 IR Inten    --     53.2341                18.4899                 5.9590

                     22                     23                     24
                      A                      A                      A
 Frequencies --   1024.6552              1052.1488              1079.4400
 Red. masses --      1.8106                 1.3402                 1.9699
 Frc consts  --      1.1200                 0.8741                 1.3524
 IR Inten    --     39.4451                11.3048                14.9951

                     25                     26                     27
                      A                      A                      A
 Frequencies --   1089.1980              1096.5842              1114.3635
 Red. masses --      1.3964                 1.6995                 1.6176
 Frc consts  --      0.9760                 1.2041                 1.1835
 IR Inten    --      8.0193                63.3603                45.0659

                     28                     29                     30
                      A                      A                      A
 Frequencies --   1167.0692              1204.5507              1221.4842
 Red. masses --      2.3770                 2.4534                 1.6096
 Frc consts  --      1.9075                 2.0974                 1.4149
 IR Inten    --      9.8521                44.1976                31.5683

                     31                     32                     33
                      A                      A                      A
 Frequencies --   1278.3434              1293.2805              1338.5304
 Red. masses --      1.3482                 1.1911                 1.3265
 Frc consts  --      1.2981                 1.1738                 1.4003
 IR Inten    --      6.4866                53.5188                22.7732

                     34                     35                     36
                      A                      A                      A
 Frequencies --   1352.1863              1397.1692              1416.6201
 Red. masses --      1.5751                 1.2385                 1.1999
 Frc consts  --      1.6968                 1.4244                 1.4187
 IR Inten    --      9.6052                 5.1892                94.2247

                     37                     38                     39
                      A                      A                      A
 Frequencies --   1428.2439              1481.3612              1487.8609
 Red. masses --      1.3656                 1.5844                 1.0567
 Frc consts  --      1.6413                 2.0485                 1.3783
 IR Inten    --      5.7742                13.3266                 9.2639

                     40                     41                     42
                      A                      A                      A
 Frequencies --   1491.9277              2352.8418              3032.1583
 Red. masses --      1.0810                11.8856                 1.0802
 Frc consts  --      1.4177                38.7666                 5.8515
 IR Inten    --      2.0408                28.7306                17.9491

                     43                     44                     45
                      A                      A                      A
 Frequencies --   3038.7944              3113.5953              3114.0854
 Red. masses --      1.0368                 1.1006                 1.0889
 Frc consts  --      5.6410                 6.2862                 6.2216
 IR Inten    --     16.9398                21.6555                28.0748

                     46                     47                     48
                      A                      A                      A
 Frequencies --   3125.9277              3141.5941              3155.3662
 Red. masses --      1.1030                 1.0543                 1.0865
 Frc consts  --      6.3503                 6.1305                 6.3733
 IR Inten    --     24.6855                 6.7829                 5.5098

                     49                     50                     51
                      A                      A                      A
 Frequencies --   3238.0540              3800.3646              3806.1819
 Red. masses --      1.1180                 1.0661                 1.0661
 Frc consts  --      6.9067                 9.0721                 9.0997
 IR Inten    --      5.2145                23.7199                17.0661

 - Thermochemistry -
 -------------------
 Temperature   298.150 Kelvin.  Pressure   1.00000 Atm.
 Atom     1 has atomic number  6 and mass  12.00000

 Molecular mass:   126.06808 amu.
 Principal axes and moments of inertia in atomic units:
                           1         2         3
     Eigenvalues --   446.143873020.861123153.55929
           X            0.99995  -0.00441  -0.00907
           Y            0.00469   0.99948   0.03180
           Z            0.00892  -0.03184   0.99945
 This molecule is an asymmetric top.
 Rotational symmetry number  1.
 Warning -- assumption of classical behavior for rotation
           may cause significant error
 Rotational temperatures (Kelvin)      0.19414     0.02867     0.02747
 Rotational constants (GHZ):           4.04520     0.59743     0.57229
 Zero-point vibrational energy     410669.3 (Joules/Mol)
                                   98.15232 (Kcal/Mol)
 Warning -- explicit consideration of  15 degrees of freedom as
           vibrations may cause significant error
 Vibrational temperatures:     31.90   104.22   111.47   251.17   297.47
          (Kelvin)            367.81   387.07   416.19   461.44   530.77
                              590.49   650.67   726.02   812.85   832.26
                             1024.02  1162.38  1240.28  1294.80  1335.65
                             1362.53  1474.25  1513.81  1553.07  1567.11
                             1577.74  1603.32  1679.15  1733.08  1757.44
                             1839.25  1860.74  1925.84  1945.49  2010.21
                             2038.20  2054.92  2131.35  2140.70  2146.55
                             3385.21  4362.59  4372.14  4479.76  4480.47
                             4497.51  4520.05  4539.86  4658.83  5467.87
                             5476.24

 Zero-point correction=                           0.156416 (Hartree/Particle)
 Thermal correction to Energy=                    0.166795
 Thermal correction to Enthalpy=                  0.167739
 Thermal correction to Gibbs Free Energy=         0.119531
 Sum of electronic and zero-point Energies=           -422.975672
 Sum of electronic and thermal Energies=              -422.965293
 Sum of electronic and thermal Enthalpies=            -422.964349
 Sum of electronic and thermal Free Energies=         -423.012557

                     E (Thermal)             CV                S
                      KCal/Mol        Cal/Mol-Kelvin    Cal/Mol-Kelvin
 Total                  104.665             37.098            101.462
 Electronic               0.000              0.000              0.000
 Translational            0.889              2.981             40.409
 Rotational               0.889              2.981             29.831
 Vibrational            102.888             31.137             31.222
 Vibration     1          0.593              1.985              6.429
 Vibration     2          0.599              1.967              4.086
 Vibration     3          0.599              1.964              3.954
 Vibration     4          0.627              1.874              2.386
 Vibration     5          0.641              1.830              2.072
 Vibration     6          0.666              1.753              1.691
 Vibration     7          0.673              1.730              1.602
 Vibration     8          0.686              1.694              1.478
 Vibration     9          0.706              1.634              1.306
 Vibration    10          0.741              1.536              1.084
 Vibration    11          0.775              1.448              0.925
 Vibration    12          0.811              1.356              0.789
 Vibration    13          0.860              1.240              0.647
 Vibration    14          0.921              1.107              0.514
 Vibration    15          0.935              1.078              0.488

 Optimization completed on the basis of negligible forces.
    -- Stationary point found.
 Normal termination of Gaussian 09 at Mon Jan 27 14:59:00 2020.
