 Gaussian 09, Revision D.01,
 Gaussian 09:  ES64L-G09RevD.01 24-Apr-2013

 -----------------------------
 # b3lyp 6-31G(2df,p) opt Freq
 -----------------------------

 -----
 titel
 -----
 Symbolic Z-matrix:
 Charge =  0 Multiplicity = 1

 SCF Done:  E(RB3LYP) =  -423.170973029     A.U. after   13 cycles
 Optimization completed.
    -- Stationary point found.
 Normal termination of Gaussian 09 at Mon Jan 27 18:46:57 2020.

 ----------------------------------------------------------------------
 #N Geom=AllCheck Guess=TCheck SCRF=Check GenChk RB3LYP/6-31G(2df,p) Fr
 eq
 ----------------------------------------------------------------------

 Structure from the checkpoint file:  "/scratch/puck/g09_4eb49220-19d6-47c6-a7b4-6ad96bb03295/Gau-76623.chk"
 -----
 titel
 -----
 Charge =  0 Multiplicity = 1

                         Standard orientation:
 ---------------------------------------------------------------------
 Center     Atomic      Atomic             Coordinates (Angstroms)
 Number     Number       Type             X           Y           Z
 ---------------------------------------------------------------------
      1          8           0       -0.518069    1.832543   -0.766824
      2          6           0       -0.480788    0.641805   -0.025241
      3          6           0       -1.808310    0.306278    0.677501
      4          6           0       -1.655756   -1.169779    0.219316
      5          6           0       -0.514749   -0.753922   -0.761058
      6          6           0        0.839055   -1.464366   -0.581774
      7          6           0        1.554734   -0.635842    0.477341
      8          8           0        1.936603    0.668589    0.005732
      9          6           0        0.769290    0.553364    0.838250
     10          1           0        0.376411    1.969046   -1.105933
     11          1           0       -1.872321    0.505070    1.750933
     12          1           0       -2.631386    0.819026    0.174755
     13          1           0       -1.297685   -1.827899    1.016553
     14          1           0       -2.535706   -1.630117   -0.233477
     15          1           0       -0.852784   -0.684428   -1.796140
     16          1           0        0.712802   -2.500461   -0.248328
     17          1           0        1.436216   -1.487776   -1.499495
     18          1           0        2.266447   -1.091516    1.161649
     19          1           0        0.828883    1.054770    1.802212
 ---------------------------------------------------------------------

 SCF Done:  E(RB3LYP) =  -423.170973029     A.U. after    1 cycles

 The electronic state is 1-A.
 Alpha  occ. eigenvalues --  -19.15652 -19.13232 -10.24125 -10.23429 -10.23390
 Alpha  occ. eigenvalues --  -10.18837 -10.18398 -10.18380 -10.17972  -1.07778
 Alpha  occ. eigenvalues --   -1.01606  -0.84713  -0.75364  -0.69380  -0.65027
 Alpha  occ. eigenvalues --   -0.62566  -0.58244  -0.53803  -0.53268  -0.49758
 Alpha  occ. eigenvalues --   -0.46092  -0.44884  -0.43407  -0.41345  -0.39609
 Alpha  occ. eigenvalues --   -0.37095  -0.36083  -0.34938  -0.33972  -0.32250
 Alpha  occ. eigenvalues --   -0.30765  -0.29546  -0.27717  -0.24413
 Alpha virt. eigenvalues --    0.07616   0.08796   0.10526   0.10828   0.11295
 Alpha virt. eigenvalues --    0.12661   0.13298   0.15220   0.15826   0.17169
 Alpha virt. eigenvalues --    0.17897   0.18917   0.20278   0.21363   0.21890

 Mulliken charges:
               1
     1  O   -0.486902
     2  C    0.423476
     3  C   -0.286893
     4  C   -0.232137
     5  C   -0.062753
     6  C   -0.274816
     7  C    0.058636
     8  O   -0.271492
     9  C   -0.058247
    10  H    0.286359
    11  H    0.095968
    12  H    0.118274
    13  H    0.098206
    14  H    0.105877
    15  H    0.074806
    16  H    0.102113
    17  H    0.113319
    18  H    0.097789
    19  H    0.098416
 Sum of Mulliken charges =   0.00000

 Dipole moment (field-independent basis, Debye):
    X=             -0.0180    Y=             -1.8714    Z=              0.8133  Tot=              2.0406
 Quadrupole moment (field-independent basis, Debye-Ang):
   XX=            -55.1983   YY=            -54.4975   ZZ=            -50.7391
   XY=             -0.0332   XZ=              0.1043   YZ=              0.6768

  Exact polarizability:  78.199  -2.350  74.742  -0.859   1.751  66.879
 Approx polarizability: 109.074  -2.618 111.812  -3.486  -0.718 101.913

                      1                      2                      3
                      A                      A                      A
 Frequencies --    101.7964               204.0082               244.7711
 Red. masses --      2.2802                 3.5050                 3.3810
 Frc consts  --      0.0139                 0.0859                 0.1193
 IR Inten    --      0.3722                 3.8642                 2.0871

                      4                      5                      6
                      A                      A                      A
 Frequencies --    341.8742               389.2834               421.7213
 Red. masses --      3.3085                 2.8594                 1.9752
 Frc consts  --      0.2278                 0.2553                 0.2070
 IR Inten    --      3.4756                 0.6075                 4.0065

                      7                      8                      9
                      A                      A                      A
 Frequencies --    455.1886               491.5061               593.0684
 Red. masses --      2.5701                 1.5607                 4.2668
 Frc consts  --      0.3138                 0.2221                 0.8842
 IR Inten    --     14.9653                85.9653                 3.3309

                     10                     11                     12
                      A                      A                      A
 Frequencies --    645.9419               720.6514               753.3302
 Red. masses --      2.9812                 4.0633                 1.6468
 Frc consts  --      0.7329                 1.2433                 0.5506
 IR Inten    --      1.9339                 1.3677                 6.0024

                     13                     14                     15
                      A                      A                      A
 Frequencies --    808.6116               820.9060               851.9640
 Red. masses --      2.6159                 3.4254                 2.3244
 Frc consts  --      1.0078                 1.3600                 0.9940
 IR Inten    --      6.5508                 7.7349                 4.2057

                     16                     17                     18
                      A                      A                      A
 Frequencies --    868.3049               904.0364               943.3215
 Red. masses --      1.9237                 2.1380                 2.7484
 Frc consts  --      0.8545                 1.0295                 1.4409
 IR Inten    --     22.2719                 1.7737                 6.4814

                     19                     20                     21
                      A                      A                      A
 Frequencies --    951.2768               999.6707              1027.2893
 Red. masses --      2.6978                 1.6412                 1.9700
 Frc consts  --      1.4384                 0.9663                 1.2249
 IR Inten    --      2.1637                 4.0460                 4.9820

                     22                     23                     24
                      A                      A                      A
 Frequencies --   1056.1210              1060.3757              1097.8309
 Red. masses --      1.7126                 2.0632                 1.5024
 Frc consts  --      1.1255                 1.3668                 1.0668
 IR Inten    --      1.9206                31.4722                 7.1197

                     25                     26                     27
                      A                      A                      A
 Frequencies --   1126.3608              1149.1420              1152.7204
 Red. masses --      1.7369                 2.1019                 2.3221
 Frc consts  --      1.2983                 1.6354                 1.8180
 IR Inten    --      8.9597                41.1582                39.1412

                     28                     29                     30
                      A                      A                      A
 Frequencies --   1222.2544              1225.8262              1250.3267
 Red. masses --      1.3031                 1.3593                 1.3618
 Frc consts  --      1.1469                 1.2034                 1.2543
 IR Inten    --      2.9978                10.7974                 6.9076

                     31                     32                     33
                      A                      A                      A
 Frequencies --   1253.1314              1266.8996              1283.6213
 Red. masses --      1.4953                 1.3750                 1.5200
 Frc consts  --      1.3835                 1.3002                 1.4756
 IR Inten    --      3.8569                 7.2651                29.0132

                     34                     35                     36
                      A                      A                      A
 Frequencies --   1305.0380              1322.4782              1351.1491
 Red. masses --      1.6894                 1.6026                 1.5602
 Frc consts  --      1.6952                 1.6514                 1.6782
 IR Inten    --      6.9719                 4.0154                 3.7324

                     37                     38                     39
                      A                      A                      A
 Frequencies --   1403.1569              1423.3451              1475.0261
 Red. masses --      1.7428                 3.4397                 1.0853
 Frc consts  --      2.0216                 4.1057                 1.3912
 IR Inten    --     60.7262                26.1196                 1.0782

                     40                     41                     42
                      A                      A                      A
 Frequencies --   1480.0967              1494.5562              3040.2226
 Red. masses --      1.0972                 1.1276                 1.0595
 Frc consts  --      1.4162                 1.4840                 5.7699
 IR Inten    --      3.6737                 3.9804                28.6637

                     43                     44                     45
                      A                      A                      A
 Frequencies --   3055.9197              3061.9801              3079.4513
 Red. masses --      1.0601                 1.0620                 1.1028
 Frc consts  --      5.8328                 5.8664                 6.1614
 IR Inten    --     36.1842                28.1861                14.9267

                     46                     47                     48
                      A                      A                      A
 Frequencies --   3096.6893              3110.1214              3125.1992
 Red. masses --      1.0917                 1.1027                 1.1047
 Frc consts  --      6.1681                 6.2842                 6.3572
 IR Inten    --     17.0592                 7.0017                40.8818

                     49                     50                     51
                      A                      A                      A
 Frequencies --   3132.3554              3147.9849              3767.9422
 Red. masses --      1.0876                 1.0948                 1.0649
 Frc consts  --      6.2873                 6.3924                 8.9079
 IR Inten    --     18.8001                35.8791                24.6752

 - Thermochemistry -
 -------------------
 Temperature   298.150 Kelvin.  Pressure   1.00000 Atm.
 Atom     1 has atomic number  8 and mass  15.99491

 Molecular mass:   126.06808 amu.
 Principal axes and moments of inertia in atomic units:
                           1         2         3
     Eigenvalues --   713.39485 957.571341290.49054
           X            0.99991  -0.00895  -0.00979
           Y            0.00916   0.99972   0.02178
           Z            0.00959  -0.02187   0.99971
 This molecule is an asymmetric top.
 Rotational symmetry number  1.
 Warning -- assumption of classical behavior for rotation
           may cause significant error
 Rotational temperatures (Kelvin)      0.12141     0.09045     0.06712
 Rotational constants (GHZ):           2.52979     1.88471     1.39849
 Zero-point vibrational energy     422017.7 (Joules/Mol)
                                  100.86464 (Kcal/Mol)
 Warning -- explicit consideration of   9 degrees of freedom as
           vibrations may cause significant error
 Vibrational temperatures:    146.46   293.52   352.17   491.88   560.09
          (Kelvin)            606.76   654.91   707.17   853.29   929.37
                             1036.86  1083.87  1163.41  1181.10  1225.78
                             1249.30  1300.71  1357.23  1368.67  1438.30
                             1478.04  1519.52  1525.64  1579.53  1620.58
                             1653.36  1658.51  1758.55  1763.69  1798.94
                             1802.97  1822.78  1846.84  1877.66  1902.75
                             1944.00  2018.83  2047.87  2122.23  2129.53
                             2150.33  4374.20  4396.78  4405.50  4430.64
                             4455.44  4474.77  4496.46  4506.76  4529.24
                             5421.22

 Zero-point correction=                           0.160738 (Hartree/Particle)
 Thermal correction to Energy=                    0.168094
 Thermal correction to Enthalpy=                  0.169038
 Thermal correction to Gibbs Free Energy=         0.129192
 Sum of electronic and zero-point Energies=           -423.010235
 Sum of electronic and thermal Energies=              -423.002879
 Sum of electronic and thermal Enthalpies=            -423.001935
 Sum of electronic and thermal Free Energies=         -423.041781

                     E (Thermal)             CV                S
                      KCal/Mol        Cal/Mol-Kelvin    Cal/Mol-Kelvin
 Total                  105.481             30.161             83.864
 Electronic               0.000              0.000              0.000
 Translational            0.889              2.981             40.409
 Rotational               0.889              2.981             28.268
 Vibrational            103.703             24.199             15.187
 Vibration     1          0.604              1.948              3.420
 Vibration     2          0.640              1.834              2.097
 Vibration     3          0.660              1.771              1.768
 Vibration     4          0.721              1.592              1.203
 Vibration     5          0.757              1.493              1.003
 Vibration     6          0.784              1.423              0.886
 Vibration     7          0.814              1.349              0.780
 Vibration     8          0.847              1.269              0.680
 Vibration     9          0.951              1.047              0.462

 Optimization completed.
    -- Stationary point found.
 Normal termination of Gaussian 09 at Mon Jan 27 19:43:05 2020.
