 Gaussian 09, Revision D.01,
 Gaussian 09:  ES64L-G09RevD.01 24-Apr-2013

 -----------------------------
 # b3lyp 6-31G(2df,p) opt Freq
 -----------------------------

 -----
 titel
 -----
 Symbolic Z-matrix:
 Charge =  0 Multiplicity = 1

 SCF Done:  E(RB3LYP) =  -423.132100399     A.U. after   14 cycles
 Optimization completed.
    -- Stationary point found.
 Normal termination of Gaussian 09 at Mon Jan 27 18:50:14 2020.

 ----------------------------------------------------------------------
 #N Geom=AllCheck Guess=TCheck SCRF=Check GenChk RB3LYP/6-31G(2df,p) Fr
 eq
 ----------------------------------------------------------------------

 Structure from the checkpoint file:  "/scratch/puck/g09_3c7c484b-5106-4920-aefb-3b1a00397be6/Gau-54681.chk"
 -----
 titel
 -----
 Charge =  0 Multiplicity = 1

                         Standard orientation:
 ---------------------------------------------------------------------
 Center     Atomic      Atomic             Coordinates (Angstroms)
 Number     Number       Type             X           Y           Z
 ---------------------------------------------------------------------
      1          8           0       -0.258349    1.918842   -0.583450
      2          6           0       -0.393586    0.616656   -0.119328
      3          6           0       -1.417383    0.457874    1.011000
      4          8           0       -1.999990   -0.709080    0.382862
      5          6           0       -1.158187   -0.588603   -0.780454
      6          6           0        0.114933   -1.465007   -0.679954
      7          6           0        0.846916   -0.285337   -0.008921
      8          6           0        2.251638    0.170471   -0.294839
      9          6           0        1.868955   -0.306345    1.086980
     10          1           0        0.412865    1.922280   -1.274955
     11          1           0       -1.029052    0.247124    2.014012
     12          1           0       -2.129483    1.291087    1.053382
     13          1           0       -1.722691   -0.562578   -1.715555
     14          1           0       -0.022874   -2.360306   -0.069319
     15          1           0        0.535267   -1.747968   -1.650387
     16          1           0        2.879667   -0.466430   -0.909714
     17          1           0        2.431610    1.234611   -0.420752
     18          1           0        2.239353   -1.271481    1.416872
     19          1           0        1.792330    0.437313    1.874228
 ---------------------------------------------------------------------

 SCF Done:  E(RB3LYP) =  -423.132100399     A.U. after    1 cycles

 The electronic state is 1-A.
 Alpha  occ. eigenvalues --  -19.15284 -19.13032 -10.23970 -10.22610 -10.22333
 Alpha  occ. eigenvalues --  -10.20025 -10.19453 -10.19064 -10.18376  -1.04925
 Alpha  occ. eigenvalues --   -1.02356  -0.87027  -0.78243  -0.71279  -0.63181
 Alpha  occ. eigenvalues --   -0.60888  -0.58844  -0.55036  -0.51571  -0.49700
 Alpha  occ. eigenvalues --   -0.47831  -0.45913  -0.42434  -0.41421  -0.40426
 Alpha  occ. eigenvalues --   -0.38466  -0.37160  -0.36412  -0.33476  -0.30551
 Alpha  occ. eigenvalues --   -0.30163  -0.28274  -0.24910  -0.24116
 Alpha virt. eigenvalues --    0.06136   0.08029   0.09505   0.10558   0.11558
 Alpha virt. eigenvalues --    0.11817   0.13019   0.15620   0.16798   0.17245
 Alpha virt. eigenvalues --    0.18083   0.19644   0.20208   0.21634   0.23042

 Mulliken charges:
               1
     1  O   -0.464361
     2  C    0.278579
     3  C   -0.110369
     4  O   -0.291546
     5  C    0.038136
     6  C   -0.327016
     7  C    0.296797
     8  C   -0.347080
     9  C   -0.321559
    10  H    0.282810
    11  H    0.102180
    12  H    0.108098
    13  H    0.077743
    14  H    0.113496
    15  H    0.099447
    16  H    0.116799
    17  H    0.111627
    18  H    0.117811
    19  H    0.118410
 Sum of Mulliken charges =   0.00000

 Dipole moment (field-independent basis, Debye):
    X=              2.2121    Y=              0.0668    Z=             -0.9712  Tot=              2.4169
 Quadrupole moment (field-independent basis, Debye-Ang):
   XX=            -56.7066   YY=            -54.9923   ZZ=            -49.2892
   XY=             -1.1288   XZ=             -0.5014   YZ=              0.2474

  Exact polarizability:  80.947  -0.938  71.728  -0.771   2.505  72.569
 Approx polarizability: 109.796   1.175 106.566  -2.316   1.769 108.472

                      1                      2                      3
                      A                      A                      A
 Frequencies --     82.9105               202.9411               230.5693
 Red. masses --      3.7999                 2.3444                 3.5734
 Frc consts  --      0.0154                 0.0569                 0.1119
 IR Inten    --      0.5057                 0.4774                 0.8189

                      4                      5                      6
                      A                      A                      A
 Frequencies --    238.1408               336.8437               345.1438
 Red. masses --      2.6465                 2.3738                 1.1928
 Frc consts  --      0.0884                 0.1587                 0.0837
 IR Inten    --      1.7767                 0.7552               102.7341

                      7                      8                      9
                      A                      A                      A
 Frequencies --    381.1207               441.7903               466.8890
 Red. masses --      2.9523                 2.8694                 2.3943
 Frc consts  --      0.2527                 0.3300                 0.3075
 IR Inten    --      5.8327                16.1457                 2.0503

                     10                     11                     12
                      A                      A                      A
 Frequencies --    547.9865               655.6251               737.8781
 Red. masses --      3.8434                 3.8964                 2.9342
 Frc consts  --      0.6800                 0.9868                 0.9413
 IR Inten    --      1.7014                 8.0489                 0.8232

                     13                     14                     15
                      A                      A                      A
 Frequencies --    786.3160               820.0862               872.0444
 Red. masses --      1.0652                 2.4812                 2.0231
 Frc consts  --      0.3880                 0.9832                 0.9064
 IR Inten    --      0.0451                 7.3797                 4.2488

                     16                     17                     18
                      A                      A                      A
 Frequencies --    885.8795               919.8866               925.0421
 Red. masses --      2.3633                 1.5377                 2.2102
 Frc consts  --      1.0928                 0.7666                 1.1143
 IR Inten    --      0.3650                 1.1773                14.5473

                     19                     20                     21
                      A                      A                      A
 Frequencies --    974.7615               987.6119              1009.9732
 Red. masses --      2.6419                 2.5226                 4.7019
 Frc consts  --      1.4790                 1.4497                 2.8258
 IR Inten    --     10.0448                15.4053                50.2033

                     22                     23                     24
                      A                      A                      A
 Frequencies --   1049.9438              1058.5674              1071.1549
 Red. masses --      1.4907                 2.1961                 2.3672
 Frc consts  --      0.9682                 1.4499                 1.6002
 IR Inten    --      3.8053                18.9241                21.3145

                     25                     26                     27
                      A                      A                      A
 Frequencies --   1082.5555              1098.1425              1135.0836
 Red. masses --      1.4519                 2.7615                 1.5723
 Frc consts  --      1.0025                 1.9621                 1.1935
 IR Inten    --      5.4038                45.9987                 7.8990

                     28                     29                     30
                      A                      A                      A
 Frequencies --   1161.9396              1170.7605              1191.7816
 Red. masses --      1.2269                 1.4852                 1.2912
 Frc consts  --      0.9759                 1.1994                 1.0805
 IR Inten    --      4.2852                 1.4887                 1.1527

                     31                     32                     33
                      A                      A                      A
 Frequencies --   1212.5274              1255.9891              1282.3267
 Red. masses --      2.4538                 1.5321                 1.5346
 Frc consts  --      2.1256                 1.4240                 1.4868
 IR Inten    --     58.4109                 2.0034                20.6655

                     34                     35                     36
                      A                      A                      A
 Frequencies --   1317.5120              1333.5968              1380.5546
 Red. masses --      1.9179                 1.7135                 2.4575
 Frc consts  --      1.9615                 1.7955                 2.7596
 IR Inten    --     27.1008                42.8488                28.2717

                     37                     38                     39
                      A                      A                      A
 Frequencies --   1398.5062              1460.1513              1468.7791
 Red. masses --      2.0445                 1.0897                 1.1259
 Frc consts  --      2.3559                 1.3689                 1.4310
 IR Inten    --     10.8848                 1.6996                 8.5377

                     40                     41                     42
                      A                      A                      A
 Frequencies --   1498.3856              1512.5898              3018.9285
 Red. masses --      1.4568                 1.1103                 1.0548
 Frc consts  --      1.9271                 1.4967                 5.6639
 IR Inten    --      0.3032                 1.8100                62.8796

                     43                     44                     45
                      A                      A                      A
 Frequencies --   3047.3120              3071.6968              3083.5175
 Red. masses --      1.0611                 1.1110                 1.0896
 Frc consts  --      5.8053                 6.1764                 6.1040
 IR Inten    --     24.9546                31.4557                53.0331

                     46                     47                     48
                      A                      A                      A
 Frequencies --   3111.7418              3115.7158              3124.9328
 Red. masses --      1.1049                 1.0525                 1.0554
 Frc consts  --      6.3036                 6.0198                 6.0722
 IR Inten    --     16.9138                17.4429                11.0987

                     49                     50                     51
                      A                      A                      A
 Frequencies --   3196.7785              3213.4156              3802.8337
 Red. masses --      1.1173                 1.1157                 1.0655
 Frc consts  --      6.7272                 6.7879                 9.0784
 IR Inten    --      1.3866                13.5460                15.7008

 - Thermochemistry -
 -------------------
 Temperature   298.150 Kelvin.  Pressure   1.00000 Atm.
 Atom     1 has atomic number  8 and mass  15.99491

 Molecular mass:   126.06808 amu.
 Principal axes and moments of inertia in atomic units:
                           1         2         3
     Eigenvalues --   684.967851133.817701337.78150
           X            0.99979  -0.02036   0.00014
           Y            0.02034   0.99897   0.04052
           Z           -0.00097  -0.04051   0.99918
 This molecule is an asymmetric top.
 Rotational symmetry number  1.
 Warning -- assumption of classical behavior for rotation
           may cause significant error
 Rotational temperatures (Kelvin)      0.12645     0.07639     0.06474
 Rotational constants (GHZ):           2.63478     1.59174     1.34906
 Zero-point vibrational energy     417360.1 (Joules/Mol)
                                   99.75146 (Kcal/Mol)
 Warning -- explicit consideration of  10 degrees of freedom as
           vibrations may cause significant error
 Vibrational temperatures:    119.29   291.99   331.74   342.63   484.64
          (Kelvin)            496.58   548.35   635.64   671.75   788.43
                              943.30  1061.64  1131.33  1179.92  1254.68
                             1274.58  1323.51  1330.93  1402.46  1420.95
                             1453.12  1510.63  1523.04  1541.15  1557.55
                             1579.98  1633.13  1671.77  1684.46  1714.71
                             1744.55  1807.09  1844.98  1895.60  1918.75
                             1986.31  2012.14  2100.83  2113.24  2155.84
                             2176.28  4343.56  4384.40  4419.48  4436.49
                             4477.10  4482.81  4496.08  4599.45  4623.38
                             5471.42

 Zero-point correction=                           0.158964 (Hartree/Particle)
 Thermal correction to Energy=                    0.166952
 Thermal correction to Enthalpy=                  0.167896
 Thermal correction to Gibbs Free Energy=         0.126705
 Sum of electronic and zero-point Energies=           -422.973136
 Sum of electronic and thermal Energies=              -422.965148
 Sum of electronic and thermal Enthalpies=            -422.964204
 Sum of electronic and thermal Free Energies=         -423.005395

                     E (Thermal)             CV                S
                      KCal/Mol        Cal/Mol-Kelvin    Cal/Mol-Kelvin
 Total                  104.764             31.785             86.693
 Electronic               0.000              0.000              0.000
 Translational            0.889              2.981             40.409
 Rotational               0.889              2.981             28.432
 Vibrational            102.987             25.823             17.853
 Vibration     1          0.600              1.961              3.821
 Vibration     2          0.639              1.836              2.106
 Vibration     3          0.652              1.794              1.875
 Vibration     4          0.656              1.782              1.817
 Vibration     5          0.718              1.602              1.227
 Vibration     6          0.724              1.585              1.188
 Vibration     7          0.751              1.510              1.035
 Vibration     8          0.802              1.379              0.821
 Vibration     9          0.824              1.324              0.746
 Vibration    10          0.903              1.144              0.548

 Normal termination of Gaussian 09 at Mon Jan 27 19:34:15 2020.
