 Gaussian 09, Revision D.01,
 Gaussian 09:  ES64L-G09RevD.01 24-Apr-2013

 -----------------------------
 # b3lyp 6-31G(2df,p) opt Freq
 -----------------------------

 -----
 titel
 -----
 Symbolic Z-matrix:
 Charge =  0 Multiplicity = 1

 SCF Done:  E(RB3LYP) =  -423.155015124     A.U. after   14 cycles
 Optimization completed.
    -- Stationary point found.
 Normal termination of Gaussian 09 at Mon Jan 27 17:57:58 2020.

 ----------------------------------------------------------------------
 #N Geom=AllCheck Guess=TCheck SCRF=Check GenChk RB3LYP/6-31G(2df,p) Fr
 eq
 ----------------------------------------------------------------------

 Structure from the checkpoint file:  "/scratch/puck/g09_b3c178bc-0690-45e0-8b02-af539545e871/Gau-169857.chk"
 -----
 titel
 -----
 Charge =  0 Multiplicity = 1

                         Standard orientation:
 ---------------------------------------------------------------------
 Center     Atomic      Atomic             Coordinates (Angstroms)
 Number     Number       Type             X           Y           Z
 ---------------------------------------------------------------------
      1          6           0        2.208900   -0.641591   -0.821221
      2          6           0        1.008157   -0.208852   -0.004294
      3          6           0        1.205115    0.744731    1.155904
      4          6           0        0.529328    1.220656   -0.102012
      5          8           0       -0.841834    1.485964   -0.021292
      6          6           0       -1.678889    0.590290   -0.728531
      7          6           0       -1.445362   -0.853595   -0.329970
      8          8           0       -1.122295   -1.074749    1.044796
      9          6           0       -0.087149   -1.241921    0.071207
     10          1           0        2.727625   -1.481714   -0.344530
     11          1           0        1.916951   -0.957260   -1.829865
     12          1           0        2.928105    0.175958   -0.924484
     13          1           0        0.555670    0.615188    2.013304
     14          1           0        2.212379    1.086691    1.368534
     15          1           0        1.064938    1.898293   -0.766225
     16          1           0       -2.702636    0.895709   -0.489593
     17          1           0       -1.547375    0.678384   -1.820937
     18          1           0       -2.119019   -1.584598   -0.777748
     19          1           0        0.235790   -2.274688   -0.062984
 ---------------------------------------------------------------------

 SCF Done:  E(RB3LYP) =  -423.155015124     A.U. after    1 cycles

 The electronic state is 1-A.
 Alpha  occ. eigenvalues --  -19.15119 -19.14408 -10.23916 -10.23653 -10.23497
 Alpha  occ. eigenvalues --  -10.23184 -10.20194 -10.18686 -10.18043  -1.07754
 Alpha  occ. eigenvalues --   -1.03475  -0.86122  -0.74661  -0.71332  -0.66897
 Alpha  occ. eigenvalues --   -0.62745  -0.58086  -0.54216  -0.51466  -0.50594
 Alpha  occ. eigenvalues --   -0.46896  -0.45451  -0.43278  -0.42366  -0.40715
 Alpha  occ. eigenvalues --   -0.39908  -0.38251  -0.36098  -0.35728  -0.33171
 Alpha  occ. eigenvalues --   -0.29386  -0.27071  -0.25500  -0.24867
 Alpha virt. eigenvalues --    0.08912   0.09275   0.10254   0.11384   0.12091
 Alpha virt. eigenvalues --    0.12646   0.13851   0.14916   0.15538   0.16887
 Alpha virt. eigenvalues --    0.17326   0.18126   0.19653   0.20774   0.22019

 Mulliken charges:
               1
     1  C   -0.477145
     2  C    0.278598
     3  C   -0.344043
     4  C    0.052768
     5  O   -0.249861
     6  C   -0.114716
     7  C    0.032301
     8  O   -0.252046
     9  C   -0.012880
    10  H    0.122823
    11  H    0.118852
    12  H    0.120903
    13  H    0.139526
    14  H    0.107050
    15  H    0.085079
    16  H    0.121019
    17  H    0.092312
    18  H    0.092865
    19  H    0.086596
 Sum of Mulliken charges =   0.00000

 Dipole moment (field-independent basis, Debye):
    X=              0.9595    Y=             -0.8526    Z=             -2.1546  Tot=              2.5079
 Quadrupole moment (field-independent basis, Debye-Ang):
   XX=            -49.5963   YY=            -54.7630   ZZ=            -54.1267
   XY=              1.0486   XZ=              3.1110   YZ=              1.2049

  Exact polarizability:  85.197   0.100  70.889   4.597   1.736  67.135
 Approx polarizability: 115.375  -1.330 103.946   4.820   1.773 105.744

                      1                      2                      3
                      A                      A                      A
 Frequencies --    156.9407               193.2283               221.9417
 Red. masses --      2.7641                 1.7188                 1.5149
 Frc consts  --      0.0401                 0.0378                 0.0440
 IR Inten    --      1.1219                 2.0846                 1.7007

                      4                      5                      6
                      A                      A                      A
 Frequencies --    274.0025               309.0193               340.1684
 Red. masses --      3.7299                 2.6956                 2.6192
 Frc consts  --      0.1650                 0.1517                 0.1786
 IR Inten    --      0.5537                 0.1249                 3.1864

                      7                      8                      9
                      A                      A                      A
 Frequencies --    442.8871               486.3392               497.7603
 Red. masses --      2.7102                 5.3728                 3.3518
 Frc consts  --      0.3132                 0.7487                 0.4893
 IR Inten    --      1.9310                 5.3441                 5.1469

                     10                     11                     12
                      A                      A                      A
 Frequencies --    538.6997               675.0196               779.3960
 Red. masses --      3.7801                 4.3794                 2.8528
 Frc consts  --      0.6463                 1.1757                 1.0210
 IR Inten    --      5.6318                10.3357                18.9246

                     13                     14                     15
                      A                      A                      A
 Frequencies --    790.3111               839.9717               872.2297
 Red. masses --      2.8513                 2.3600                 3.2089
 Frc consts  --      1.0493                 0.9811                 1.4384
 IR Inten    --      3.2804                 6.7505                 6.1902

                     16                     17                     18
                      A                      A                      A
 Frequencies --    885.8737               944.8535               956.4683
 Red. masses --      2.0397                 1.6043                 2.2839
 Frc consts  --      0.9431                 0.8438                 1.2310
 IR Inten    --     15.7211                 3.2723                12.4305

                     19                     20                     21
                      A                      A                      A
 Frequencies --    961.3375              1018.5095              1039.7579
 Red. masses --      3.0117                 1.4843                 1.6280
 Frc consts  --      1.6399                 0.9072                 1.0370
 IR Inten    --      5.0509                 5.7881                 6.7415

                     22                     23                     24
                      A                      A                      A
 Frequencies --   1059.1865              1073.4916              1100.5841
 Red. masses --      1.7336                 1.9967                 1.9655
 Frc consts  --      1.1459                 1.3557                 1.4027
 IR Inten    --      3.1266                19.9772                 4.5374

                     25                     26                     27
                      A                      A                      A
 Frequencies --   1119.7672              1129.8266              1143.4061
 Red. masses --      1.4970                 1.8616                 1.4687
 Frc consts  --      1.1059                 1.4001                 1.1313
 IR Inten    --      8.5934                 3.2458                 1.2832

                     28                     29                     30
                      A                      A                      A
 Frequencies --   1195.9276              1246.4825              1263.5511
 Red. masses --      3.9387                 2.1875                 1.3459
 Frc consts  --      3.3190                 2.0025                 1.2660
 IR Inten    --     91.6100                 2.4774                 9.7514

                     31                     32                     33
                      A                      A                      A
 Frequencies --   1293.0430              1335.4071              1368.0308
 Red. masses --      1.2185                 1.3027                 2.0159
 Frc consts  --      1.2003                 1.3687                 2.2229
 IR Inten    --     11.3675                 0.5387                 2.8966

                     34                     35                     36
                      A                      A                      A
 Frequencies --   1386.1177              1414.4260              1418.6493
 Red. masses --      1.6466                 1.2089                 1.4522
 Frc consts  --      1.8640                 1.4249                 1.7220
 IR Inten    --      5.5267                 3.3880                 5.3509

                     37                     38                     39
                      A                      A                      A
 Frequencies --   1462.2640              1480.9561              1491.3333
 Red. masses --      1.9469                 1.6550                 1.0516
 Frc consts  --      2.4528                 2.1386                 1.3780
 IR Inten    --     12.6004                10.9257                 1.2933

                     40                     41                     42
                      A                      A                      A
 Frequencies --   1494.3136              1501.5464              2961.3192
 Red. masses --      1.2269                 1.1164                 1.0706
 Frc consts  --      1.6141                 1.4830                 5.5317
 IR Inten    --      8.5716                 5.1801                61.3276

                     43                     44                     45
                      A                      A                      A
 Frequencies --   3022.5349              3075.9822              3081.6773
 Red. masses --      1.0364                 1.0909                 1.1011
 Frc consts  --      5.5786                 6.0813                 6.1608
 IR Inten    --     30.0725                26.5919                23.4401

                     46                     47                     48
                      A                      A                      A
 Frequencies --   3099.5424              3102.0803              3107.2806
 Red. masses --      1.0875                 1.0893                 1.0956
 Frc consts  --      6.1559                 6.1759                 6.2322
 IR Inten    --     17.3793                19.8715                37.6134

                     49                     50                     51
                      A                      A                      A
 Frequencies --   3114.7308              3138.0407              3237.6761
 Red. masses --      1.0919                 1.0555                 1.1163
 Frc consts  --      6.2410                 6.1241                 6.8944
 IR Inten    --     48.1467                13.0505                 2.9794

 - Thermochemistry -
 -------------------
 Temperature   298.150 Kelvin.  Pressure   1.00000 Atm.
 Atom     1 has atomic number  6 and mass  12.00000

 Molecular mass:   126.06808 amu.
 Principal axes and moments of inertia in atomic units:
                           1         2         3
     Eigenvalues --   703.631411023.909061268.21295
           X            0.99983  -0.01506   0.01089
           Y            0.01456   0.99889   0.04469
           Z           -0.01155  -0.04453   0.99894
 This molecule is an asymmetric top.
 Rotational symmetry number  1.
 Warning -- assumption of classical behavior for rotation
           may cause significant error
 Rotational temperatures (Kelvin)      0.12310     0.08459     0.06830
 Rotational constants (GHZ):           2.56490     1.76260     1.42306
 Zero-point vibrational energy     419553.6 (Joules/Mol)
                                  100.27573 (Kcal/Mol)
 Warning -- explicit consideration of  10 degrees of freedom as
           vibrations may cause significant error
 Vibrational temperatures:    225.80   278.01   319.32   394.23   444.61
          (Kelvin)            489.43   637.21   699.73   716.17   775.07
                              971.20  1121.38  1137.08  1208.53  1254.94
                             1274.57  1359.43  1376.14  1383.15  1465.41
                             1495.98  1523.93  1544.51  1583.49  1611.09
                             1625.57  1645.10  1720.67  1793.41  1817.97
                             1860.40  1921.35  1968.29  1994.31  2035.04
                             2041.12  2103.87  2130.76  2145.69  2149.98
                             2160.39  4260.67  4348.75  4425.65  4433.84
                             4459.54  4463.20  4470.68  4481.40  4514.93
                             4658.29

 Zero-point correction=                           0.159800 (Hartree/Particle)
 Thermal correction to Energy=                    0.167465
 Thermal correction to Enthalpy=                  0.168409
 Thermal correction to Gibbs Free Energy=         0.128138
 Sum of electronic and zero-point Energies=           -422.995216
 Sum of electronic and thermal Energies=              -422.987550
 Sum of electronic and thermal Enthalpies=            -422.986606
 Sum of electronic and thermal Free Energies=         -423.026878

                     E (Thermal)             CV                S
                      KCal/Mol        Cal/Mol-Kelvin    Cal/Mol-Kelvin
 Total                  105.086             30.744             84.758
 Electronic               0.000              0.000              0.000
 Translational            0.889              2.981             40.409
 Rotational               0.889              2.981             28.304
 Vibrational            103.308             24.782             16.046
 Vibration     1          0.621              1.895              2.586
 Vibration     2          0.635              1.849              2.197
 Vibration     3          0.648              1.808              1.943
 Vibration     4          0.676              1.721              1.571
 Vibration     5          0.698              1.657              1.368
 Vibration     6          0.720              1.595              1.211
 Vibration     7          0.803              1.377              0.818
 Vibration     8          0.842              1.280              0.693
 Vibration     9          0.853              1.255              0.664
 Vibration    10          0.894              1.164              0.568

 Optimization completed.
    -- Stationary point found.
 Normal termination of Gaussian 09 at Mon Jan 27 18:42:46 2020.
