 Gaussian 09, Revision D.01,
 Gaussian 09:  ES64L-G09RevD.01 24-Apr-2013

 -----------------------------
 # b3lyp 6-31G(2df,p) opt Freq
 -----------------------------

 -----
 titel
 -----
 Symbolic Z-matrix:
 Charge =  0 Multiplicity = 1

 SCF Done:  E(RB3LYP) =  -423.222267796     A.U. after   14 cycles
 Optimization completed.
    -- Stationary point found.
 Normal termination of Gaussian 09 at Tue Jan 28 14:02:52 2020.

 ----------------------------------------------------------------------
 #N Geom=AllCheck Guess=TCheck SCRF=Check GenChk RB3LYP/6-31G(2df,p) Fr
 eq
 ----------------------------------------------------------------------

 Structure from the checkpoint file:  "/scratch/puck/g09_d065e16c-e3a2-41dc-bd87-a806bb8ec486/Gau-28477.chk"
 -----
 titel
 -----
 Charge =  0 Multiplicity = 1

                         Standard orientation:
 ---------------------------------------------------------------------
 Center     Atomic      Atomic             Coordinates (Angstroms)
 Number     Number       Type             X           Y           Z
 ---------------------------------------------------------------------
      1          6           0        2.937688   -0.623640    0.023712
      2          6           0        1.797118    0.313910   -0.378850
      3          6           0        0.482494    0.032852    0.371670
      4          6           0       -0.248014   -1.223610   -0.065438
      5          6           0       -1.541261   -1.570579    0.650138
      6          6           0       -1.570826   -0.755982   -0.607214
      7          8           0       -1.674338    0.645496   -0.448375
      8          6           0       -0.534550    1.157293    0.108241
      9          8           0       -0.406483    2.324084    0.334976
     10          1           0        3.158293   -0.537744    1.093283
     11          1           0        2.697625   -1.672319   -0.181559
     12          1           0        3.851910   -0.381608   -0.526396
     13          1           0        2.077027    1.352799   -0.176404
     14          1           0        1.616431    0.244166   -1.458995
     15          1           0        0.690557    0.039413    1.448775
     16          1           0        0.306696   -2.015069   -0.554273
     17          1           0       -1.882643   -2.598168    0.589863
     18          1           0       -1.775203   -1.066170    1.582831
     19          1           0       -2.030012   -1.103395   -1.523483
 ---------------------------------------------------------------------

 SCF Done:  E(RB3LYP) =  -423.222267796     A.U. after    1 cycles

 The electronic state is 1-A.
 Alpha  occ. eigenvalues --  -19.18442 -19.12345 -10.30230 -10.25458 -10.21005
 Alpha  occ. eigenvalues --  -10.20913 -10.20344 -10.19474 -10.18420  -1.10365
 Alpha  occ. eigenvalues --   -1.02487  -0.87298  -0.80203  -0.72499  -0.65009
 Alpha  occ. eigenvalues --   -0.62050  -0.59415  -0.55990  -0.52586  -0.49195
 Alpha  occ. eigenvalues --   -0.45950  -0.45007  -0.43507  -0.43011  -0.41703
 Alpha  occ. eigenvalues --   -0.39627  -0.38747  -0.36425  -0.35437  -0.34165
 Alpha  occ. eigenvalues --   -0.33774  -0.29945  -0.27212  -0.26703
 Alpha virt. eigenvalues --    0.01048   0.07680   0.09491   0.10686   0.11184
 Alpha virt. eigenvalues --    0.12847   0.13867   0.14023   0.15699   0.16513
 Alpha virt. eigenvalues --    0.17001   0.19309   0.19641   0.20822   0.22334

 Mulliken charges:
               1
     1  C   -0.391955
     2  C   -0.189392
     3  C   -0.153932
     4  C   -0.067492
     5  C   -0.332858
     6  C    0.098005
     7  O   -0.218008
     8  C    0.420781
     9  O   -0.339025
    10  H    0.121136
    11  H    0.116975
    12  H    0.121087
    13  H    0.128188
    14  H    0.103407
    15  H    0.111282
    16  H    0.102580
    17  H    0.124376
    18  H    0.129092
    19  H    0.115753
 Sum of Mulliken charges =   0.00000

 Dipole moment (field-independent basis, Debye):
    X=              1.0148    Y=             -3.9482    Z=             -0.3221  Tot=              4.0892
 Quadrupole moment (field-independent basis, Debye-Ang):
   XX=            -52.7780   YY=            -59.6665   ZZ=            -51.2193
   XY=              4.3283   XZ=             -0.2323   YZ=              0.1843

  Exact polarizability:  82.723   4.889  79.288   0.308   1.056  62.618
 Approx polarizability: 109.207   6.323 119.612   2.990   3.691  97.830

                      1                      2                      3
                      A                      A                      A
 Frequencies --     80.9257               108.7025               170.7548
 Red. masses --      4.2676                 2.0882                 2.8512
 Frc consts  --      0.0165                 0.0145                 0.0490
 IR Inten    --      0.3553                 0.7755                 3.1804

                      4                      5                      6
                      A                      A                      A
 Frequencies --    197.3815               261.9804               308.1257
 Red. masses --      1.9653                 1.4955                 3.9371
 Frc consts  --      0.0451                 0.0605                 0.2202
 IR Inten    --      0.1738                 0.7989                 2.4196

                      7                      8                      9
                      A                      A                      A
 Frequencies --    387.9162               467.5856               515.5466
 Red. masses --      2.8533                 2.8096                 4.9475
 Frc consts  --      0.2530                 0.3619                 0.7748
 IR Inten    --      1.2674                 0.0374                 1.9336

                     10                     11                     12
                      A                      A                      A
 Frequencies --    637.2402               696.3133               704.8311
 Red. masses --      5.0174                 4.7308                 4.1836
 Frc consts  --      1.2004                 1.3514                 1.2245
 IR Inten    --      7.0036                 2.4561                 0.8439

                     13                     14                     15
                      A                      A                      A
 Frequencies --    762.0068               813.3138               827.2233
 Red. masses --      1.4238                 1.3867                 2.1154
 Frc consts  --      0.4871                 0.5404                 0.8529
 IR Inten    --      6.0649                15.4619                 9.4143

                     16                     17                     18
                      A                      A                      A
 Frequencies --    861.0481               910.9874               945.7407
 Red. masses --      2.3691                 2.8769                 1.9644
 Frc consts  --      1.0349                 1.4067                 1.0352
 IR Inten    --      2.5064                14.8684                 1.9154

                     19                     20                     21
                      A                      A                      A
 Frequencies --    987.3228              1018.2981              1047.1416
 Red. masses --      2.6314                 1.8567                 1.4086
 Frc consts  --      1.5113                 1.1344                 0.9100
 IR Inten    --      9.0425                26.2932                12.8336

                     22                     23                     24
                      A                      A                      A
 Frequencies --   1061.1003              1078.8066              1088.9220
 Red. masses --      1.7475                 2.0915                 1.3855
 Frc consts  --      1.1593                 1.4341                 0.9680
 IR Inten    --      8.3963                 8.2123                26.1739

                     25                     26                     27
                      A                      A                      A
 Frequencies --   1126.5892              1135.3220              1156.5293
 Red. masses --      2.1188                 2.0591                 2.6153
 Frc consts  --      1.5844                 1.5637                 2.0610
 IR Inten    --      7.2960                30.9803                90.8915

                     28                     29                     30
                      A                      A                      A
 Frequencies --   1177.7685              1206.2683              1261.4066
 Red. masses --      2.0405                 1.7765                 1.4934
 Frc consts  --      1.6676                 1.5231                 1.4000
 IR Inten    --     79.3064                18.2109                11.4130

                     31                     32                     33
                      A                      A                      A
 Frequencies --   1272.4285              1332.8027              1361.9872
 Red. masses --      1.3287                 1.3118                 1.6602
 Frc consts  --      1.2675                 1.3730                 1.8145
 IR Inten    --      0.0651                14.4969                 1.0149

                     34                     35                     36
                      A                      A                      A
 Frequencies --   1371.4570              1388.9285              1415.4417
 Red. masses --      1.4803                 1.8002                 1.2375
 Frc consts  --      1.6405                 2.0461                 1.4607
 IR Inten    --     19.8038                 7.3204                 1.9849

                     37                     38                     39
                      A                      A                      A
 Frequencies --   1477.5869              1489.1887              1499.2992
 Red. masses --      1.2818                 1.0616                 1.0408
 Frc consts  --      1.6489                 1.3871                 1.3785
 IR Inten    --      7.4995                 0.9497                 5.8369

                     40                     41                     42
                      A                      A                      A
 Frequencies --   1505.3218              1879.5126              3026.4064
 Red. masses --      1.0699                12.9580                 1.0704
 Frc consts  --      1.4284                26.9698                 5.7762
 IR Inten    --      3.8928               324.1854                 5.5864

                     43                     44                     45
                      A                      A                      A
 Frequencies --   3033.2260              3039.5303              3077.1085
 Red. masses --      1.0387                 1.0728                 1.0980
 Frc consts  --      5.6304                 5.8394                 6.1255
 IR Inten    --     17.7423                26.2780                 0.7128

                     46                     47                     48
                      A                      A                      A
 Frequencies --   3103.5874              3107.5662              3128.7648
 Red. masses --      1.1021                 1.1007                 1.0547
 Frc consts  --      6.2549                 6.2628                 6.0829
 IR Inten    --     41.6685                30.5101                 6.8999

                     49                     50                     51
                      A                      A                      A
 Frequencies --   3182.5733              3200.6268              3221.1580
 Red. masses --      1.0906                 1.0953                 1.1147
 Frc consts  --      6.5085                 6.6107                 6.8143
 IR Inten    --      7.1718                 9.3380                 8.7359

 - Thermochemistry -
 -------------------
 Temperature   298.150 Kelvin.  Pressure   1.00000 Atm.
 Atom     1 has atomic number  6 and mass  12.00000

 Molecular mass:   126.06808 amu.
 Principal axes and moments of inertia in atomic units:
                           1         2         3
     Eigenvalues --   773.829281194.846031758.69459
           X            0.99957   0.02868  -0.00643
           Y           -0.02873   0.99956  -0.00679
           Z            0.00623   0.00697   0.99996
 This molecule is an asymmetric top.
 Rotational symmetry number  1.
 Warning -- assumption of classical behavior for rotation
           may cause significant error
 Rotational temperatures (Kelvin)      0.11193     0.07249     0.04925
 Rotational constants (GHZ):           2.33222     1.51044     1.02618
 Zero-point vibrational energy     419396.4 (Joules/Mol)
                                  100.23814 (Kcal/Mol)
 Warning -- explicit consideration of   9 degrees of freedom as
           vibrations may cause significant error
 Vibrational temperatures:    116.43   156.40   245.68   283.99   376.93
          (Kelvin)            443.32   558.12   672.75   741.76   916.85
                             1001.84  1014.09  1096.36  1170.18  1190.19
                             1238.85  1310.71  1360.71  1420.54  1465.10
                             1506.60  1526.68  1552.16  1566.71  1620.91
                             1633.47  1663.99  1694.54  1735.55  1814.88
                             1830.74  1917.60  1959.59  1973.22  1998.36
                             2036.50  2125.92  2142.61  2157.15  2165.82
                             2704.20  4354.32  4364.13  4373.20  4427.27
                             4465.36  4471.09  4501.59  4579.01  4604.98
                             4634.52

 Zero-point correction=                           0.159740 (Hartree/Particle)
 Thermal correction to Energy=                    0.168032
 Thermal correction to Enthalpy=                  0.168976
 Thermal correction to Gibbs Free Energy=         0.126505
 Sum of electronic and zero-point Energies=           -423.062528
 Sum of electronic and thermal Energies=              -423.054236
 Sum of electronic and thermal Enthalpies=            -423.053291
 Sum of electronic and thermal Free Energies=         -423.095763

                     E (Thermal)             CV                S
                      KCal/Mol        Cal/Mol-Kelvin    Cal/Mol-Kelvin
 Total                  105.442             31.448             89.389
 Electronic               0.000              0.000              0.000
 Translational            0.889              2.981             40.409
 Rotational               0.889              2.981             28.877
 Vibrational            103.664             25.486             20.104
 Vibration     1          0.600              1.962              3.868
 Vibration     2          0.606              1.942              3.292
 Vibration     3          0.626              1.878              2.427
 Vibration     4          0.637              1.844              2.157
 Vibration     5          0.669              1.742              1.649
 Vibration     6          0.698              1.658              1.372
 Vibration     7          0.756              1.496              1.008
 Vibration     8          0.825              1.322              0.744
 Vibration     9          0.871              1.216              0.620

 Optimization completed.
    -- Stationary point found.
 Normal termination of Gaussian 09 at Tue Jan 28 14:47:35 2020.
