 Gaussian 09, Revision D.01,
 Gaussian 09:  ES64L-G09RevD.01 24-Apr-2013

 -----------------------------
 # b3lyp 6-31G(2df,p) opt Freq
 -----------------------------

 -----
 titel
 -----
 Symbolic Z-matrix:
 Charge =  0 Multiplicity = 1

 SCF Done:  E(RB3LYP) =  -423.159720455     A.U. after   13 cycles
 Optimization completed.
    -- Stationary point found.
 Normal termination of Gaussian 09 at Mon Jan 27 18:01:07 2020.

 ----------------------------------------------------------------------
 #N Geom=AllCheck Guess=TCheck SCRF=Check GenChk RB3LYP/6-31G(2df,p) Fr
 eq
 ----------------------------------------------------------------------

 Structure from the checkpoint file:  "/scratch/puck/g09_0b0549fb-9900-4581-86d4-843f8a427b35/Gau-148586.chk"
 -----
 titel
 -----
 Charge =  0 Multiplicity = 1

                         Standard orientation:
 ---------------------------------------------------------------------
 Center     Atomic      Atomic             Coordinates (Angstroms)
 Number     Number       Type             X           Y           Z
 ---------------------------------------------------------------------
      1          8           0        2.016706   -0.801397   -0.893188
      2          6           0        1.123414   -0.217409    0.024950
      3          6           0        1.649072    1.051535    0.618181
      4          6           0        0.472749    1.105168   -0.342578
      5          6           0       -0.889794    1.428900    0.235748
      6          8           0       -1.973493    0.688391   -0.306315
      7          6           0       -1.728593   -0.699112   -0.519508
      8          6           0       -0.965026   -1.418070    0.577812
      9          6           0        0.330294   -1.201058    0.818458
     10          1           0        1.502736   -1.376906   -1.471181
     11          1           0        1.462417    1.261606    1.666160
     12          1           0        2.614295    1.376441    0.247463
     13          1           0        0.682353    1.468166   -1.344159
     14          1           0       -0.851421    1.287121    1.325222
     15          1           0       -1.143802    2.478366    0.053084
     16          1           0       -2.719034   -1.145160   -0.644172
     17          1           0       -1.193813   -0.833489   -1.472457
     18          1           0       -1.511319   -2.142091    1.176903
     19          1           0        0.859187   -1.769722    1.580800
 ---------------------------------------------------------------------

 SCF Done:  E(RB3LYP) =  -423.159720455     A.U. after    1 cycles

 The electronic state is 1-A.
 Alpha  occ. eigenvalues --  -19.14574 -19.13397 -10.24418 -10.23146 -10.22539
 Alpha  occ. eigenvalues --  -10.19226 -10.19130 -10.18881 -10.18733  -1.03177
 Alpha  occ. eigenvalues --   -1.02269  -0.85760  -0.79099  -0.71478  -0.67005
 Alpha  occ. eigenvalues --   -0.60413  -0.57030  -0.55755  -0.52035  -0.49417
 Alpha  occ. eigenvalues --   -0.47448  -0.45092  -0.43998  -0.42924  -0.40357
 Alpha  occ. eigenvalues --   -0.38785  -0.37328  -0.35515  -0.34692  -0.31529
 Alpha  occ. eigenvalues --   -0.28317  -0.26743  -0.25072  -0.24769
 Alpha virt. eigenvalues --   -0.00861   0.07541   0.10138   0.10460   0.12133
 Alpha virt. eigenvalues --    0.12477   0.15413   0.15986   0.16160   0.17214
 Alpha virt. eigenvalues --    0.18151   0.18585   0.20810   0.22136   0.24399

 Mulliken charges:
               1
     1  O   -0.463769
     2  C    0.407436
     3  C   -0.345525
     4  C   -0.129494
     5  C   -0.074587
     6  O   -0.260719
     7  C   -0.104340
     8  C   -0.085543
     9  C   -0.154533
    10  H    0.279477
    11  H    0.116714
    12  H    0.125791
    13  H    0.093738
    14  H    0.089218
    15  H    0.110302
    16  H    0.109665
    17  H    0.088972
    18  H    0.099637
    19  H    0.097561
 Sum of Mulliken charges =   0.00000

 Dipole moment (field-independent basis, Debye):
    X=             -0.0845    Y=             -0.8282    Z=              0.1468  Tot=              0.8453
 Quadrupole moment (field-independent basis, Debye-Ang):
   XX=            -59.6832   YY=            -50.2309   ZZ=            -50.6246
   XY=              3.8841   XZ=              0.3848   YZ=              1.2226

  Exact polarizability:  86.994   5.608  76.013   3.320  -0.782  65.877
 Approx polarizability: 133.560   5.141 107.867   6.889  -0.015 101.128

                      1                      2                      3
                      A                      A                      A
 Frequencies --    151.2351               163.8727               234.5767
 Red. masses --      3.0060                 3.9561                 2.3127
 Frc consts  --      0.0405                 0.0626                 0.0750
 IR Inten    --      0.9534                 3.4650                 3.1625

                      4                      5                      6
                      A                      A                      A
 Frequencies --    280.8321               328.0064               353.6368
 Red. masses --      2.6788                 1.1978                 3.4058
 Frc consts  --      0.1245                 0.0759                 0.2509
 IR Inten    --      0.7738                66.7434                 3.8118

                      7                      8                      9
                      A                      A                      A
 Frequencies --    384.4833               410.7470               446.7971
 Red. masses --      3.5882                 3.5186                 2.4551
 Frc consts  --      0.3125                 0.3498                 0.2888
 IR Inten    --     23.5975                 5.8565                 1.7112

                     10                     11                     12
                      A                      A                      A
 Frequencies --    547.7301               600.0420               655.1978
 Red. masses --      2.9882                 3.1427                 3.4992
 Frc consts  --      0.5282                 0.6667                 0.8850
 IR Inten    --      0.9958                17.8638                 1.4350

                     13                     14                     15
                      A                      A                      A
 Frequencies --    738.6641               794.4845               836.2032
 Red. masses --      2.3281                 1.9817                 1.5731
 Frc consts  --      0.7484                 0.7370                 0.6481
 IR Inten    --     11.6635                 6.1699                 3.5487

                     16                     17                     18
                      A                      A                      A
 Frequencies --    903.9529               921.0643               932.1745
 Red. masses --      3.2123                 1.8041                 2.3528
 Frc consts  --      1.5465                 0.9018                 1.2046
 IR Inten    --     21.0597                 7.3889                 7.2917

                     19                     20                     21
                      A                      A                      A
 Frequencies --    965.5540               980.4074              1000.4788
 Red. masses --      2.3442                 2.2659                 1.4133
 Frc consts  --      1.2877                 1.2832                 0.8335
 IR Inten    --     17.9309                15.0899                 0.5567

                     22                     23                     24
                      A                      A                      A
 Frequencies --   1017.5366              1056.8131              1080.6777
 Red. masses --      1.7242                 1.3953                 2.5346
 Frc consts  --      1.0518                 0.9182                 1.7440
 IR Inten    --      4.6377                 9.5313                 8.7194

                     25                     26                     27
                      A                      A                      A
 Frequencies --   1089.4866              1126.7514              1157.4299
 Red. masses --      1.9639                 6.2319                 1.6287
 Frc consts  --      1.3734                 4.6615                 1.2856
 IR Inten    --     10.1526               114.3212                 3.3449

                     28                     29                     30
                      A                      A                      A
 Frequencies --   1207.8991              1227.4110              1269.9902
 Red. masses --      1.5524                 1.7836                 1.3369
 Frc consts  --      1.3345                 1.5832                 1.2705
 IR Inten    --     58.9426                49.5641                27.0258

                     31                     32                     33
                      A                      A                      A
 Frequencies --   1287.8624              1308.9622              1332.3374
 Red. masses --      1.2699                 1.3584                 1.2630
 Frc consts  --      1.2410                 1.3713                 1.3210
 IR Inten    --      2.0279                17.7031                28.7104

                     34                     35                     36
                      A                      A                      A
 Frequencies --   1393.2968              1397.2799              1422.5899
 Red. masses --      1.3998                 1.2651                 1.4975
 Frc consts  --      1.6010                 1.4552                 1.7856
 IR Inten    --      3.9448                 3.1745                26.4637

                     37                     38                     39
                      A                      A                      A
 Frequencies --   1430.3306              1481.2530              1500.4789
 Red. masses --      1.4922                 1.5869                 1.0953
 Frc consts  --      1.7987                 2.0514                 1.4530
 IR Inten    --      4.3101                 5.8959                 0.7821

                     40                     41                     42
                      A                      A                      A
 Frequencies --   1503.4357              1698.4507              2974.5845
 Red. masses --      1.0883                 7.1591                 1.0719
 Frc consts  --      1.4493                12.1678                 5.5882
 IR Inten    --      6.6619                 1.4582                63.2162

                     43                     44                     45
                      A                      A                      A
 Frequencies --   2998.7689              3069.6724              3085.1194
 Red. masses --      1.0687                 1.0938                 1.0900
 Frc consts  --      5.6624                 6.0727                 6.1127
 IR Inten    --     32.3026                33.9763                33.4385

                     46                     47                     48
                      A                      A                      A
 Frequencies --   3133.7045              3141.7055              3159.4470
 Red. masses --      1.0546                 1.0842                 1.0893
 Frc consts  --      6.1017                 6.3051                 6.4067
 IR Inten    --      8.6938                 8.5245                10.2085

                     49                     50                     51
                      A                      A                      A
 Frequencies --   3168.4197              3226.5319              3791.0340
 Red. masses --      1.0965                 1.1165                 1.0660
 Frc consts  --      6.4858                 6.8482                 9.0268
 IR Inten    --     28.6052                 4.3653                13.0809

 - Thermochemistry -
 -------------------
 Temperature   298.150 Kelvin.  Pressure   1.00000 Atm.
 Atom     1 has atomic number  8 and mass  15.99491

 Molecular mass:   126.06808 amu.
 Principal axes and moments of inertia in atomic units:
                           1         2         3
     Eigenvalues --   694.302731118.059411445.76835
           X            0.99860   0.05219   0.00905
           Y           -0.05229   0.99857   0.01124
           Z           -0.00845  -0.01169   0.99990
 This molecule is an asymmetric top.
 Rotational symmetry number  1.
 Warning -- assumption of classical behavior for rotation
           may cause significant error
 Rotational temperatures (Kelvin)      0.12475     0.07747     0.05991
 Rotational constants (GHZ):           2.59936     1.61417     1.24829
 Zero-point vibrational energy     420902.5 (Joules/Mol)
                                  100.59811 (Kcal/Mol)
 Warning -- explicit consideration of  11 degrees of freedom as
           vibrations may cause significant error
 Vibrational temperatures:    217.59   235.78   337.50   404.05   471.93
          (Kelvin)            508.80   553.18   590.97   642.84   788.06
                              863.33   942.68  1062.77  1143.08  1203.11
                             1300.59  1325.20  1341.19  1389.22  1410.59
                             1439.46  1464.01  1520.52  1554.85  1567.53
                             1621.14  1665.28  1737.90  1765.97  1827.23
                             1852.94  1883.30  1916.93  2004.64  2010.37
                             2046.79  2057.92  2131.19  2158.85  2163.11
                             2443.69  4279.76  4314.55  4416.57  4438.79
                             4508.70  4520.21  4545.73  4558.64  4642.25
                             5454.45

 Zero-point correction=                           0.160313 (Hartree/Particle)
 Thermal correction to Energy=                    0.168274
 Thermal correction to Enthalpy=                  0.169218
 Thermal correction to Gibbs Free Energy=         0.128345
 Sum of electronic and zero-point Energies=           -422.999407
 Sum of electronic and thermal Energies=              -422.991446
 Sum of electronic and thermal Enthalpies=            -422.990502
 Sum of electronic and thermal Free Energies=         -423.031376

                     E (Thermal)             CV                S
                      KCal/Mol        Cal/Mol-Kelvin    Cal/Mol-Kelvin
 Total                  105.594             31.885             86.025
 Electronic               0.000              0.000              0.000
 Translational            0.889              2.981             40.409
 Rotational               0.889              2.981             28.508
 Vibrational            103.816             25.923             17.108
 Vibration     1          0.619              1.901              2.657
 Vibration     2          0.623              1.887              2.505
 Vibration     3          0.654              1.788              1.844
 Vibration     4          0.681              1.709              1.529
 Vibration     5          0.711              1.620              1.270
 Vibration     6          0.730              1.568              1.150
 Vibration     7          0.753              1.503              1.021
 Vibration     8          0.775              1.447              0.924
 Vibration     9          0.806              1.368              0.806
 Vibration    10          0.903              1.145              0.549
 Vibration    11          0.958              1.032              0.450

 Optimization completed.
    -- Stationary point found.
 Normal termination of Gaussian 09 at Mon Jan 27 18:48:58 2020.
