 Gaussian 09, Revision D.01,
 Gaussian 09:  ES64L-G09RevD.01 24-Apr-2013

 -----------------------------
 # b3lyp 6-31G(2df,p) opt Freq
 -----------------------------

 -----
 titel
 -----
 Symbolic Z-matrix:
 Charge =  0 Multiplicity = 1

 SCF Done:  E(RB3LYP) =  -423.174786522     A.U. after   14 cycles
 Optimization completed.
    -- Stationary point found.
 Normal termination of Gaussian 09 at Tue Jan 28 08:13:41 2020.

 ----------------------------------------------------------------------
 #N Geom=AllCheck Guess=TCheck SCRF=Check GenChk RB3LYP/6-31G(2df,p) Fr
 eq
 ----------------------------------------------------------------------

 Structure from the checkpoint file:  "/scratch/puck/g09_b906b0f9-f731-43fc-998e-a2015a16fd7e/Gau-43509.chk"
 -----
 titel
 -----
 Charge =  0 Multiplicity = 1

                         Standard orientation:
 ---------------------------------------------------------------------
 Center     Atomic      Atomic             Coordinates (Angstroms)
 Number     Number       Type             X           Y           Z
 ---------------------------------------------------------------------
      1          8           0        0.135750    1.853112    0.259284
      2          6           0       -0.579245    0.813565   -0.394736
      3          6           0       -2.028855    0.758199    0.114883
      4          6           0       -2.420626   -0.738252    0.067469
      5          6           0       -1.081667   -1.437420    0.096057
      6          6           0       -0.068453   -0.596185   -0.118900
      7          6           0        1.372512   -0.924220   -0.159741
      8          6           0        2.352418   -0.257923    0.721138
      9          8           0        2.255233    0.102213   -0.660236
     10          1           0        0.998448    1.887642   -0.172319
     11          1           0       -0.552813    0.987772   -1.483471
     12          1           0       -2.015079    1.110831    1.151112
     13          1           0       -2.703679    1.404350   -0.450678
     14          1           0       -3.072850   -1.034603    0.896545
     15          1           0       -2.967480   -0.983580   -0.853983
     16          1           0       -0.982687   -2.507415    0.251434
     17          1           0        1.630181   -1.924975   -0.506534
     18          1           0        1.997144    0.494745    1.420359
     19          1           0        3.264438   -0.783954    0.998134
 ---------------------------------------------------------------------

 SCF Done:  E(RB3LYP) =  -423.174786522     A.U. after    1 cycles

 The electronic state is 1-A.
 Alpha  occ. eigenvalues --  -19.16282 -19.12721 -10.24774 -10.23833 -10.22982
 Alpha  occ. eigenvalues --  -10.18644 -10.18523 -10.18387 -10.17726  -1.07747
 Alpha  occ. eigenvalues --   -1.00993  -0.84075  -0.73737  -0.69390  -0.67138
 Alpha  occ. eigenvalues --   -0.62933  -0.57302  -0.54999  -0.51073  -0.50022
 Alpha  occ. eigenvalues --   -0.49053  -0.44147  -0.43252  -0.40948  -0.38968
 Alpha  occ. eigenvalues --   -0.37443  -0.36495  -0.35424  -0.34553  -0.34161
 Alpha  occ. eigenvalues --   -0.31378  -0.28329  -0.25956  -0.23687
 Alpha virt. eigenvalues --    0.00811   0.08562   0.10089   0.10508   0.11785
 Alpha virt. eigenvalues --    0.13217   0.13283   0.14676   0.16267   0.17095
 Alpha virt. eigenvalues --    0.17400   0.19151   0.20446   0.21085   0.21943

 Mulliken charges:
               1
     1  O   -0.443253
     2  C    0.044382
     3  C   -0.225845
     4  C   -0.258108
     5  C   -0.188243
     6  C    0.314260
     7  C   -0.055832
     8  C   -0.185884
     9  O   -0.250793
    10  H    0.291872
    11  H    0.077691
    12  H    0.117952
    13  H    0.099620
    14  H    0.106428
    15  H    0.109451
    16  H    0.088972
    17  H    0.103215
    18  H    0.133286
    19  H    0.120830
 Sum of Mulliken charges =   0.00000

 Dipole moment (field-independent basis, Debye):
    X=             -0.1555    Y=             -1.7961    Z=              0.2822  Tot=              1.8247
 Quadrupole moment (field-independent basis, Debye-Ang):
   XX=            -50.5508   YY=            -53.4718   ZZ=            -53.6029
   XY=             -0.3683   XZ=              3.3265   YZ=             -1.4219

  Exact polarizability:  99.716   5.947  76.245   2.901  -0.316  59.028
 Approx polarizability: 135.210  17.885 115.186   0.479  -1.745  95.372

                      1                      2                      3
                      A                      A                      A
 Frequencies --     99.6651               111.9230               192.3301
 Red. masses --      3.7833                 2.5509                 2.8053
 Frc consts  --      0.0221                 0.0188                 0.0611
 IR Inten    --      7.3324                 0.6458                 7.2885

                      4                      5                      6
                      A                      A                      A
 Frequencies --    195.9188               307.7182               334.9946
 Red. masses --      5.1351                 2.6539                 3.7666
 Frc consts  --      0.1161                 0.1481                 0.2490
 IR Inten    --      5.7382                 5.0205                 2.8201

                      7                      8                      9
                      A                      A                      A
 Frequencies --    402.9925               453.7494               541.3716
 Red. masses --      3.7694                 3.2514                 1.1155
 Frc consts  --      0.3607                 0.3944                 0.1926
 IR Inten    --      7.4330                 6.5251               139.2931

                     10                     11                     12
                      A                      A                      A
 Frequencies --    595.0033               614.5211               682.5595
 Red. masses --      2.9953                 4.4271                 2.6475
 Frc consts  --      0.6248                 0.9850                 0.7267
 IR Inten    --      3.3921                 7.5736                 2.1213

                     13                     14                     15
                      A                      A                      A
 Frequencies --    805.4246               835.2286               839.0759
 Red. masses --      3.4453                 1.8168                 3.0043
 Frc consts  --      1.3168                 0.7467                 1.2462
 IR Inten    --      7.1123                27.5394                11.4026

                     16                     17                     18
                      A                      A                      A
 Frequencies --    884.1471               888.5155               935.3375
 Red. masses --      1.4045                 3.3155                 2.4920
 Frc consts  --      0.6469                 1.5422                 1.2845
 IR Inten    --      3.7663                17.5747                 5.7787

                     19                     20                     21
                      A                      A                      A
 Frequencies --    956.4741              1005.7476              1028.0010
 Red. masses --      2.1482                 1.9832                 2.0384
 Frc consts  --      1.1579                 1.1819                 1.2692
 IR Inten    --      5.3489                 5.0144                 7.7438

                     22                     23                     24
                      A                      A                      A
 Frequencies --   1055.0406              1095.1202              1101.5060
 Red. masses --      1.9761                 1.3945                 2.1909
 Frc consts  --      1.2960                 0.9854                 1.5662
 IR Inten    --     16.2619                25.4727                48.4875

                     25                     26                     27
                      A                      A                      A
 Frequencies --   1147.1937              1161.8788              1174.2689
 Red. masses --      1.3064                 1.3490                 1.3419
 Frc consts  --      1.0130                 1.0730                 1.0902
 IR Inten    --      1.4660                 3.3979                 2.1974

                     28                     29                     30
                      A                      A                      A
 Frequencies --   1198.7870              1239.0559              1267.1886
 Red. masses --      1.6780                 1.4422                 1.6092
 Frc consts  --      1.4208                 1.3046                 1.5224
 IR Inten    --      2.1207                 1.3015                10.5636

                     31                     32                     33
                      A                      A                      A
 Frequencies --   1280.7160              1302.5602              1310.6061
 Red. masses --      1.2716                 1.3938                 1.3889
 Frc consts  --      1.2289                 1.3933                 1.4056
 IR Inten    --     15.7138                 8.7135                11.0238

                     34                     35                     36
                      A                      A                      A
 Frequencies --   1336.8192              1359.8990              1407.2927
 Red. masses --      1.4569                 2.2253                 1.7304
 Frc consts  --      1.5340                 2.4246                 2.0192
 IR Inten    --      7.7699                34.0202                22.6289

                     37                     38                     39
                      A                      A                      A
 Frequencies --   1433.1417              1483.8736              1500.2026
 Red. masses --      1.4772                 1.0827                 1.1050
 Frc consts  --      1.7876                 1.4046                 1.4652
 IR Inten    --     14.9466                 1.1455                 2.1066

                     40                     41                     42
                      A                      A                      A
 Frequencies --   1508.7352              1714.1411              2954.7121
 Red. masses --      1.2285                 7.7345                 1.0821
 Frc consts  --      1.6477                13.3898                 5.5660
 IR Inten    --      1.4896                 1.1569                47.2716

                     43                     44                     45
                      A                      A                      A
 Frequencies --   3009.1937              3052.2123              3064.6485
 Red. masses --      1.0688                 1.0840                 1.0694
 Frc consts  --      5.7021                 5.9500                 5.9179
 IR Inten    --     41.2998                16.4715                35.2165

                     46                     47                     48
                      A                      A                      A
 Frequencies --   3094.4830              3110.1824              3113.8516
 Red. masses --      1.0508                 1.0880                 1.1040
 Frc consts  --      5.9288                 6.2009                 6.3068
 IR Inten    --     25.7627                24.2861                30.5087

                     49                     50                     51
                      A                      A                      A
 Frequencies --   3176.6568              3195.8016              3783.8543
 Red. masses --      1.0934                 1.1195                 1.0654
 Frc consts  --      6.5011                 6.7362                 8.9870
 IR Inten    --     17.9558                13.0383                51.7431

 - Thermochemistry -
 -------------------
 Temperature   298.150 Kelvin.  Pressure   1.00000 Atm.
 Atom     1 has atomic number  8 and mass  15.99491

 Molecular mass:   126.06808 amu.
 Principal axes and moments of inertia in atomic units:
                           1         2         3
     Eigenvalues --   581.890651369.662941768.89626
           X            0.99991  -0.00341   0.01285
           Y            0.00352   0.99996  -0.00878
           Z           -0.01282   0.00882   0.99988
 This molecule is an asymmetric top.
 Rotational symmetry number  1.
 Warning -- assumption of classical behavior for rotation
           may cause significant error
 Rotational temperatures (Kelvin)      0.14885     0.06324     0.04896
 Rotational constants (GHZ):           3.10151     1.31765     1.02026
 Zero-point vibrational energy     420752.5 (Joules/Mol)
                                  100.56226 (Kcal/Mol)
 Warning -- explicit consideration of  11 degrees of freedom as
           vibrations may cause significant error
 Vibrational temperatures:    143.40   161.03   276.72   281.88   442.74
          (Kelvin)            481.98   579.82   652.84   778.91   856.08
                              884.16   982.05  1158.82  1201.71  1207.24
                             1272.09  1278.37  1345.74  1376.15  1447.04
                             1479.06  1517.97  1575.63  1584.82  1650.55
                             1671.68  1689.51  1724.79  1782.72  1823.20
                             1842.66  1874.09  1885.67  1923.38  1956.59
                             2024.78  2061.97  2134.96  2158.45  2170.73
                             2466.26  4251.17  4329.55  4391.45  4409.34
                             4452.27  4474.85  4480.13  4570.49  4598.04
                             5444.12

 Zero-point correction=                           0.160256 (Hartree/Particle)
 Thermal correction to Energy=                    0.168415
 Thermal correction to Enthalpy=                  0.169359
 Thermal correction to Gibbs Free Energy=         0.127426
 Sum of electronic and zero-point Energies=           -423.014530
 Sum of electronic and thermal Energies=              -423.006372
 Sum of electronic and thermal Enthalpies=            -423.005428
 Sum of electronic and thermal Free Energies=         -423.047360

                     E (Thermal)             CV                S
                      KCal/Mol        Cal/Mol-Kelvin    Cal/Mol-Kelvin
 Total                  105.682             31.445             88.255
 Electronic               0.000              0.000              0.000
 Translational            0.889              2.981             40.409
 Rotational               0.889              2.981             28.735
 Vibrational            103.904             25.484             19.112
 Vibration     1          0.604              1.949              3.461
 Vibration     2          0.607              1.940              3.235
 Vibration     3          0.634              1.850              2.205
 Vibration     4          0.636              1.846              2.171
 Vibration     5          0.698              1.659              1.375
 Vibration     6          0.716              1.606              1.236
 Vibration     7          0.768              1.464              0.952
 Vibration     8          0.812              1.353              0.785
 Vibration     9          0.896              1.159              0.562
 Vibration    10          0.953              1.042              0.458
 Vibration    11          0.974              1.001              0.425

 Optimization completed.
    -- Stationary point found.
 Normal termination of Gaussian 09 at Tue Jan 28 08:58:31 2020.
