 Gaussian 09, Revision D.01,
 Gaussian 09:  ES64L-G09RevD.01 24-Apr-2013

 -----------------------------
 # b3lyp 6-31G(2df,p) opt Freq
 -----------------------------

 -----
 titel
 -----
 Symbolic Z-matrix:
 Charge =  0 Multiplicity = 1

 SCF Done:  E(RB3LYP) =  -423.176364033     A.U. after   14 cycles
 Optimization completed.
    -- Stationary point found.
 Normal termination of Gaussian 09 at Mon Jan 27 16:26:56 2020.

 ----------------------------------------------------------------------
 #N Geom=AllCheck Guess=TCheck SCRF=Check GenChk RB3LYP/6-31G(2df,p) Fr
 eq
 ----------------------------------------------------------------------

 Structure from the checkpoint file:  "/scratch/puck/g09_33f672f8-010a-4fb9-852b-e2235d0ad79e/Gau-69889.chk"
 -----
 titel
 -----
 Charge =  0 Multiplicity = 1

                         Standard orientation:
 ---------------------------------------------------------------------
 Center     Atomic      Atomic             Coordinates (Angstroms)
 Number     Number       Type             X           Y           Z
 ---------------------------------------------------------------------
      1          6           0       -1.628529    1.507915   -0.369716
      2          6           0       -1.124213    0.094700   -0.174634
      3          6           0       -2.072935   -1.021997   -0.056532
      4          8           0       -1.418177   -0.494000    1.102260
      5          6           0        0.282542   -0.163439   -0.678773
      6          6           0        1.018869   -1.485802   -0.300910
      7          6           0        2.273583   -0.680462    0.153021
      8          6           0        1.435863    0.598082    0.021967
      9          8           0        1.575704    1.729478    0.386387
     10          1           0       -1.700366    1.746601   -1.436673
     11          1           0       -2.616876    1.624911    0.081336
     12          1           0       -0.939204    2.221577    0.089163
     13          1           0       -3.142632   -0.824719   -0.116643
     14          1           0       -1.771610   -2.028570   -0.343699
     15          1           0        0.322224    0.039818   -1.756837
     16          1           0        0.527935   -1.981120    0.537987
     17          1           0        1.172615   -2.197524   -1.112212
     18          1           0        2.677613   -0.881500    1.148234
     19          1           0        3.099013   -0.697292   -0.566359
 ---------------------------------------------------------------------

 SCF Done:  E(RB3LYP) =  -423.176364033     A.U. after    1 cycles

 The electronic state is 1-A.
 Alpha  occ. eigenvalues --  -19.15141 -19.14104 -10.27205 -10.24950 -10.23366
 Alpha  occ. eigenvalues --  -10.20152 -10.19561 -10.19521 -10.17908  -1.07169
 Alpha  occ. eigenvalues --   -1.04903  -0.84983  -0.75657  -0.68729  -0.66320
 Alpha  occ. eigenvalues --   -0.63202  -0.58304  -0.52652  -0.50937  -0.47668
 Alpha  occ. eigenvalues --   -0.46706  -0.44609  -0.43448  -0.41676  -0.39851
 Alpha  occ. eigenvalues --   -0.39102  -0.38773  -0.37060  -0.35422  -0.33968
 Alpha  occ. eigenvalues --   -0.33385  -0.30732  -0.27038  -0.23999
 Alpha virt. eigenvalues --   -0.02257   0.09183   0.09331   0.10382   0.11929
 Alpha virt. eigenvalues --    0.12384   0.12761   0.14536   0.15385   0.16579
 Alpha virt. eigenvalues --    0.17622   0.17881   0.18701   0.20328   0.21346

 Mulliken charges:
               1
     1  C   -0.468626
     2  C    0.398035
     3  C   -0.229747
     4  O   -0.269348
     5  C   -0.180615
     6  C   -0.258420
     7  C   -0.340388
     8  C    0.405157
     9  O   -0.297204
    10  H    0.117420
    11  H    0.124089
    12  H    0.159512
    13  H    0.115376
    14  H    0.110376
    15  H    0.105551
    16  H    0.135181
    17  H    0.105492
    18  H    0.135910
    19  H    0.132250
 Sum of Mulliken charges =   0.00000

 Dipole moment (field-independent basis, Debye):
    X=             -0.4279    Y=             -2.1575    Z=             -2.4245  Tot=              3.2735
 Quadrupole moment (field-independent basis, Debye-Ang):
   XX=            -50.3292   YY=            -56.0065   ZZ=            -54.0594
   XY=             -4.2125   XZ=              0.9775   YZ=             -0.5419

  Exact polarizability:  86.478  -0.328  79.979   2.078   1.034  60.479
 Approx polarizability: 111.193   4.806 120.176   2.770   3.874 100.408

                      1                      2                      3
                      A                      A                      A
 Frequencies --     63.8264                92.1292               154.4150
 Red. masses --      4.5393                 2.4646                 4.6868
 Frc consts  --      0.0109                 0.0123                 0.0658
 IR Inten    --      2.7402                 1.0749                 2.1888

                      4                      5                      6
                      A                      A                      A
 Frequencies --    207.7510               222.5087               333.8438
 Red. masses --      1.0473                 3.0625                 2.8020
 Frc consts  --      0.0266                 0.0893                 0.1840
 IR Inten    --      0.1125                 1.9267                 1.0604

                      7                      8                      9
                      A                      A                      A
 Frequencies --    341.8847               395.2240               424.5330
 Red. masses --      3.2357                 3.0753                 2.8402
 Frc consts  --      0.2228                 0.2830                 0.3016
 IR Inten    --      5.2568                 2.5052                 4.1155

                     10                     11                     12
                      A                      A                      A
 Frequencies --    495.3046               568.3618               634.9989
 Red. masses --      3.0856                 3.0066                 2.8563
 Frc consts  --      0.4460                 0.5722                 0.6786
 IR Inten    --      6.1147                 4.7908                 2.5505

                     13                     14                     15
                      A                      A                      A
 Frequencies --    691.6027               761.5886               792.8119
 Red. masses --      2.6467                 1.7655                 3.0217
 Frc consts  --      0.7459                 0.6033                 1.1190
 IR Inten    --      3.2468                 1.6778                12.6643

                     16                     17                     18
                      A                      A                      A
 Frequencies --    862.6997               910.5040               919.8475
 Red. masses --      2.8671                 1.7122                 1.7195
 Frc consts  --      1.2572                 0.8363                 0.8572
 IR Inten    --     13.6332                 1.0584                 7.2798

                     19                     20                     21
                      A                      A                      A
 Frequencies --    937.7674              1004.4359              1011.0009
 Red. masses --      3.1303                 1.2909                 3.2357
 Frc consts  --      1.6219                 0.7674                 1.9486
 IR Inten    --      2.2198                 6.4278                 8.2842

                     22                     23                     24
                      A                      A                      A
 Frequencies --   1021.4440              1076.7446              1087.3721
 Red. masses --      1.7706                 2.7939                 2.7271
 Frc consts  --      1.0884                 1.9085                 1.8998
 IR Inten    --      5.9863                56.0256                28.6620

                     25                     26                     27
                      A                      A                      A
 Frequencies --   1113.2674              1136.5287              1170.1480
 Red. masses --      1.7305                 1.3922                 1.3827
 Frc consts  --      1.2636                 1.0595                 1.1155
 IR Inten    --      8.7511                 3.4517                 0.7995

                     28                     29                     30
                      A                      A                      A
 Frequencies --   1197.1904              1223.9776              1231.0472
 Red. masses --      1.3807                 1.4850                 1.5685
 Frc consts  --      1.1660                 1.3107                 1.4005
 IR Inten    --      0.8621                 3.0928                13.7136

                     31                     32                     33
                      A                      A                      A
 Frequencies --   1237.8068              1272.3011              1335.6753
 Red. masses --      1.2629                 1.6021                 2.2319
 Frc consts  --      1.1400                 1.5280                 2.3460
 IR Inten    --     12.0819                 1.3935                19.7870

                     34                     35                     36
                      A                      A                      A
 Frequencies --   1391.0891              1415.4340              1438.0439
 Red. masses --      2.3585                 1.4277                 1.0975
 Frc consts  --      2.6890                 1.6853                 1.3372
 IR Inten    --     17.0444                13.7964                 4.2937

                     37                     38                     39
                      A                      A                      A
 Frequencies --   1481.8398              1487.5830              1501.6991
 Red. masses --      1.0503                 1.1038                 1.0553
 Frc consts  --      1.3589                 1.4391                 1.4021
 IR Inten    --      5.4260                 1.9072                 3.6125

                     40                     41                     42
                      A                      A                      A
 Frequencies --   1531.3787              1884.0875              3032.3721
 Red. masses --      1.3541                12.7512                 1.0789
 Frc consts  --      1.8710                26.6687                 5.8449
 IR Inten    --      4.3143               235.6039                 5.2550

                     43                     44                     45
                      A                      A                      A
 Frequencies --   3040.6149              3057.6356              3081.2625
 Red. masses --      1.0402                 1.0607                 1.0504
 Frc consts  --      5.6660                 5.8427                 5.8755
 IR Inten    --     20.6860                10.9022                23.5977

                     46                     47                     48
                      A                      A                      A
 Frequencies --   3088.3136              3110.3297              3113.5091
 Red. masses --      1.0583                 1.0981                 1.1039
 Frc consts  --      5.9471                 6.2592                 6.3046
 IR Inten    --     20.7655                14.4828                 4.3401

                     49                     50                     51
                      A                      A                      A
 Frequencies --   3133.3373              3148.4671              3166.6603
 Red. masses --      1.1031                 1.1088                 1.1191
 Frc consts  --      6.3807                 6.4758                 6.6118
 IR Inten    --      7.4014                12.1571                24.6711

 - Thermochemistry -
 -------------------
 Temperature   298.150 Kelvin.  Pressure   1.00000 Atm.
 Atom     1 has atomic number  6 and mass  12.00000

 Molecular mass:   126.06808 amu.
 Principal axes and moments of inertia in atomic units:
                           1         2         3
     Eigenvalues --   686.743781260.743411667.74589
           X            0.99755  -0.06907   0.01081
           Y            0.06914   0.99759  -0.00634
           Z           -0.01035   0.00708   0.99992
 This molecule is an asymmetric top.
 Rotational symmetry number  1.
 Warning -- assumption of classical behavior for rotation
           may cause significant error
 Rotational temperatures (Kelvin)      0.12612     0.06870     0.05193
 Rotational constants (GHZ):           2.62797     1.43149     1.08214
 Zero-point vibrational energy     412916.2 (Joules/Mol)
                                   98.68934 (Kcal/Mol)
 Warning -- explicit consideration of  11 degrees of freedom as
           vibrations may cause significant error
 Vibrational temperatures:     91.83   132.55   222.17   298.91   320.14
          (Kelvin)            480.33   491.90   568.64   610.81   712.63
                              817.74   913.62   995.06  1095.75  1140.68
                             1241.23  1310.01  1323.45  1349.24  1445.16
                             1454.60  1469.63  1549.19  1564.48  1601.74
                             1635.21  1683.58  1722.49  1761.03  1771.20
                             1780.93  1830.56  1921.74  2001.46  2036.49
                             2069.02  2132.03  2140.30  2160.61  2203.31
                             2710.78  4362.90  4374.76  4399.25  4433.24
                             4443.39  4475.07  4479.64  4508.17  4529.94
                             4556.11

 Zero-point correction=                           0.157271 (Hartree/Particle)
 Thermal correction to Energy=                    0.166114
 Thermal correction to Enthalpy=                  0.167059
 Thermal correction to Gibbs Free Energy=         0.123446
 Sum of electronic and zero-point Energies=           -423.019093
 Sum of electronic and thermal Energies=              -423.010250
 Sum of electronic and thermal Enthalpies=            -423.009305
 Sum of electronic and thermal Free Energies=         -423.052918

                     E (Thermal)             CV                S
                      KCal/Mol        Cal/Mol-Kelvin    Cal/Mol-Kelvin
 Total                  104.238             33.130             91.790
 Electronic               0.000              0.000              0.000
 Translational            0.889              2.981             40.409
 Rotational               0.889              2.981             28.759
 Vibrational            102.461             27.169             22.623
 Vibration     1          0.597              1.972              4.335
 Vibration     2          0.602              1.955              3.614
 Vibration     3          0.620              1.898              2.617
 Vibration     4          0.641              1.829              2.063
 Vibration     5          0.648              1.807              1.939
 Vibration     6          0.715              1.608              1.241
 Vibration     7          0.721              1.592              1.203
 Vibration     8          0.762              1.480              0.980
 Vibration     9          0.787              1.417              0.877
 Vibration    10          0.851              1.260              0.670
 Vibration    11          0.924              1.100              0.507

 Optimization completed.
    -- Stationary point found.
 Normal termination of Gaussian 09 at Mon Jan 27 17:18:53 2020.
