 Gaussian 09, Revision D.01,
 Gaussian 09:  ES64L-G09RevD.01 24-Apr-2013

 -----------------------------
 # b3lyp 6-31G(2df,p) opt Freq
 -----------------------------

 -----
 titel
 -----
 Symbolic Z-matrix:
 Charge =  0 Multiplicity = 1

 SCF Done:  E(RB3LYP) =  -423.085909666     A.U. after   13 cycles
 Optimization completed.
    -- Stationary point found.
 Normal termination of Gaussian 09 at Tue Jan 28 08:23:41 2020.

 ----------------------------------------------------------------------
 #N Geom=AllCheck Guess=TCheck SCRF=Check GenChk RB3LYP/6-31G(2df,p) Fr
 eq
 ----------------------------------------------------------------------

 Structure from the checkpoint file:  "/scratch/puck/g09_41d816e7-f046-436d-bbbe-d63d8668ec79/Gau-81432.chk"
 -----
 titel
 -----
 Charge =  0 Multiplicity = 1

                         Standard orientation:
 ---------------------------------------------------------------------
 Center     Atomic      Atomic             Coordinates (Angstroms)
 Number     Number       Type             X           Y           Z
 ---------------------------------------------------------------------
      1          6           0       -2.794672   -0.638015   -0.426492
      2          6           0       -1.654577   -0.580069    0.598095
      3          6           0       -0.497500    0.323622    0.179810
      4          8           0       -0.900543    1.675911    0.037087
      5          6           0        0.499089   -0.188138   -0.894577
      6          6           0        1.659377    0.661697   -0.283155
      7          8           0        2.593167   -0.456379   -0.196107
      8          6           0        1.296880   -1.022149    0.155688
      9          6           0        0.823087    0.228352    0.962030
     10          1           0       -3.266212    0.341844   -0.563707
     11          1           0       -2.439890   -0.983445   -1.403781
     12          1           0       -3.580758   -1.323733   -0.097930
     13          1           0       -2.042370   -0.218513    1.558194
     14          1           0       -1.272791   -1.592991    0.772413
     15          1           0       -1.584842    1.719604   -0.638373
     16          1           0        0.351857   -0.430915   -1.947462
     17          1           0        2.033872    1.642124   -0.566413
     18          1           0        1.240040   -2.080742    0.404044
     19          1           0        1.030001    0.458711    2.006782
 ---------------------------------------------------------------------

 SCF Done:  E(RB3LYP) =  -423.085909666     A.U. after    1 cycles

 The electronic state is 1-A.
 Alpha  occ. eigenvalues --  -19.13935 -19.12547 -10.24920 -10.24637 -10.24338
 Alpha  occ. eigenvalues --  -10.19781 -10.19757 -10.18752 -10.18666  -1.06154
 Alpha  occ. eigenvalues --   -1.02258  -0.86156  -0.77259  -0.66569  -0.65304
 Alpha  occ. eigenvalues --   -0.64542  -0.58937  -0.52696  -0.51648  -0.49676
 Alpha  occ. eigenvalues --   -0.47370  -0.44779  -0.43916  -0.40897  -0.38740
 Alpha  occ. eigenvalues --   -0.38401  -0.36237  -0.35741  -0.32517  -0.31886
 Alpha  occ. eigenvalues --   -0.31115  -0.29815  -0.26693  -0.22850
 Alpha virt. eigenvalues --    0.06103   0.08452   0.10043   0.11386   0.12376
 Alpha virt. eigenvalues --    0.12833   0.13421   0.14292   0.16108   0.16752
 Alpha virt. eigenvalues --    0.17194   0.17940   0.19138   0.20081   0.21031

 Mulliken charges:
               1
     1  C   -0.402878
     2  C   -0.236254
     3  C    0.398229
     4  O   -0.487992
     5  C   -0.168629
     6  C    0.084991
     7  O   -0.333308
     8  C    0.076873
     9  C   -0.139543
    10  H    0.112206
    11  H    0.120590
    12  H    0.123139
    13  H    0.107134
    14  H    0.099855
    15  H    0.279916
    16  H    0.078804
    17  H    0.106352
    18  H    0.096763
    19  H    0.083753
 Sum of Mulliken charges =   0.00000

 Dipole moment (field-independent basis, Debye):
    X=             -2.6170    Y=             -0.5595    Z=             -0.4822  Tot=              2.7192
 Quadrupole moment (field-independent basis, Debye-Ang):
   XX=            -58.2224   YY=            -53.0274   ZZ=            -51.3193
   XY=              1.9989   XZ=              2.1600   YZ=             -2.4441

  Exact polarizability:  84.321   0.876  70.663   1.174  -0.990  67.476
 Approx polarizability: 112.678  -1.622 110.822   1.099  -0.943 105.275

                      1                      2                      3
                      A                      A                      A
 Frequencies --     81.8240               172.3090               179.8171
 Red. masses --      2.4317                 3.2606                 1.6236
 Frc consts  --      0.0096                 0.0570                 0.0309
 IR Inten    --      0.3426                 0.6951                 0.3896

                      4                      5                      6
                      A                      A                      A
 Frequencies --    246.2288               265.8516               323.9246
 Red. masses --      1.5615                 1.3645                 2.2519
 Frc consts  --      0.0558                 0.0568                 0.1392
 IR Inten    --     55.1328                23.9227                21.4085

                      7                      8                      9
                      A                      A                      A
 Frequencies --    376.3098               401.7184               558.9819
 Red. masses --      3.2136                 4.7189                 4.4289
 Frc consts  --      0.2681                 0.4487                 0.8153
 IR Inten    --     13.1591                 4.9497                 5.1375

                     10                     11                     12
                      A                      A                      A
 Frequencies --    583.0087               643.7665               770.1004
 Red. masses --      3.3559                 2.9829                 3.1336
 Frc consts  --      0.6721                 0.7284                 1.0949
 IR Inten    --      5.2937                 0.7760                 0.5125

                     13                     14                     15
                      A                      A                      A
 Frequencies --    784.8690               800.4552               806.9653
 Red. masses --      1.3646                 2.8879                 2.1028
 Frc consts  --      0.4953                 1.0902                 0.8068
 IR Inten    --      0.7812                 8.8636                 0.4412

                     16                     17                     18
                      A                      A                      A
 Frequencies --    836.7642               879.2623               910.5271
 Red. masses --      1.9079                 3.5008                 3.6336
 Frc consts  --      0.7871                 1.5946                 1.7749
 IR Inten    --      6.0075                 6.8711                73.4176

                     19                     20                     21
                      A                      A                      A
 Frequencies --    936.4200               967.7590               974.4177
 Red. masses --      1.7794                 1.2422                 2.3372
 Frc consts  --      0.9193                 0.6854                 1.3075
 IR Inten    --      7.0867                 1.3627                 1.2367

                     22                     23                     24
                      A                      A                      A
 Frequencies --   1010.3015              1029.1893              1081.0986
 Red. masses --      1.9358                 4.3565                 2.0828
 Frc consts  --      1.1641                 2.7188                 1.4342
 IR Inten    --     46.6345                 5.8550                 2.9165

                     25                     26                     27
                      A                      A                      A
 Frequencies --   1110.5502              1122.7767              1143.7468
 Red. masses --      1.4529                 2.0229                 1.3863
 Frc consts  --      1.0557                 1.5025                 1.0685
 IR Inten    --      1.0819                 3.1458                 2.5166

                     28                     29                     30
                      A                      A                      A
 Frequencies --   1151.3155              1169.4854              1178.3613
 Red. masses --      1.7633                 2.2101                 1.7489
 Frc consts  --      1.3771                 1.7809                 1.4307
 IR Inten    --      6.1132                25.3826                33.5082

                     31                     32                     33
                      A                      A                      A
 Frequencies --   1195.6572              1208.7395              1268.6275
 Red. masses --      2.1656                 3.0815                 1.5766
 Frc consts  --      1.8240                 2.6526                 1.4950
 IR Inten    --     16.0432                47.1788                14.2973

                     34                     35                     36
                      A                      A                      A
 Frequencies --   1309.4297              1327.2816              1347.9720
 Red. masses --      1.3200                 1.7108                 1.6154
 Frc consts  --      1.3335                 1.7757                 1.7294
 IR Inten    --     35.5557                 8.3564                18.0183

                     37                     38                     39
                      A                      A                      A
 Frequencies --   1401.4196              1411.6784              1475.8773
 Red. masses --      1.6666                 1.4364                 1.0791
 Frc consts  --      1.9285                 1.6866                 1.3848
 IR Inten    --     10.2356                 5.9988                 3.4240

                     40                     41                     42
                      A                      A                      A
 Frequencies --   1500.2931              1510.2437              3027.9494
 Red. masses --      1.0576                 1.0478                 1.0504
 Frc consts  --      1.4026                 1.4081                 5.6741
 IR Inten    --      6.6166                 4.2870                 5.3290

                     43                     44                     45
                      A                      A                      A
 Frequencies --   3030.8240              3063.6737              3095.0881
 Red. masses --      1.0457                 1.1016                 1.1016
 Frc consts  --      5.6594                 6.0922                 6.2176
 IR Inten    --     35.9420                 6.8368                41.5416

                     46                     47                     48
                      A                      A                      A
 Frequencies --   3108.1071              3112.1668              3122.3460
 Red. masses --      1.0994                 1.0895                 1.0897
 Frc consts  --      6.2572                 6.2172                 6.2594
 IR Inten    --     22.0000                34.1337                44.4205

                     49                     50                     51
                      A                      A                      A
 Frequencies --   3133.9333              3157.0611              3817.1260
 Red. masses --      1.0942                 1.0977                 1.0657
 Frc consts  --      6.3317                 6.4462                 9.1486
 IR Inten    --     42.0548                18.0597                17.1795

 - Thermochemistry -
 -------------------
 Temperature   298.150 Kelvin.  Pressure   1.00000 Atm.
 Atom     1 has atomic number  6 and mass  12.00000

 Molecular mass:   126.06808 amu.
 Principal axes and moments of inertia in atomic units:
                           1         2         3
     Eigenvalues --   487.604791437.063531613.70378
           X            0.99960   0.02652   0.00959
           Y           -0.02626   0.99933  -0.02569
           Z           -0.01026   0.02542   0.99962
 This molecule is an asymmetric top.
 Rotational symmetry number  1.
 Warning -- assumption of classical behavior for rotation
           may cause significant error
 Rotational temperatures (Kelvin)      0.17763     0.06027     0.05367
 Rotational constants (GHZ):           3.70124     1.25585     1.11838
 Zero-point vibrational energy     413450.9 (Joules/Mol)
                                   98.81715 (Kcal/Mol)
 Warning -- explicit consideration of  10 degrees of freedom as
           vibrations may cause significant error
 Vibrational temperatures:    117.73   247.91   258.72   354.27   382.50
          (Kelvin)            466.05   541.43   577.98   804.25   838.82
                              926.24  1108.00  1129.25  1151.68  1161.04
                             1203.92  1265.06  1310.04  1347.30  1392.39
                             1401.97  1453.60  1480.77  1555.46  1597.83
                             1615.42  1645.59  1656.48  1682.63  1695.40
                             1720.28  1739.10  1825.27  1883.97  1909.66
                             1939.43  2016.33  2031.09  2123.46  2158.58
                             2172.90  4356.54  4360.67  4407.94  4453.14
                             4471.87  4477.71  4492.35  4509.03  4542.30
                             5491.99

 Zero-point correction=                           0.157475 (Hartree/Particle)
 Thermal correction to Energy=                    0.165715
 Thermal correction to Enthalpy=                  0.166659
 Thermal correction to Gibbs Free Energy=         0.124826
 Sum of electronic and zero-point Energies=           -422.928435
 Sum of electronic and thermal Energies=              -422.920195
 Sum of electronic and thermal Enthalpies=            -422.919251
 Sum of electronic and thermal Free Energies=         -422.961084

                     E (Thermal)             CV                S
                      KCal/Mol        Cal/Mol-Kelvin    Cal/Mol-Kelvin
 Total                  103.987             32.343             88.044
 Electronic               0.000              0.000              0.000
 Translational            0.889              2.981             40.409
 Rotational               0.889              2.981             28.516
 Vibrational            102.210             26.381             19.120
 Vibration     1          0.600              1.962              3.847
 Vibration     2          0.626              1.877              2.410
 Vibration     3          0.629              1.867              2.330
 Vibration     4          0.661              1.769              1.757
 Vibration     5          0.672              1.736              1.623
 Vibration     6          0.708              1.628              1.290
 Vibration     7          0.747              1.521              1.054
 Vibration     8          0.767              1.466              0.956
 Vibration     9          0.915              1.120              0.526
 Vibration    10          0.940              1.068              0.480

 Optimization completed.
    -- Stationary point found.
 Normal termination of Gaussian 09 at Tue Jan 28 09:12:40 2020.
