 Gaussian 09, Revision D.01,
 Gaussian 09:  ES64L-G09RevD.01 24-Apr-2013

 -----------------------------
 # b3lyp 6-31G(2df,p) opt Freq
 -----------------------------

 -----
 titel
 -----
 Symbolic Z-matrix:
 Charge =  0 Multiplicity = 1

 SCF Done:  E(RB3LYP) =  -423.195336475     A.U. after   14 cycles
 Optimization completed.
    -- Stationary point found.
 Normal termination of Gaussian 09 at Mon Jan 27 15:27:09 2020.

 ----------------------------------------------------------------------
 #N Geom=AllCheck Guess=TCheck SCRF=Check GenChk RB3LYP/6-31G(2df,p) Fr
 eq
 ----------------------------------------------------------------------

 Structure from the checkpoint file:  "/scratch/puck/g09_c8cc4955-c73e-4b12-9a6a-dcbe5fd89578/Gau-173886.chk"
 -----
 titel
 -----
 Charge =  0 Multiplicity = 1

                         Standard orientation:
 ---------------------------------------------------------------------
 Center     Atomic      Atomic             Coordinates (Angstroms)
 Number     Number       Type             X           Y           Z
 ---------------------------------------------------------------------
      1          6           0       -1.627221   -1.472900    0.700345
      2          6           0       -1.545649    0.020090    0.350486
      3          6           0       -2.442574    0.373269   -0.848435
      4          6           0       -0.132084    0.444858    0.082600
      5          6           0        0.515622    1.768259    0.247842
      6          6           0        1.118000    0.525435    0.933195
      7          6           0        1.731698   -0.324278   -0.142542
      8          8           0        2.741642   -0.915457   -0.342847
      9          8           0        0.605479   -0.282160   -0.959169
     10          1           0       -2.660363   -1.758693    0.918243
     11          1           0       -1.272589   -2.084093   -0.134396
     12          1           0       -1.016590   -1.710602    1.576823
     13          1           0       -1.880157    0.604957    1.217965
     14          1           0       -3.480209    0.091063   -0.647400
     15          1           0       -2.415695    1.445695   -1.063961
     16          1           0       -2.112521   -0.160323   -1.745151
     17          1           0        1.032887    2.231818   -0.585932
     18          1           0        0.039238    2.456420    0.940495
     19          1           0        1.282277    0.456301    1.998503
 ---------------------------------------------------------------------

 SCF Done:  E(RB3LYP) =  -423.195336475     A.U. after    1 cycles

 The electronic state is 1-A.
 Alpha  occ. eigenvalues --  -19.17411 -19.13393 -10.30957 -10.26592 -10.21855
 Alpha  occ. eigenvalues --  -10.21713 -10.21252 -10.18486 -10.18300  -1.10583
 Alpha  occ. eigenvalues --   -1.03423  -0.86435  -0.80819  -0.69578  -0.67364
 Alpha  occ. eigenvalues --   -0.63961  -0.57819  -0.54612  -0.52110  -0.49289
 Alpha  occ. eigenvalues --   -0.46102  -0.45394  -0.43793  -0.42040  -0.41005
 Alpha  occ. eigenvalues --   -0.39287  -0.38887  -0.37362  -0.36140  -0.34696
 Alpha  occ. eigenvalues --   -0.34076  -0.30302  -0.27788  -0.27169
 Alpha virt. eigenvalues --    0.00466   0.06859   0.09677   0.10706   0.11667
 Alpha virt. eigenvalues --    0.11837   0.13769   0.14326   0.15259   0.16610
 Alpha virt. eigenvalues --    0.17237   0.17885   0.18398   0.19297   0.20850

 Mulliken charges:
               1
     1  C   -0.396593
     2  C   -0.086739
     3  C   -0.391078
     4  C    0.503270
     5  C   -0.343481
     6  C   -0.351257
     7  C    0.466562
     8  O   -0.326648
     9  O   -0.303831
    10  H    0.115674
    11  H    0.140884
    12  H    0.117638
    13  H    0.085477
    14  H    0.116111
    15  H    0.118233
    16  H    0.139347
    17  H    0.137896
    18  H    0.130446
    19  H    0.128090
 Sum of Mulliken charges =   0.00000

 Dipole moment (field-independent basis, Debye):
    X=             -3.1845    Y=              2.1811    Z=              2.0414  Tot=              4.3664
 Quadrupole moment (field-independent basis, Debye-Ang):
   XX=            -60.2940   YY=            -52.2734   ZZ=            -52.7347
   XY=              4.1897   XZ=              1.7670   YZ=             -0.5705

  Exact polarizability:  87.501  -4.144  74.234   1.186   0.845  65.265
 Approx polarizability: 123.978 -12.453 108.708   1.891   4.394 101.646

                      1                      2                      3
                      A                      A                      A
 Frequencies --     68.8171               106.1653               178.6693
 Red. masses --      2.9837                 5.3352                 2.6457
 Frc consts  --      0.0083                 0.0354                 0.0498
 IR Inten    --      0.7978                 1.0329                 1.8813

                      4                      5                      6
                      A                      A                      A
 Frequencies --    212.1706               239.9257               259.8875
 Red. masses --      1.0298                 2.0557                 1.5871
 Frc consts  --      0.0273                 0.0697                 0.0632
 IR Inten    --      0.0417                 0.3114                 0.2329

                      7                      8                      9
                      A                      A                      A
 Frequencies --    313.4649               395.5209               444.5206
 Red. masses --      2.5406                 2.8794                 2.9249
 Frc consts  --      0.1471                 0.2654                 0.3405
 IR Inten    --      0.2023                 2.4970                 1.9996

                     10                     11                     12
                      A                      A                      A
 Frequencies --    489.1794               516.9342               626.1375
 Red. masses --      3.9442                 3.1617                 3.6252
 Frc consts  --      0.5561                 0.4978                 0.8374
 IR Inten    --      1.1885                 0.9152                 0.7661

                     13                     14                     15
                      A                      A                      A
 Frequencies --    698.0369               764.8388               831.4428
 Red. masses --      4.3123                 3.3517                 5.7344
 Frc consts  --      1.2380                 1.1552                 2.3356
 IR Inten    --      1.0556                 7.9619                55.8235

                     16                     17                     18
                      A                      A                      A
 Frequencies --    859.1514               910.8788               930.3396
 Red. masses --      2.2488                 2.3881                 1.2098
 Frc consts  --      0.9780                 1.1674                 0.6170
 IR Inten    --     11.9766                10.2880                 2.6632

                     19                     20                     21
                      A                      A                      A
 Frequencies --    945.7867               964.8868               966.7458
 Red. masses --      1.9541                 1.4853                 1.6453
 Frc consts  --      1.0299                 0.8147                 0.9060
 IR Inten    --     33.3818                 3.6011                 0.8875

                     22                     23                     24
                      A                      A                      A
 Frequencies --   1002.4013              1016.8799              1054.0306
 Red. masses --      2.2042                 2.3545                 2.3412
 Frc consts  --      1.3049                 1.4345                 1.5325
 IR Inten    --     12.9487                60.1053                33.8854

                     25                     26                     27
                      A                      A                      A
 Frequencies --   1072.6404              1107.9376              1136.9602
 Red. masses --      1.4024                 1.8651                 2.2981
 Frc consts  --      0.9507                 1.3489                 1.7503
 IR Inten    --      5.8731                13.3907                 3.3092

                     28                     29                     30
                      A                      A                      A
 Frequencies --   1187.5247              1223.7366              1238.7989
 Red. masses --      1.9161                 1.8081                 3.2340
 Frc consts  --      1.5921                 1.5953                 2.9241
 IR Inten    --      3.2314                 1.1774                35.4486

                     31                     32                     33
                      A                      A                      A
 Frequencies --   1325.0432              1330.3165              1397.9431
 Red. masses --      1.5384                 1.3664                 1.2301
 Frc consts  --      1.5914                 1.4248                 1.4163
 IR Inten    --     15.7946                 1.2396                 3.9754

                     34                     35                     36
                      A                      A                      A
 Frequencies --   1416.7878              1427.1153              1486.3068
 Red. masses --      1.4085                 1.4996                 1.0410
 Frc consts  --      1.6658                 1.7994                 1.3549
 IR Inten    --      1.4679                 1.3716                 0.8996

                     37                     38                     39
                      A                      A                      A
 Frequencies --   1491.5639              1492.6148              1501.4542
 Red. masses --      1.4766                 1.0555                 1.0472
 Frc consts  --      1.9356                 1.3855                 1.3909
 IR Inten    --      6.8954                 1.0487                 6.3295

                     40                     41                     42
                      A                      A                      A
 Frequencies --   1519.5052              1942.8244              3019.2635
 Red. masses --      1.2064                12.7265                 1.0828
 Frc consts  --      1.6412                28.3026                 5.8154
 IR Inten    --     12.8960               504.1731                15.1014

                     43                     44                     45
                      A                      A                      A
 Frequencies --   3038.6474              3042.4925              3110.0568
 Red. masses --      1.0342                 1.0352                 1.1023
 Frc consts  --      5.6261                 5.6458                 6.2816
 IR Inten    --     25.0450                12.0769                13.2996

                     46                     47                     48
                      A                      A                      A
 Frequencies --   3112.3620              3114.6212              3121.7725
 Red. masses --      1.1017                 1.1021                 1.0824
 Frc consts  --      6.2877                 6.2993                 6.2148
 IR Inten    --     34.7340                10.7909                14.6360

                     49                     50                     51
                      A                      A                      A
 Frequencies --   3122.4892              3214.0065              3229.2107
 Red. masses --      1.0719                 1.1179                 1.0956
 Frc consts  --      6.1575                 6.8036                 6.7314
 IR Inten    --     21.1817                 2.9472                 1.2636

 - Thermochemistry -
 -------------------
 Temperature   298.150 Kelvin.  Pressure   1.00000 Atm.
 Atom     1 has atomic number  6 and mass  12.00000

 Molecular mass:   126.06808 amu.
 Principal axes and moments of inertia in atomic units:
                           1         2         3
     Eigenvalues --   605.831001460.233291647.22877
           X            0.99944   0.03100   0.01270
           Y           -0.03035   0.99836  -0.04858
           Z           -0.01419   0.04817   0.99874
 This molecule is an asymmetric top.
 Rotational symmetry number  1.
 Warning -- assumption of classical behavior for rotation
           may cause significant error
 Rotational temperatures (Kelvin)      0.14297     0.05932     0.05258
 Rotational constants (GHZ):           2.97895     1.23593     1.09562
 Zero-point vibrational energy     414032.4 (Joules/Mol)
                                   98.95611 (Kcal/Mol)
 Warning -- explicit consideration of  11 degrees of freedom as
           vibrations may cause significant error
 Vibrational temperatures:     99.01   152.75   257.06   305.27   345.20
          (Kelvin)            373.92   451.01   569.07   639.57   703.82
                              743.75   900.87  1004.32  1100.43  1196.26
                             1236.13  1310.55  1338.55  1360.77  1388.26
                             1390.93  1442.23  1463.06  1516.51  1543.29
                             1594.07  1635.83  1708.58  1760.68  1782.35
                             1906.44  1914.03  2011.33  2038.44  2053.30
                             2138.46  2146.03  2147.54  2160.26  2186.23
                             2795.29  4344.04  4371.93  4377.46  4474.67
                             4477.99  4481.24  4491.53  4492.56  4624.23
                             4646.11

 Zero-point correction=                           0.157697 (Hartree/Particle)
 Thermal correction to Energy=                    0.166588
 Thermal correction to Enthalpy=                  0.167532
 Thermal correction to Gibbs Free Energy=         0.124020
 Sum of electronic and zero-point Energies=           -423.037640
 Sum of electronic and thermal Energies=              -423.028749
 Sum of electronic and thermal Enthalpies=            -423.027805
 Sum of electronic and thermal Free Energies=         -423.071316

                     E (Thermal)             CV                S
                      KCal/Mol        Cal/Mol-Kelvin    Cal/Mol-Kelvin
 Total                  104.535             33.408             91.578
 Electronic               0.000              0.000              0.000
 Translational            0.889              2.981             40.409
 Rotational               0.889              2.981             28.768
 Vibrational            102.758             27.447             22.401
 Vibration     1          0.598              1.969              4.187
 Vibration     2          0.605              1.944              3.338
 Vibration     3          0.629              1.869              2.342
 Vibration     4          0.643              1.822              2.025
 Vibration     5          0.657              1.779              1.803
 Vibration     6          0.668              1.746              1.663
 Vibration     7          0.701              1.648              1.344
 Vibration     8          0.762              1.480              0.979
 Vibration     9          0.804              1.373              0.813
 Vibration    10          0.845              1.274              0.686
 Vibration    11          0.872              1.212              0.617

 Normal termination of Gaussian 09 at Mon Jan 27 16:07:25 2020.
