 Gaussian 09, Revision D.01,
 Gaussian 09:  ES64L-G09RevD.01 24-Apr-2013

 -----------------------------
 # b3lyp 6-31G(2df,p) opt Freq
 -----------------------------

 -----
 titel
 -----
 Symbolic Z-matrix:
 Charge =  0 Multiplicity = 1

 SCF Done:  E(RB3LYP) =  -423.173782220     A.U. after   14 cycles
 Optimization completed.
    -- Stationary point found.
 Normal termination of Gaussian 09 at Mon Jan 27 15:56:46 2020.

 ----------------------------------------------------------------------
 #N Geom=AllCheck Guess=TCheck SCRF=Check GenChk RB3LYP/6-31G(2df,p) Fr
 eq
 ----------------------------------------------------------------------

 Structure from the checkpoint file:  "/scratch/puck/g09_d1620e5d-57c0-4df9-80df-9c34f8d0441c/Gau-62167.chk"
 -----
 titel
 -----
 Charge =  0 Multiplicity = 1

                         Standard orientation:
 ---------------------------------------------------------------------
 Center     Atomic      Atomic             Coordinates (Angstroms)
 Number     Number       Type             X           Y           Z
 ---------------------------------------------------------------------
      1          6           0       -0.631069    1.487070   -1.198747
      2          6           0       -0.393941    0.574682    0.004498
      3          6           0       -0.531735    1.324953    1.334743
      4          6           0       -1.224841   -0.732825   -0.025893
      5          8           0       -2.397929   -0.950773   -0.117400
      6          6           0        0.026534   -1.630010    0.048613
      7          6           0        0.858147   -0.342057   -0.047193
      8          6           0        2.149843   -0.116760   -0.692857
      9          8           0        2.013412   -0.110906    0.737463
     10          1           0        0.055328    2.340610   -1.181166
     11          1           0       -0.488310    0.955084   -2.144575
     12          1           0       -1.655010    1.872970   -1.181876
     13          1           0       -1.524030    1.778826    1.411193
     14          1           0       -0.390803    0.661122    2.192744
     15          1           0        0.223412    2.114084    1.400878
     16          1           0        0.131411   -2.148510    1.007505
     17          1           0        0.127928   -2.361007   -0.758200
     18          1           0        2.703848   -0.959740   -1.104207
     19          1           0        2.374737    0.849677   -1.141792
 ---------------------------------------------------------------------

 SCF Done:  E(RB3LYP) =  -423.173782220     A.U. after    1 cycles

 The electronic state is 1-A.
 Alpha  occ. eigenvalues --  -19.15981 -19.14181 -10.27163 -10.25054 -10.24199
 Alpha  occ. eigenvalues --  -10.20605 -10.19764 -10.18879 -10.18639  -1.08106
 Alpha  occ. eigenvalues --   -1.05006  -0.85390  -0.75919  -0.70032  -0.67030
 Alpha  occ. eigenvalues --   -0.62983  -0.58448  -0.50794  -0.49726  -0.48982
 Alpha  occ. eigenvalues --   -0.46964  -0.44934  -0.43495  -0.41928  -0.40930
 Alpha  occ. eigenvalues --   -0.39965  -0.39139  -0.37112  -0.36421  -0.35264
 Alpha  occ. eigenvalues --   -0.33719  -0.30490  -0.27095  -0.23981
 Alpha virt. eigenvalues --   -0.02688   0.07879   0.08886   0.10515   0.11483
 Alpha virt. eigenvalues --    0.11765   0.12961   0.14480   0.15597   0.16267
 Alpha virt. eigenvalues --    0.17118   0.18266   0.19581   0.20653   0.21306

 Mulliken charges:
               1
     1  C   -0.441819
     2  C    0.070915
     3  C   -0.423123
     4  C    0.395774
     5  O   -0.306078
     6  C   -0.462851
     7  C    0.414111
     8  C   -0.261981
     9  O   -0.268157
    10  H    0.120909
    11  H    0.117654
    12  H    0.136734
    13  H    0.130133
    14  H    0.125025
    15  H    0.129405
    16  H    0.148102
    17  H    0.137483
    18  H    0.118811
    19  H    0.118955
 Sum of Mulliken charges =   0.00000

 Dipole moment (field-independent basis, Debye):
    X=              1.6505    Y=              0.5815    Z=             -1.1975  Tot=              2.1204
 Quadrupole moment (field-independent basis, Debye-Ang):
   XX=            -62.3113   YY=            -50.6138   ZZ=            -52.0684
   XY=             -3.4951   XZ=             -4.5337   YZ=             -0.1169

  Exact polarizability:  82.943  -0.686  77.153  -3.763  -0.316  66.466
 Approx polarizability: 123.572   2.919 106.561  -1.506  -0.160 100.459

                      1                      2                      3
                      A                      A                      A
 Frequencies --     44.3187               158.8787               184.4461
 Red. masses --      3.6577                 3.1113                 1.7306
 Frc consts  --      0.0042                 0.0463                 0.0347
 IR Inten    --      4.5719                 1.5280                 1.6522

                      4                      5                      6
                      A                      A                      A
 Frequencies --    196.4053               200.7614               254.1134
 Red. masses --      1.8434                 1.1964                 2.2239
 Frc consts  --      0.0419                 0.0284                 0.0846
 IR Inten    --      1.2730                 0.1837                 1.8701

                      7                      8                      9
                      A                      A                      A
 Frequencies --    267.5617               318.0122               366.9913
 Red. masses --      2.3136                 2.3805                 2.6890
 Frc consts  --      0.0976                 0.1418                 0.2134
 IR Inten    --      1.6398                 2.7956                 2.8656

                     10                     11                     12
                      A                      A                      A
 Frequencies --    466.8117               497.0187               517.1894
 Red. masses --      3.2509                 2.6813                 3.7778
 Frc consts  --      0.4174                 0.3902                 0.5954
 IR Inten    --      8.7077                 0.0285                 1.2241

                     13                     14                     15
                      A                      A                      A
 Frequencies --    564.2802               673.4303               737.5927
 Red. masses --      2.8856                 3.7151                 2.6213
 Frc consts  --      0.5413                 0.9927                 0.8402
 IR Inten    --      0.0257                 1.2489                 1.2966

                     16                     17                     18
                      A                      A                      A
 Frequencies --    817.3591               862.1108               913.0808
 Red. masses --      2.6847                 1.9436                 5.0661
 Frc consts  --      1.0567                 0.8511                 2.4885
 IR Inten    --     19.1225                 4.0569                20.0188

                     19                     20                     21
                      A                      A                      A
 Frequencies --    951.6919               965.3085               981.1263
 Red. masses --      2.3978                 1.3560                 2.0598
 Frc consts  --      1.2795                 0.7445                 1.1682
 IR Inten    --      3.7162                 3.6184                 8.1667

                     22                     23                     24
                      A                      A                      A
 Frequencies --   1011.1660              1020.7350              1117.1316
 Red. masses --      1.6936                 2.6525                 1.3083
 Frc consts  --      1.0202                 1.6283                 0.9620
 IR Inten    --     11.9757                48.3745                 3.5238

                     25                     26                     27
                      A                      A                      A
 Frequencies --   1133.5436              1149.5685              1166.6898
 Red. masses --      1.3866                 2.0080                 1.7408
 Frc consts  --      1.0498                 1.5635                 1.3960
 IR Inten    --      5.3706                20.5350                12.1229

                     28                     29                     30
                      A                      A                      A
 Frequencies --   1178.4309              1197.8970              1212.4022
 Red. masses --      1.8721                 3.3934                 1.9589
 Frc consts  --      1.5318                 2.8689                 1.6965
 IR Inten    --      9.0184                 1.3262                 0.6218

                     31                     32                     33
                      A                      A                      A
 Frequencies --   1288.6193              1393.0928              1410.3987
 Red. masses --      3.6704                 1.2145                 1.3991
 Frc consts  --      3.5910                 1.3887                 1.6398
 IR Inten    --     17.8704                 1.9373                 6.6363

                     34                     35                     36
                      A                      A                      A
 Frequencies --   1416.2173              1442.6306              1480.3162
 Red. masses --      1.2061                 1.6532                 1.0472
 Frc consts  --      1.4253                 2.0271                 1.3520
 IR Inten    --     17.1974                12.8326                 1.3847

                     37                     38                     39
                      A                      A                      A
 Frequencies --   1480.8036              1499.5703              1502.7729
 Red. masses --      1.0473                 1.0702                 1.0552
 Frc consts  --      1.3531                 1.4179                 1.4041
 IR Inten    --      2.5933                 7.6222                 8.2082

                     40                     41                     42
                      A                      A                      A
 Frequencies --   1536.5386              1893.5809              3030.2893
 Red. masses --      1.5547                12.7121                 1.0346
 Frc consts  --      2.1626                26.8556                 5.5975
 IR Inten    --     13.5634               223.9542                19.5134

                     43                     44                     45
                      A                      A                      A
 Frequencies --   3039.2644              3055.3389              3081.4653
 Red. masses --      1.0339                 1.0595                 1.0505
 Frc consts  --      5.6269                 5.8274                 5.8768
 IR Inten    --     16.4796                 3.2560                24.2569

                     46                     47                     48
                      A                      A                      A
 Frequencies --   3099.5598              3108.9644              3109.9720
 Red. masses --      1.1016                 1.1020                 1.1036
 Frc consts  --      6.2355                 6.2756                 6.2889
 IR Inten    --     16.6897                 9.1585                11.5758

                     49                     50                     51
                      A                      A                      A
 Frequencies --   3111.6230              3118.1861              3168.0917
 Red. masses --      1.1022                 1.1027                 1.1194
 Frc consts  --      6.2876                 6.3168                 6.6195
 IR Inten    --     15.1401                19.6490                19.0156

 - Thermochemistry -
 -------------------
 Temperature   298.150 Kelvin.  Pressure   1.00000 Atm.
 Atom     1 has atomic number  6 and mass  12.00000

 Molecular mass:   126.06808 amu.
 Principal axes and moments of inertia in atomic units:
                           1         2         3
     Eigenvalues --   747.085631220.989311442.25338
           X            0.99823  -0.05274  -0.02758
           Y            0.05265   0.99860  -0.00407
           Z            0.02776   0.00262   0.99961
 This molecule is an asymmetric top.
 Rotational symmetry number  1.
 Warning -- assumption of classical behavior for rotation
           may cause significant error
 Rotational temperatures (Kelvin)      0.11594     0.07094     0.06005
 Rotational constants (GHZ):           2.41571     1.47810     1.25133
 Zero-point vibrational energy     409083.1 (Joules/Mol)
                                   97.77320 (Kcal/Mol)
 Warning -- explicit consideration of  13 degrees of freedom as
           vibrations may cause significant error
 Vibrational temperatures:     63.76   228.59   265.38   282.58   288.85
          (Kelvin)            365.61   384.96   457.55   528.02   671.64
                              715.10   744.12   811.87   968.91  1061.23
                             1176.00  1240.38  1313.72  1369.27  1388.86
                             1411.62  1454.84  1468.61  1607.30  1630.91
                             1653.97  1678.60  1695.50  1723.50  1744.37
                             1854.03  2004.35  2029.25  2037.62  2075.62
                             2129.84  2130.54  2157.54  2162.15  2210.73
                             2724.44  4359.90  4372.82  4395.95  4433.54
                             4459.57  4473.10  4474.55  4476.93  4486.37
                             4558.17

 Zero-point correction=                           0.155812 (Hartree/Particle)
 Thermal correction to Energy=                    0.165189
 Thermal correction to Enthalpy=                  0.166133
 Thermal correction to Gibbs Free Energy=         0.121649
 Sum of electronic and zero-point Energies=           -423.017971
 Sum of electronic and thermal Energies=              -423.008593
 Sum of electronic and thermal Enthalpies=            -423.007649
 Sum of electronic and thermal Free Energies=         -423.052133

                     E (Thermal)             CV                S
                      KCal/Mol        Cal/Mol-Kelvin    Cal/Mol-Kelvin
 Total                  103.658             34.774             93.624
 Electronic               0.000              0.000              0.000
 Translational            0.889              2.981             40.409
 Rotational               0.889              2.981             28.666
 Vibrational            101.880             28.812             24.549
 Vibration     1          0.595              1.980              5.056
 Vibration     2          0.621              1.893              2.563
 Vibration     3          0.631              1.861              2.283
 Vibration     4          0.636              1.845              2.167
 Vibration     5          0.638              1.839              2.126
 Vibration     6          0.665              1.756              1.702
 Vibration     7          0.673              1.733              1.612
 Vibration     8          0.704              1.639              1.320
 Vibration     9          0.740              1.540              1.092
 Vibration    10          0.824              1.324              0.747
 Vibration    11          0.853              1.257              0.666
 Vibration    12          0.872              1.212              0.617
 Vibration    13          0.920              1.109              0.515

 Optimization completed.
    -- Stationary point found.
 Normal termination of Gaussian 09 at Mon Jan 27 16:42:58 2020.
