 Gaussian 09, Revision D.01,
 Gaussian 09:  ES64L-G09RevD.01 24-Apr-2013

 -----------------------------
 # b3lyp 6-31G(2df,p) opt Freq
 -----------------------------

 -----
 titel
 -----
 Symbolic Z-matrix:
 Charge =  0 Multiplicity = 1

 SCF Done:  E(RB3LYP) =  -423.198350293     A.U. after   14 cycles
 Optimization completed.
    -- Stationary point found.
 Normal termination of Gaussian 09 at Mon Jan 27 13:01:41 2020.

 ----------------------------------------------------------------------
 #N Geom=AllCheck Guess=TCheck SCRF=Check GenChk RB3LYP/6-31G(2df,p) Fr
 eq
 ----------------------------------------------------------------------

 Structure from the checkpoint file:  "/scratch/puck/g09_8b541c9f-4302-4a0c-85da-c4cb3ea6c0ea/Gau-154890.chk"
 -----
 titel
 -----
 Charge =  0 Multiplicity = 1

                         Standard orientation:
 ---------------------------------------------------------------------
 Center     Atomic      Atomic             Coordinates (Angstroms)
 Number     Number       Type             X           Y           Z
 ---------------------------------------------------------------------
      1          8           0       -2.851910   -0.526914   -0.171186
      2          6           0       -1.755544   -0.060212   -0.061113
      3          6           0       -1.089709    1.236507   -0.555749
      4          6           0       -0.020091    1.022127    0.562737
      5          6           0        1.468807    1.234264    0.282092
      6          6           0        2.070618    0.091173   -0.538516
      7          8           0        1.754231   -1.167579    0.033768
      8          6           0        0.375405   -1.449489   -0.083616
      9          6           0       -0.498986   -0.463378    0.727708
     10          1           0       -0.690876    1.121059   -1.569697
     11          1           0       -1.698901    2.142549   -0.523907
     12          1           0       -0.313193    1.598165    1.444319
     13          1           0        1.636189    2.191896   -0.225416
     14          1           0        2.003262    1.279545    1.237972
     15          1           0        1.716137    0.124267   -1.583565
     16          1           0        3.161738    0.159644   -0.556317
     17          1           0        0.088121   -1.430655   -1.148737
     18          1           0        0.226556   -2.469589    0.277230
     19          1           0       -0.650597   -0.826891    1.746207
 ---------------------------------------------------------------------

 SCF Done:  E(RB3LYP) =  -423.198350293     A.U. after    1 cycles

 The electronic state is 1-A.
 Alpha  occ. eigenvalues --  -19.14684 -19.13736 -10.27026 -10.23998 -10.23441
 Alpha  occ. eigenvalues --  -10.20554 -10.19557 -10.19504 -10.19154  -1.04683
 Alpha  occ. eigenvalues --   -1.04152  -0.85791  -0.77717  -0.71581  -0.66187
 Alpha  occ. eigenvalues --   -0.63540  -0.55915  -0.53027  -0.51381  -0.48577
 Alpha  occ. eigenvalues --   -0.46558  -0.46227  -0.44413  -0.42233  -0.41094
 Alpha  occ. eigenvalues --   -0.40340  -0.37855  -0.36933  -0.35555  -0.33501
 Alpha  occ. eigenvalues --   -0.32343  -0.30840  -0.26118  -0.23921
 Alpha virt. eigenvalues --   -0.01912   0.06789   0.08958   0.10655   0.11545
 Alpha virt. eigenvalues --    0.13661   0.13970   0.15343   0.15747   0.17098
 Alpha virt. eigenvalues --    0.17487   0.17877   0.19797   0.21399   0.22185

 Mulliken charges:
               1
     1  O   -0.300164
     2  C    0.400252
     3  C   -0.370295
     4  C    0.009675
     5  C   -0.235090
     6  C   -0.079736
     7  O   -0.235001
     8  C   -0.095609
     9  C   -0.157355
    10  H    0.128824
    11  H    0.128333
    12  H    0.087078
    13  H    0.100716
    14  H    0.110510
    15  H    0.086652
    16  H    0.110973
    17  H    0.092798
    18  H    0.124168
    19  H    0.093269
 Sum of Mulliken charges =   0.00000

 Dipole moment (field-independent basis, Debye):
    X=              1.9481    Y=              1.8819    Z=             -0.0448  Tot=              2.7089
 Quadrupole moment (field-independent basis, Debye-Ang):
   XX=            -64.1135   YY=            -52.2051   ZZ=            -51.1758
   XY=              0.0576   XZ=             -1.9043   YZ=             -0.1323

  Exact polarizability:  85.513   3.481  74.839   0.562  -2.165  64.546
 Approx polarizability: 121.767   6.393 108.352   3.141  -4.347 100.669

                      1                      2                      3
                      A                      A                      A
 Frequencies --     89.3485               161.9244               189.3997
 Red. masses --      3.8887                 2.4268                 3.8525
 Frc consts  --      0.0183                 0.0375                 0.0814
 IR Inten    --      3.6520                 0.9570                 2.5312

                      4                      5                      6
                      A                      A                      A
 Frequencies --    306.2088               372.6426               398.5675
 Red. masses --      2.4186                 3.1666                 2.9584
 Frc consts  --      0.1336                 0.2591                 0.2769
 IR Inten    --      1.6037                 6.3364                 0.9282

                      7                      8                      9
                      A                      A                      A
 Frequencies --    465.7408               507.3495               520.4643
 Red. masses --      3.7101                 2.3155                 2.7480
 Frc consts  --      0.4742                 0.3512                 0.4386
 IR Inten    --      1.8581                 0.7603                 1.7591

                     10                     11                     12
                      A                      A                      A
 Frequencies --    610.4359               672.1200               743.9903
 Red. masses --      2.7933                 2.4104                 2.5055
 Frc consts  --      0.6133                 0.6416                 0.8171
 IR Inten    --      2.5639                15.4268                 1.1666

                     13                     14                     15
                      A                      A                      A
 Frequencies --    802.0520               849.7026               882.9427
 Red. masses --      2.7207                 2.1351                 2.7444
 Frc consts  --      1.0312                 0.9083                 1.2605
 IR Inten    --      0.7931                16.5908                 4.4444

                     16                     17                     18
                      A                      A                      A
 Frequencies --    901.6430               955.4034               978.1730
 Red. masses --      2.5275                 2.4392                 2.1973
 Frc consts  --      1.2106                 1.3118                 1.2387
 IR Inten    --      3.7336                12.6563                 1.7185

                     19                     20                     21
                      A                      A                      A
 Frequencies --   1027.5508              1045.9123              1070.2183
 Red. masses --      1.9148                 2.0567                 1.8143
 Frc consts  --      1.1912                 1.3256                 1.2244
 IR Inten    --     14.9580                 0.8547                 8.2926

                     22                     23                     24
                      A                      A                      A
 Frequencies --   1085.7734              1111.1253              1131.4776
 Red. masses --      3.3272                 2.1380                 4.2828
 Frc consts  --      2.3110                 1.5552                 3.2305
 IR Inten    --     66.8985                 0.8521                64.6621

                     25                     26                     27
                      A                      A                      A
 Frequencies --   1148.1792              1193.5250              1228.3280
 Red. masses --      1.9626                 1.4410                 1.5174
 Frc consts  --      1.5244                 1.2094                 1.3489
 IR Inten    --     19.6476                 2.5429                 9.9549

                     28                     29                     30
                      A                      A                      A
 Frequencies --   1238.6673              1244.7637              1297.7839
 Red. masses --      1.7003                 1.1655                 1.4625
 Frc consts  --      1.5370                 1.0640                 1.4512
 IR Inten    --     22.2645                 6.2963                17.1450

                     31                     32                     33
                      A                      A                      A
 Frequencies --   1307.2303              1336.0755              1353.1145
 Red. masses --      1.3672                 1.2766                 1.3208
 Frc consts  --      1.3765                 1.3427                 1.4248
 IR Inten    --      2.4167                 1.5285                 1.1982

                     34                     35                     36
                      A                      A                      A
 Frequencies --   1381.1147              1401.5674              1423.6840
 Red. masses --      1.3002                 1.2874                 1.2964
 Frc consts  --      1.4613                 1.4900                 1.5482
 IR Inten    --      0.4052                19.0209                 9.1677

                     37                     38                     39
                      A                      A                      A
 Frequencies --   1443.9546              1474.9369              1491.6822
 Red. masses --      1.1176                 1.0892                 1.0770
 Frc consts  --      1.3729                 1.3961                 1.4119
 IR Inten    --      9.8385                 2.1067                 1.0606

                     40                     41                     42
                      A                      A                      A
 Frequencies --   1504.8007              1888.8738              2955.4835
 Red. masses --      1.0995                12.4188                 1.0718
 Frc consts  --      1.4670                26.1058                 5.5158
 IR Inten    --      6.2010               283.8049                12.4100

                     43                     44                     45
                      A                      A                      A
 Frequencies --   2960.2008              3029.7305              3052.1849
 Red. masses --      1.0708                 1.0601                 1.0627
 Frc consts  --      5.5284                 5.7332                 5.8330
 IR Inten    --     77.4752                23.2451                 7.2982

                     46                     47                     48
                      A                      A                      A
 Frequencies --   3064.0012              3072.7734              3087.3213
 Red. masses --      1.0876                 1.0991                 1.0867
 Frc consts  --      6.0157                 6.1143                 6.1027
 IR Inten    --     17.0304                26.2999                14.3739

                     49                     50                     51
                      A                      A                      A
 Frequencies --   3089.7177              3104.8069              3117.0770
 Red. masses --      1.0927                 1.0918                 1.1024
 Frc consts  --      6.1458                 6.2009                 6.3108
 IR Inten    --     42.1231                32.2795                13.4169

 - Thermochemistry -
 -------------------
 Temperature   298.150 Kelvin.  Pressure   1.00000 Atm.
 Atom     1 has atomic number  8 and mass  15.99491

 Molecular mass:   126.06808 amu.
 Principal axes and moments of inertia in atomic units:
                           1         2         3
     Eigenvalues --   570.568531316.995091654.24148
           X            0.99993   0.00932  -0.00674
           Y           -0.00934   0.99995  -0.00310
           Z            0.00671   0.00316   0.99997
 This molecule is an asymmetric top.
 Rotational symmetry number  1.
 Warning -- assumption of classical behavior for rotation
           may cause significant error
 Rotational temperatures (Kelvin)      0.15180     0.06577     0.05236
 Rotational constants (GHZ):           3.16306     1.37035     1.09098
 Zero-point vibrational energy     423309.0 (Joules/Mol)
                                  101.17329 (Kcal/Mol)
 Warning -- explicit consideration of  10 degrees of freedom as
           vibrations may cause significant error
 Vibrational temperatures:    128.55   232.97   272.50   440.57   536.15
          (Kelvin)            573.45   670.10   729.96   748.83   878.28
                              967.03  1070.43  1153.97  1222.53  1270.36
                             1297.26  1374.61  1407.37  1478.41  1504.83
                             1539.80  1562.18  1598.66  1627.94  1651.97
                             1717.21  1767.29  1782.16  1790.94  1867.22
                             1880.81  1922.31  1946.83  1987.11  2016.54
                             2048.36  2077.53  2122.10  2146.20  2165.07
                             2717.66  4252.28  4259.06  4359.10  4391.41
                             4408.41  4421.03  4441.96  4445.41  4467.12
                             4484.77

 Zero-point correction=                           0.161230 (Hartree/Particle)
 Thermal correction to Energy=                    0.168801
 Thermal correction to Enthalpy=                  0.169745
 Thermal correction to Gibbs Free Energy=         0.129074
 Sum of electronic and zero-point Energies=           -423.037120
 Sum of electronic and thermal Energies=              -423.029549
 Sum of electronic and thermal Enthalpies=            -423.028605
 Sum of electronic and thermal Free Energies=         -423.069277

                     E (Thermal)             CV                S
                      KCal/Mol        Cal/Mol-Kelvin    Cal/Mol-Kelvin
 Total                  105.924             29.807             85.600
 Electronic               0.000              0.000              0.000
 Translational            0.889              2.981             40.409
 Rotational               0.889              2.981             28.610
 Vibrational            104.147             23.846             16.582
 Vibration     1          0.602              1.957              3.674
 Vibration     2          0.622              1.889              2.527
 Vibration     3          0.633              1.854              2.234
 Vibration     4          0.697              1.662              1.383
 Vibration     5          0.744              1.528              1.069
 Vibration     6          0.765              1.473              0.968
 Vibration     7          0.823              1.326              0.750
 Vibration     8          0.863              1.234              0.640
 Vibration     9          0.875              1.205              0.609
 Vibration    10          0.969              1.010              0.432

 Normal termination of Gaussian 09 at Mon Jan 27 13:45:51 2020.
