 Gaussian 09, Revision D.01,
 Gaussian 09:  ES64L-G09RevD.01 24-Apr-2013

 -----------------------------
 # b3lyp 6-31G(2df,p) opt Freq
 -----------------------------

 -----
 titel
 -----
 Symbolic Z-matrix:
 Charge =  0 Multiplicity = 1

 SCF Done:  E(RB3LYP) =  -423.184359229     A.U. after   14 cycles
 Optimization completed.
    -- Stationary point found.
 Normal termination of Gaussian 09 at Tue Jan 28 03:07:02 2020.

 ----------------------------------------------------------------------
 #N Geom=AllCheck Guess=TCheck SCRF=Check GenChk RB3LYP/6-31G(2df,p) Fr
 eq
 ----------------------------------------------------------------------

 Structure from the checkpoint file:  "/scratch/puck/g09_2467f352-b12c-4f83-aa21-8d0aaee6f2ad/Gau-88838.chk"
 -----
 titel
 -----
 Charge =  0 Multiplicity = 1

                         Standard orientation:
 ---------------------------------------------------------------------
 Center     Atomic      Atomic             Coordinates (Angstroms)
 Number     Number       Type             X           Y           Z
 ---------------------------------------------------------------------
      1          6           0       -1.858445   -1.234389    0.393036
      2          6           0       -0.826588   -0.591674   -0.517531
      3          8           0        0.345741   -1.411637   -0.639126
      4          6           0        1.485258   -0.544032   -0.350207
      5          6           0        1.029532    0.789484   -0.955710
      6          6           0       -0.246358    0.788662   -0.061156
      7          8           0       -1.204263    1.797698   -0.209001
      8          6           0        0.380613    0.574844    1.308934
      9          6           0        1.439102   -0.224598    1.138443
     10          1           0       -1.452573   -1.400498    1.394099
     11          1           0       -2.743244   -0.593958    0.466104
     12          1           0       -2.165978   -2.202091   -0.013640
     13          1           0       -1.263521   -0.438859   -1.514903
     14          1           0        2.379590   -1.027173   -0.738883
     15          1           0        1.698536    1.624616   -0.739421
     16          1           0        0.812971    0.728876   -2.025396
     17          1           0       -0.818426    2.627613    0.089288
     18          1           0       -0.060277    0.922435    2.235325
     19          1           0        2.062410   -0.679225    1.897592
 ---------------------------------------------------------------------

 SCF Done:  E(RB3LYP) =  -423.184359229     A.U. after    1 cycles

 The electronic state is 1-A.
 Alpha  occ. eigenvalues --  -19.14742 -19.12888 -10.24291 -10.23472 -10.22448
 Alpha  occ. eigenvalues --  -10.18477 -10.18390 -10.18194 -10.16562  -1.03955
 Alpha  occ. eigenvalues --   -1.01985  -0.83481  -0.76028  -0.71758  -0.67354
 Alpha  occ. eigenvalues --   -0.59663  -0.58557  -0.53909  -0.52225  -0.48461
 Alpha  occ. eigenvalues --   -0.45310  -0.44822  -0.42808  -0.39940  -0.39047
 Alpha  occ. eigenvalues --   -0.38394  -0.36647  -0.36322  -0.35393  -0.34084
 Alpha  occ. eigenvalues --   -0.29515  -0.27569  -0.25564  -0.23676
 Alpha virt. eigenvalues --    0.00188   0.07481   0.10693   0.12877   0.13060
 Alpha virt. eigenvalues --    0.13518   0.15354   0.16098   0.16986   0.17676
 Alpha virt. eigenvalues --    0.18718   0.19852   0.20042   0.21766   0.23336

 Mulliken charges:
               1
     1  C   -0.418777
     2  C    0.151146
     3  O   -0.300759
     4  C    0.056902
     5  C   -0.286688
     6  C    0.336152
     7  O   -0.504107
     8  C   -0.162778
     9  C   -0.077193
    10  H    0.118249
    11  H    0.123372
    12  H    0.121230
    13  H    0.078974
    14  H    0.077106
    15  H    0.093945
    16  H    0.104942
    17  H    0.280373
    18  H    0.103496
    19  H    0.104417
 Sum of Mulliken charges =   0.00000

 Dipole moment (field-independent basis, Debye):
    X=              1.0730    Y=              1.6824    Z=              0.9180  Tot=              2.1965
 Quadrupole moment (field-independent basis, Debye-Ang):
   XX=            -52.6541   YY=            -52.1551   ZZ=            -51.9910
   XY=              1.2412   XZ=             -0.3576   YZ=              0.2174

  Exact polarizability:  81.139  -2.770  71.305   0.808   0.533  71.103
 Approx polarizability: 121.377 -12.762 111.005   2.115   4.862 105.611

                      1                      2                      3
                      A                      A                      A
 Frequencies --    166.6782               202.8767               247.2033
 Red. masses --      3.1117                 1.2769                 1.7842
 Frc consts  --      0.0509                 0.0310                 0.0642
 IR Inten    --      2.0148                 2.6588                 6.9332

                      4                      5                      6
                      A                      A                      A
 Frequencies --    272.1310               343.9738               366.4452
 Red. masses --      1.1689                 3.2947                 4.3812
 Frc consts  --      0.0510                 0.2297                 0.3466
 IR Inten    --     73.5717                 3.6643                11.7501

                      7                      8                      9
                      A                      A                      A
 Frequencies --    431.2167               478.2817               508.5432
 Red. masses --      3.1102                 2.5418                 2.4550
 Frc consts  --      0.3407                 0.3426                 0.3741
 IR Inten    --      8.5065                 4.8179                 1.5432

                     10                     11                     12
                      A                      A                      A
 Frequencies --    525.8886               632.6246               661.0270
 Red. masses --      3.1922                 5.8040                 3.6948
 Frc consts  --      0.5201                 1.3686                 0.9512
 IR Inten    --      1.0101                 1.5124                 3.3824

                     13                     14                     15
                      A                      A                      A
 Frequencies --    746.7379               773.0169               806.1554
 Red. masses --      1.7682                 2.7801                 4.7230
 Frc consts  --      0.5809                 0.9788                 1.8084
 IR Inten    --      8.0951                 7.8920                 4.5656

                     16                     17                     18
                      A                      A                      A
 Frequencies --    855.0199               896.1771               909.9450
 Red. masses --      2.6523                 3.0392                 2.5878
 Frc consts  --      1.1424                 1.4381                 1.2624
 IR Inten    --     26.8206                41.4774                18.8857

                     19                     20                     21
                      A                      A                      A
 Frequencies --    928.1290               946.4622               962.6166
 Red. masses --      2.1337                 1.5506                 1.8475
 Frc consts  --      1.0829                 0.8184                 1.0087
 IR Inten    --      3.8538                12.3817                19.1956

                     22                     23                     24
                      A                      A                      A
 Frequencies --   1027.8822              1062.2313              1080.3863
 Red. masses --      1.4461                 2.3427                 1.3113
 Frc consts  --      0.9002                 1.5575                 0.9018
 IR Inten    --      7.5501                 8.7794                34.9901

                     25                     26                     27
                      A                      A                      A
 Frequencies --   1093.4232              1106.1974              1141.4237
 Red. masses --      1.8281                 1.6182                 1.8365
 Frc consts  --      1.2878                 1.1666                 1.4097
 IR Inten    --     28.4409                14.7614                27.5340

                     28                     29                     30
                      A                      A                      A
 Frequencies --   1163.4460              1224.1991              1250.0821
 Red. masses --      1.9653                 2.0967                 2.7322
 Frc consts  --      1.5674                 1.8514                 2.5156
 IR Inten    --     13.8983                 2.6077                80.4182

                     31                     32                     33
                      A                      A                      A
 Frequencies --   1278.7293              1285.4161              1332.4895
 Red. masses --      1.5037                 1.2773                 1.4553
 Frc consts  --      1.4486                 1.2435                 1.5224
 IR Inten    --      1.2558                 3.3135                 6.0148

                     34                     35                     36
                      A                      A                      A
 Frequencies --   1360.4144              1365.1980              1392.3676
 Red. masses --      1.6319                 1.8093                 1.3124
 Frc consts  --      1.7795                 1.9868                 1.4991
 IR Inten    --     27.8669                43.2430                10.9623

                     37                     38                     39
                      A                      A                      A
 Frequencies --   1407.2161              1485.1110              1492.5975
 Red. masses --      1.3720                 1.0590                 1.1238
 Frc consts  --      1.6007                 1.3762                 1.4751
 IR Inten    --     23.2836                 2.4488                 4.4707

                     40                     41                     42
                      A                      A                      A
 Frequencies --   1497.2611              1633.2286              2996.9303
 Red. masses --      1.0471                 6.0270                 1.0840
 Frc consts  --      1.3831                 9.4722                 5.7363
 IR Inten    --      2.6181                 0.9132                38.4692

                     43                     44                     45
                      A                      A                      A
 Frequencies --   3043.0057              3067.1328              3114.0005
 Red. masses --      1.0349                 1.0574                 1.1014
 Frc consts  --      5.6460                 5.8607                 6.2924
 IR Inten    --     17.2445                25.5811                14.9664

                     46                     47                     48
                      A                      A                      A
 Frequencies --   3125.6816              3130.6137              3139.8795
 Red. masses --      1.1018                 1.1090                 1.0907
 Frc consts  --      6.3424                 6.4037                 6.3357
 IR Inten    --     17.2365                27.9602                34.3029

                     49                     50                     51
                      A                      A                      A
 Frequencies --   3197.2274              3224.0785              3815.8724
 Red. masses --      1.0865                 1.1069                 1.0661
 Frc consts  --      6.5437                 6.7791                 9.1464
 IR Inten    --      5.9617                10.6599                23.5635

 - Thermochemistry -
 -------------------
 Temperature   298.150 Kelvin.  Pressure   1.00000 Atm.
 Atom     1 has atomic number  6 and mass  12.00000

 Molecular mass:   126.06808 amu.
 Principal axes and moments of inertia in atomic units:
                           1         2         3
     Eigenvalues --   809.58521 900.999641145.45256
           X            0.96847   0.24762  -0.02747
           Y           -0.24853   0.96791  -0.03711
           Z            0.01739   0.04277   0.99893
 This molecule is an asymmetric top.
 Rotational symmetry number  1.
 Warning -- assumption of classical behavior for rotation
           may cause significant error
 Rotational temperatures (Kelvin)      0.10699     0.09613     0.07562
 Rotational constants (GHZ):           2.22922     2.00304     1.57557
 Zero-point vibrational energy     419858.6 (Joules/Mol)
                                  100.34861 (Kcal/Mol)
 Warning -- explicit consideration of  10 degrees of freedom as
           vibrations may cause significant error
 Vibrational temperatures:    239.81   291.89   355.67   391.54   494.90
          (Kelvin)            527.23   620.42   688.14   731.68   756.64
                              910.20   951.07  1074.39  1112.20  1159.88
                             1230.18  1289.40  1309.21  1335.37  1361.75
                             1384.99  1478.89  1528.31  1554.43  1573.19
                             1591.57  1642.25  1673.94  1761.35  1798.59
                             1839.80  1849.42  1917.15  1957.33  1964.21
                             2003.30  2024.67  2136.74  2147.51  2154.22
                             2349.85  4311.91  4378.20  4412.91  4480.35
                             4497.15  4504.25  4517.58  4600.09  4638.72
                             5490.18

 Zero-point correction=                           0.159916 (Hartree/Particle)
 Thermal correction to Energy=                    0.167652
 Thermal correction to Enthalpy=                  0.168596
 Thermal correction to Gibbs Free Energy=         0.128407
 Sum of electronic and zero-point Energies=           -423.024444
 Sum of electronic and thermal Energies=              -423.016707
 Sum of electronic and thermal Enthalpies=            -423.015763
 Sum of electronic and thermal Free Energies=         -423.055952

                     E (Thermal)             CV                S
                      KCal/Mol        Cal/Mol-Kelvin    Cal/Mol-Kelvin
 Total                  105.203             31.791             84.585
 Electronic               0.000              0.000              0.000
 Translational            0.889              2.981             40.409
 Rotational               0.889              2.981             28.215
 Vibrational            103.426             25.829             15.961
 Vibration     1          0.624              1.883              2.473
 Vibration     2          0.639              1.836              2.107
 Vibration     3          0.661              1.767              1.750
 Vibration     4          0.675              1.725              1.583
 Vibration     5          0.723              1.588              1.194
 Vibration     6          0.739              1.541              1.095
 Vibration     7          0.792              1.402              0.855
 Vibration     8          0.835              1.298              0.715
 Vibration     9          0.864              1.231              0.637
 Vibration    10          0.881              1.193              0.596

 Optimization completed.
    -- Stationary point found.
 Normal termination of Gaussian 09 at Tue Jan 28 03:53:50 2020.
