 Gaussian 09, Revision D.01,
 Gaussian 09:  ES64L-G09RevD.01 24-Apr-2013

 -----------------------------
 # b3lyp 6-31G(2df,p) opt Freq
 -----------------------------

 -----
 titel
 -----
 Symbolic Z-matrix:
 Charge =  0 Multiplicity = 1

 SCF Done:  E(RB3LYP) =  -423.211127208     A.U. after   14 cycles
 Optimization completed.
    -- Stationary point found.
 Normal termination of Gaussian 09 at Tue Jan 28 03:16:21 2020.

 ----------------------------------------------------------------------
 #N Geom=AllCheck Guess=TCheck SCRF=Check GenChk RB3LYP/6-31G(2df,p) Fr
 eq
 ----------------------------------------------------------------------

 Structure from the checkpoint file:  "/scratch/puck/g09_88e16e95-43ed-44ab-9824-cc77ebba0ab4/Gau-79159.chk"
 -----
 titel
 -----
 Charge =  0 Multiplicity = 1

                         Standard orientation:
 ---------------------------------------------------------------------
 Center     Atomic      Atomic             Coordinates (Angstroms)
 Number     Number       Type             X           Y           Z
 ---------------------------------------------------------------------
      1          6           0        2.656414    0.299737   -0.198653
      2          6           0        1.316554   -0.215193    0.321239
      3          6           0        0.766190   -1.486841   -0.371660
      4          6           0       -0.743755   -1.323965   -0.332235
      5          8           0       -1.229718   -0.976208    0.963301
      6          6           0       -1.117681    0.073763   -0.031002
      7          6           0       -2.364983    0.793401   -0.442780
      8          6           0        0.185885    0.816943    0.165379
      9          8           0        0.313744    2.015471    0.136007
     10          1           0        2.619398    0.472437   -1.279470
     11          1           0        2.907019    1.249943    0.279435
     12          1           0        3.458392   -0.416322    0.003546
     13          1           0        1.397093   -0.408813    1.398195
     14          1           0        1.099716   -1.530541   -1.415726
     15          1           0        1.089152   -2.411616    0.115914
     16          1           0       -1.395543   -1.967007   -0.919472
     17          1           0       -2.215240    1.302032   -1.399768
     18          1           0       -3.198504    0.093579   -0.536822
     19          1           0       -2.625450    1.555133    0.297976
 ---------------------------------------------------------------------

 SCF Done:  E(RB3LYP) =  -423.211127208     A.U. after    1 cycles

 The electronic state is 1-A.
 Alpha  occ. eigenvalues --  -19.16305 -19.13715 -10.26774 -10.24837 -10.24696
 Alpha  occ. eigenvalues --  -10.19956 -10.19860 -10.18830 -10.18075  -1.08538
 Alpha  occ. eigenvalues --   -1.04396  -0.82045  -0.75846  -0.72575  -0.67520
 Alpha  occ. eigenvalues --   -0.63568  -0.57921  -0.52352  -0.49748  -0.48993
 Alpha  occ. eigenvalues --   -0.45478  -0.44586  -0.42457  -0.41250  -0.40817
 Alpha  occ. eigenvalues --   -0.39643  -0.38412  -0.37170  -0.36758  -0.35632
 Alpha  occ. eigenvalues --   -0.34028  -0.30123  -0.29093  -0.23726
 Alpha virt. eigenvalues --   -0.02586   0.08996   0.10382   0.10995   0.12174
 Alpha virt. eigenvalues --    0.13097   0.13672   0.14762   0.16428   0.16707
 Alpha virt. eigenvalues --    0.17019   0.17724   0.19318   0.20875   0.21326

 Mulliken charges:
               1
     1  C   -0.401353
     2  C   -0.102004
     3  C   -0.265379
     4  C   -0.016494
     5  O   -0.290675
     6  C    0.292565
     7  C   -0.494443
     8  C    0.373592
     9  O   -0.326040
    10  H    0.118233
    11  H    0.138749
    12  H    0.114364
    13  H    0.120989
    14  H    0.110328
    15  H    0.116782
    16  H    0.101470
    17  H    0.135109
    18  H    0.129691
    19  H    0.144515
 Sum of Mulliken charges =   0.00000

 Dipole moment (field-independent basis, Debye):
    X=              0.1917    Y=             -2.0800    Z=             -1.5363  Tot=              2.5930
 Quadrupole moment (field-independent basis, Debye-Ang):
   XX=            -50.5433   YY=            -57.6412   ZZ=            -53.0112
   XY=             -2.5921   XZ=              2.7292   YZ=              1.7207

  Exact polarizability:  84.295  -1.866  81.158   1.166   1.407  59.765
 Approx polarizability: 104.606   0.246 129.744  -1.519  -0.748  98.211

                      1                      2                      3
                      A                      A                      A
 Frequencies --     75.4063               140.9392               189.5615
 Red. masses --      3.7329                 1.1047                 2.6937
 Frc consts  --      0.0125                 0.0129                 0.0570
 IR Inten    --      2.3254                 0.3915                 3.7196

                      4                      5                      6
                      A                      A                      A
 Frequencies --    193.7822               237.3369               266.8526
 Red. masses --      1.0820                 2.4497                 3.5158
 Frc consts  --      0.0239                 0.0813                 0.1475
 IR Inten    --      0.5501                 0.7973                 5.1164

                      7                      8                      9
                      A                      A                      A
 Frequencies --    285.5687               380.7208               425.7260
 Red. masses --      2.9068                 3.7878                 2.5075
 Frc consts  --      0.1397                 0.3235                 0.2678
 IR Inten    --      3.4049                 5.9642                 2.4883

                     10                     11                     12
                      A                      A                      A
 Frequencies --    491.6052               534.0547               650.2708
 Red. masses --      4.4359                 4.5613                 5.2690
 Frc consts  --      0.6316                 0.7665                 1.3127
 IR Inten    --      5.3904                 6.9041                 3.6165

                     13                     14                     15
                      A                      A                      A
 Frequencies --    663.4576               757.3277               788.0408
 Red. masses --      5.0160                 3.7173                 3.4152
 Frc consts  --      1.3009                 1.2561                 1.2496
 IR Inten    --      0.9224                 6.9110                 1.5577

                     16                     17                     18
                      A                      A                      A
 Frequencies --    842.3739               890.6389               901.5511
 Red. masses --      2.9795                 2.0572                 1.8956
 Frc consts  --      1.2457                 0.9615                 0.9078
 IR Inten    --     17.7830                 2.4460                10.9233

                     19                     20                     21
                      A                      A                      A
 Frequencies --    953.9839              1006.2392              1018.1054
 Red. masses --      1.7848                 2.1897                 1.3334
 Frc consts  --      0.9570                 1.3063                 0.8143
 IR Inten    --      7.4280                32.0469                 2.2507

                     22                     23                     24
                      A                      A                      A
 Frequencies --   1033.5146              1101.0959              1110.7769
 Red. masses --      1.9077                 2.0101                 1.5780
 Frc consts  --      1.2006                 1.4359                 1.1471
 IR Inten    --      3.0228                13.8872                 9.8018

                     25                     26                     27
                      A                      A                      A
 Frequencies --   1131.7904              1140.0543              1210.4703
 Red. masses --      1.8673                 2.6542                 1.4434
 Frc consts  --      1.4093                 2.0325                 1.2460
 IR Inten    --      0.4404                13.9233                 2.2123

                     28                     29                     30
                      A                      A                      A
 Frequencies --   1275.9184              1287.4360              1298.5054
 Red. masses --      1.5561                 1.6210                 1.8819
 Frc consts  --      1.4926                 1.5830                 1.8696
 IR Inten    --      1.5202                 6.7447                 3.3983

                     31                     32                     33
                      A                      A                      A
 Frequencies --   1316.1067              1347.0337              1407.2663
 Red. masses --      1.5980                 1.9625                 1.2864
 Frc consts  --      1.6309                 2.0980                 1.5010
 IR Inten    --      0.5708                 5.4232                 2.9189

                     34                     35                     36
                      A                      A                      A
 Frequencies --   1411.2527              1454.2349              1477.8424
 Red. masses --      1.2315                 2.9987                 1.0951
 Frc consts  --      1.4451                 3.7363                 1.4092
 IR Inten    --      3.0124                 9.8197                 8.6821

                     37                     38                     39
                      A                      A                      A
 Frequencies --   1483.7719              1491.2701              1494.8996
 Red. masses --      1.0871                 1.1246                 1.0633
 Frc consts  --      1.4101                 1.4735                 1.4000
 IR Inten    --      2.1969                 7.6861                 4.1557

                     40                     41                     42
                      A                      A                      A
 Frequencies --   1497.7140              1835.8505              3033.7551
 Red. masses --      1.0509                12.7408                 1.0794
 Frc consts  --      1.3888                25.3000                 5.8535
 IR Inten    --      3.2943               176.0941                 0.2988

                     43                     44                     45
                      A                      A                      A
 Frequencies --   3037.3430              3041.7075              3047.8217
 Red. masses --      1.0520                 1.0475                 1.0351
 Frc consts  --      5.7182                 5.7098                 5.6649
 IR Inten    --      9.9555                43.8244                12.2580

                     46                     47                     48
                      A                      A                      A
 Frequencies --   3087.5357              3106.7703              3115.0549
 Red. masses --      1.1016                 1.1013                 1.1006
 Frc consts  --      6.1872                 6.2629                 6.2922
 IR Inten    --     15.1241                27.7795                10.0758

                     49                     50                     51
                      A                      A                      A
 Frequencies --   3125.6977              3132.2242              3142.1581
 Red. masses --      1.1010                 1.1026                 1.0909
 Frc consts  --      6.3377                 6.3732                 6.3459
 IR Inten    --     11.7880                 7.9106                27.2530

 - Thermochemistry -
 -------------------
 Temperature   298.150 Kelvin.  Pressure   1.00000 Atm.
 Atom     1 has atomic number  6 and mass  12.00000

 Molecular mass:   126.06808 amu.
 Principal axes and moments of inertia in atomic units:
                           1         2         3
     Eigenvalues --   694.427081125.083621595.85639
           X            0.99868  -0.04981   0.01243
           Y            0.04968   0.99871   0.01078
           Z           -0.01295  -0.01015   0.99986
 This molecule is an asymmetric top.
 Rotational symmetry number  1.
 Warning -- assumption of classical behavior for rotation
           may cause significant error
 Rotational temperatures (Kelvin)      0.12473     0.07698     0.05427
 Rotational constants (GHZ):           2.59889     1.60410     1.13089
 Zero-point vibrational energy     414927.2 (Joules/Mol)
                                   99.16999 (Kcal/Mol)
 Warning -- explicit consideration of  11 degrees of freedom as
           vibrations may cause significant error
 Vibrational temperatures:    108.49   202.78   272.74   278.81   341.47
          (Kelvin)            383.94   410.87   547.77   612.52   707.31
                              768.38   935.59   954.57  1089.62  1133.81
                             1211.99  1281.43  1297.13  1372.57  1447.75
                             1464.82  1487.00  1584.23  1598.16  1628.39
                             1640.28  1741.59  1835.76  1852.33  1868.26
                             1893.58  1938.08  2024.74  2030.48  2092.32
                             2126.28  2134.81  2145.60  2150.82  2154.87
                             2641.38  4364.89  4370.05  4376.33  4385.13
                             4442.27  4469.94  4481.86  4497.18  4506.57
                             4520.86

 Zero-point correction=                           0.158037 (Hartree/Particle)
 Thermal correction to Energy=                    0.166880
 Thermal correction to Enthalpy=                  0.167824
 Thermal correction to Gibbs Free Energy=         0.124643
 Sum of electronic and zero-point Energies=           -423.053090
 Sum of electronic and thermal Energies=              -423.044247
 Sum of electronic and thermal Enthalpies=            -423.043303
 Sum of electronic and thermal Free Energies=         -423.086484

                     E (Thermal)             CV                S
                      KCal/Mol        Cal/Mol-Kelvin    Cal/Mol-Kelvin
 Total                  104.719             33.132             90.883
 Electronic               0.000              0.000              0.000
 Translational            0.889              2.981             40.409
 Rotational               0.889              2.981             28.613
 Vibrational            102.941             27.170             21.862
 Vibration     1          0.599              1.965              4.007
 Vibration     2          0.615              1.912              2.791
 Vibration     3          0.633              1.854              2.232
 Vibration     4          0.635              1.849              2.191
 Vibration     5          0.656              1.784              1.823
 Vibration     6          0.672              1.734              1.617
 Vibration     7          0.683              1.700              1.500
 Vibration     8          0.750              1.511              1.036
 Vibration     9          0.788              1.414              0.873
 Vibration    10          0.847              1.269              0.679
 Vibration    11          0.889              1.175              0.578

 Optimization completed.
    -- Stationary point found.
 Normal termination of Gaussian 09 at Tue Jan 28 03:58:42 2020.
