 Gaussian 09, Revision D.01,
 Gaussian 09:  ES64L-G09RevD.01 24-Apr-2013

 -----------------------------
 # b3lyp 6-31G(2df,p) opt Freq
 -----------------------------

 -----
 titel
 -----
 Symbolic Z-matrix:
 Charge =  0 Multiplicity = 1

 SCF Done:  E(RB3LYP) =  -423.143632586     A.U. after   12 cycles
 Optimization completed.
    -- Stationary point found.
 Normal termination of Gaussian 09 at Mon Jan 27 23:49:33 2020.

 ----------------------------------------------------------------------
 #N Geom=AllCheck Guess=TCheck SCRF=Check GenChk RB3LYP/6-31G(2df,p) Fr
 eq
 ----------------------------------------------------------------------

 Structure from the checkpoint file:  "/scratch/puck/g09_c4a12eb8-55c4-4998-a816-28c02960ee1a/Gau-193987.chk"
 -----
 titel
 -----
 Charge =  0 Multiplicity = 1

                         Standard orientation:
 ---------------------------------------------------------------------
 Center     Atomic      Atomic             Coordinates (Angstroms)
 Number     Number       Type             X           Y           Z
 ---------------------------------------------------------------------
      1          6           0        2.602514   -0.351334   -0.172980
      2          6           0        1.137632   -0.747397   -0.121694
      3          6           0        0.218177   -0.179741    0.994028
      4          8           0        0.381160    1.238025    0.866742
      5          6           0       -0.192805    1.361976   -0.449280
      6          6           0       -1.668334    0.977027   -0.201810
      7          6           0       -1.033037   -0.406155    0.022843
      8          8           0       -1.699787   -1.620797    0.023903
      9          6           0        0.080257   -0.092360   -1.029926
     10          1           0        3.175904   -0.859087    0.610831
     11          1           0        3.048146   -0.623129   -1.136058
     12          1           0        2.718067    0.725989   -0.031444
     13          1           0        1.004726   -1.832541   -0.179315
     14          1           0        0.253330   -0.493610    2.037797
     15          1           0        0.118713    2.283425   -0.935007
     16          1           0       -2.184942    1.494561    0.610876
     17          1           0       -2.264853    0.975226   -1.117831
     18          1           0       -2.154955   -1.719841    0.867591
     19          1           0       -0.031545   -0.260913   -2.099682
 ---------------------------------------------------------------------

 SCF Done:  E(RB3LYP) =  -423.143632586     A.U. after    1 cycles

 The electronic state is 1-A.
 Alpha  occ. eigenvalues --  -19.15156 -19.13653 -10.24077 -10.23559 -10.22929
 Alpha  occ. eigenvalues --  -10.18805 -10.18456 -10.17925 -10.16677  -1.05694
 Alpha  occ. eigenvalues --   -1.03059  -0.84320  -0.77642  -0.70195  -0.66300
 Alpha  occ. eigenvalues --   -0.59273  -0.56344  -0.55595  -0.53234  -0.48062
 Alpha  occ. eigenvalues --   -0.46012  -0.43681  -0.42215  -0.40490  -0.39328
 Alpha  occ. eigenvalues --   -0.38238  -0.36609  -0.34416  -0.33363  -0.32886
 Alpha  occ. eigenvalues --   -0.32025  -0.27348  -0.27094  -0.23098
 Alpha virt. eigenvalues --    0.06852   0.09430   0.11486   0.12632   0.14125
 Alpha virt. eigenvalues --    0.14411   0.15316   0.15767   0.16909   0.17557
 Alpha virt. eigenvalues --    0.17881   0.18414   0.19248   0.20056   0.20669

 Mulliken charges:
               1
     1  C   -0.433414
     2  C    0.026666
     3  C   -0.015440
     4  O   -0.266786
     5  C    0.068586
     6  C   -0.312016
     7  C    0.382705
     8  O   -0.479770
     9  C   -0.125505
    10  H    0.111684
    11  H    0.111812
    12  H    0.129811
    13  H    0.086686
    14  H    0.069571
    15  H    0.083799
    16  H    0.095861
    17  H    0.105880
    18  H    0.284526
    19  H    0.075347
 Sum of Mulliken charges =   0.00000

 Dipole moment (field-independent basis, Debye):
    X=             -0.7314    Y=             -0.4248    Z=              0.1698  Tot=              0.8627
 Quadrupole moment (field-independent basis, Debye-Ang):
   XX=            -51.9649   YY=            -55.0492   ZZ=            -50.8896
   XY=             -1.3453   XZ=             -3.3173   YZ=             -5.1644

  Exact polarizability:  82.727  -3.653  71.759  -0.846  -3.141  68.847
 Approx polarizability: 108.974  -0.705 109.771  -0.317  -2.152 109.106

                      1                      2                      3
                      A                      A                      A
 Frequencies --    182.0523               193.3476               238.8031
 Red. masses --      3.0611                 1.0271                 1.8628
 Frc consts  --      0.0598                 0.0226                 0.0626
 IR Inten    --      1.8199                 0.0246                24.0496

                      4                      5                      6
                      A                      A                      A
 Frequencies --    258.9581               311.0283               338.7530
 Red. masses --      1.5320                 3.0679                 4.0217
 Frc consts  --      0.0605                 0.1749                 0.2719
 IR Inten    --     42.6036                 8.7605                35.9841

                      7                      8                      9
                      A                      A                      A
 Frequencies --    466.5918               513.8539               570.5799
 Red. masses --      1.9439                 3.5180                 4.4594
 Frc consts  --      0.2493                 0.5473                 0.8554
 IR Inten    --      3.1185                 2.3659                 3.8487

                     10                     11                     12
                      A                      A                      A
 Frequencies --    607.2403               679.3394               724.9528
 Red. masses --      4.5332                 3.9490                 2.8756
 Frc consts  --      0.9849                 1.0738                 0.8904
 IR Inten    --      4.7751                 1.1669                 2.7924

                     13                     14                     15
                      A                      A                      A
 Frequencies --    782.9864               806.7553               889.0134
 Red. masses --      2.7703                 2.5247                 2.0034
 Frc consts  --      1.0007                 0.9682                 0.9329
 IR Inten    --      0.5551                 1.3685                 6.4934

                     16                     17                     18
                      A                      A                      A
 Frequencies --    908.6208               923.6732               931.6065
 Red. masses --      2.8383                 2.1428                 2.2554
 Frc consts  --      1.3806                 1.0771                 1.1533
 IR Inten    --     17.5895                 5.7750                12.0686

                     19                     20                     21
                      A                      A                      A
 Frequencies --    947.8090              1002.5600              1016.8190
 Red. masses --      3.4632                 1.9634                 2.3671
 Frc consts  --      1.8330                 1.1627                 1.4419
 IR Inten    --     33.2217                18.3059                 8.2341

                     22                     23                     24
                      A                      A                      A
 Frequencies --   1031.7721              1059.5264              1073.7482
 Red. masses --      1.7098                 1.6967                 1.9338
 Frc consts  --      1.0724                 1.1222                 1.3136
 IR Inten    --     11.5401                17.8757                 9.4197

                     25                     26                     27
                      A                      A                      A
 Frequencies --   1102.4732              1130.6216              1152.4112
 Red. masses --      1.5848                 1.3868                 1.8562
 Frc consts  --      1.1349                 1.0445                 1.4524
 IR Inten    --      1.6389                11.6642                 2.2254

                     28                     29                     30
                      A                      A                      A
 Frequencies --   1167.9816              1202.4823              1207.6003
 Red. masses --      1.9981                 1.8920                 1.7514
 Frc consts  --      1.6060                 1.6119                 1.5048
 IR Inten    --      3.2148                11.9462                26.8262

                     31                     32                     33
                      A                      A                      A
 Frequencies --   1237.7189              1255.3713              1275.5837
 Red. masses --      1.8092                 1.3347                 1.6540
 Frc consts  --      1.6329                 1.2393                 1.5856
 IR Inten    --      5.6590                12.7444                 8.6488

                     34                     35                     36
                      A                      A                      A
 Frequencies --   1296.5315              1332.1396              1372.7065
 Red. masses --      2.2463                 1.5060                 1.9143
 Frc consts  --      2.2247                 1.5746                 2.1253
 IR Inten    --    162.6622                 1.4524                11.1955

                     37                     38                     39
                      A                      A                      A
 Frequencies --   1388.5221              1408.4680              1480.4076
 Red. masses --      1.6069                 1.3566                 1.1771
 Frc consts  --      1.8253                 1.5856                 1.5199
 IR Inten    --      1.5896                 4.9679                 3.7950

                     40                     41                     42
                      A                      A                      A
 Frequencies --   1492.1075              1503.3064              3032.3240
 Red. masses --      1.0463                 1.0490                 1.0375
 Frc consts  --      1.3725                 1.3968                 5.6209
 IR Inten    --      4.1099                 3.5310                33.7323

                     43                     44                     45
                      A                      A                      A
 Frequencies --   3056.4144              3065.3771              3090.7278
 Red. masses --      1.0559                 1.0835                 1.1005
 Frc consts  --      5.8118                 5.9985                 6.1940
 IR Inten    --     31.4560                12.5709                23.2593

                     46                     47                     48
                      A                      A                      A
 Frequencies --   3115.3852              3122.8076              3123.8364
 Red. masses --      1.0906                 1.1092                 1.0993
 Frc consts  --      6.2365                 6.3733                 6.3206
 IR Inten    --     47.1448                15.9260                20.6942

                     49                     50                     51
                      A                      A                      A
 Frequencies --   3134.7703              3152.5772              3796.5026
 Red. masses --      1.0903                 1.0929                 1.0659
 Frc consts  --      6.3127                 6.3999                 9.0514
 IR Inten    --     21.0821                32.5489                25.3857

 - Thermochemistry -
 -------------------
 Temperature   298.150 Kelvin.  Pressure   1.00000 Atm.
 Atom     1 has atomic number  6 and mass  12.00000

 Molecular mass:   126.06808 amu.
 Principal axes and moments of inertia in atomic units:
                           1         2         3
     Eigenvalues --   646.397731032.395971296.97398
           X            0.99833  -0.05696  -0.00940
           Y            0.05642   0.99718  -0.04947
           Z            0.01220   0.04886   0.99873
 This molecule is an asymmetric top.
 Rotational symmetry number  1.
 Warning -- assumption of classical behavior for rotation
           may cause significant error
 Rotational temperatures (Kelvin)      0.13399     0.08390     0.06678
 Rotational constants (GHZ):           2.79200     1.74811     1.39150
 Zero-point vibrational energy     419635.3 (Joules/Mol)
                                  100.29525 (Kcal/Mol)
 Warning -- explicit consideration of  10 degrees of freedom as
           vibrations may cause significant error
 Vibrational temperatures:    261.93   278.18   343.58   372.58   447.50
          (Kelvin)            487.39   671.32   739.32   820.94   873.68
                              977.42  1043.04  1126.54  1160.74  1279.09
                             1307.30  1328.96  1340.37  1363.68  1442.46
                             1462.97  1484.49  1524.42  1544.88  1586.21
                             1626.71  1658.06  1680.46  1730.10  1737.47
                             1780.80  1806.20  1835.28  1865.42  1916.65
                             1975.02  1997.77  2026.47  2129.97  2146.81
                             2162.92  4362.83  4397.49  4410.39  4446.86
                             4482.34  4493.02  4494.50  4510.23  4535.85
                             5462.31

 Zero-point correction=                           0.159831 (Hartree/Particle)
 Thermal correction to Energy=                    0.167392
 Thermal correction to Enthalpy=                  0.168336
 Thermal correction to Gibbs Free Energy=         0.128353
 Sum of electronic and zero-point Energies=           -422.983802
 Sum of electronic and thermal Energies=              -422.976241
 Sum of electronic and thermal Enthalpies=            -422.975296
 Sum of electronic and thermal Free Energies=         -423.015279

                     E (Thermal)             CV                S
                      KCal/Mol        Cal/Mol-Kelvin    Cal/Mol-Kelvin
 Total                  105.040             30.903             84.152
 Electronic               0.000              0.000              0.000
 Translational            0.889              2.981             40.409
 Rotational               0.889              2.981             28.250
 Vibrational            103.263             24.942             15.493
 Vibration     1          0.630              1.864              2.307
 Vibration     2          0.635              1.849              2.195
 Vibration     3          0.657              1.781              1.812
 Vibration     4          0.668              1.748              1.669
 Vibration     5          0.700              1.653              1.357
 Vibration     6          0.719              1.598              1.218
 Vibration     7          0.824              1.324              0.747
 Vibration     8          0.869              1.219              0.624
 Vibration     9          0.927              1.095              0.503
 Vibration    10          0.966              1.016              0.437

 Normal termination of Gaussian 09 at Tue Jan 28 00:35:23 2020.
