 Gaussian 09, Revision D.01,
 Gaussian 09:  ES64L-G09RevD.01 24-Apr-2013

 -----------------------------
 # b3lyp 6-31G(2df,p) opt Freq
 -----------------------------

 -----
 titel
 -----
 Symbolic Z-matrix:
 Charge =  0 Multiplicity = 1

 SCF Done:  E(RB3LYP) =  -423.204102408     A.U. after   14 cycles
 Optimization completed.
    -- Stationary point found.
 Normal termination of Gaussian 09 at Tue Jan 28 00:05:43 2020.

 ----------------------------------------------------------------------
 #N Geom=AllCheck Guess=TCheck SCRF=Check GenChk RB3LYP/6-31G(2df,p) Fr
 eq
 ----------------------------------------------------------------------

 Structure from the checkpoint file:  "/scratch/puck/g09_a300eab4-ff17-4aae-b5e4-315ac69b5264/Gau-2903.chk"
 -----
 titel
 -----
 Charge =  0 Multiplicity = 1

                         Standard orientation:
 ---------------------------------------------------------------------
 Center     Atomic      Atomic             Coordinates (Angstroms)
 Number     Number       Type             X           Y           Z
 ---------------------------------------------------------------------
      1          8           0        1.490648    1.789996    0.062461
      2          6           0        0.604895    0.761063   -0.280305
      3          6           0       -0.657961    0.664655    0.586451
      4          6           0       -2.001820    1.016723   -0.101537
      5          6           0       -2.162981   -0.476150   -0.506586
      6          6           0       -1.055429   -0.857348    0.521208
      7          6           0        0.169148   -1.672040    0.072199
      8          6           0        1.256739   -0.620370   -0.136287
      9          8           0        2.452764   -0.773750   -0.112306
     10          1           0        2.374093    1.390985    0.029468
     11          1           0        0.305999    0.841892   -1.344422
     12          1           0       -0.456946    1.104150    1.565692
     13          1           0       -2.757930    1.327567    0.623935
     14          1           0       -1.968063    1.758003   -0.904316
     15          1           0       -3.146363   -0.929290   -0.362550
     16          1           0       -1.849877   -0.667171   -1.538129
     17          1           0       -1.480090   -1.232764    1.453560
     18          1           0        0.515378   -2.403175    0.807888
     19          1           0        0.000951   -2.219369   -0.863222
 ---------------------------------------------------------------------

 SCF Done:  E(RB3LYP) =  -423.204102408     A.U. after    1 cycles

 The electronic state is 1-A.
 Alpha  occ. eigenvalues --  -19.14808 -19.13425 -10.27461 -10.23644 -10.19924
 Alpha  occ. eigenvalues --  -10.19868 -10.19177 -10.19037 -10.18719  -1.06149
 Alpha  occ. eigenvalues --   -1.01586  -0.86933  -0.76851  -0.72149  -0.64085
 Alpha  occ. eigenvalues --   -0.63544  -0.56054  -0.53969  -0.51366  -0.48596
 Alpha  occ. eigenvalues --   -0.46958  -0.44963  -0.44463  -0.44048  -0.39559
 Alpha  occ. eigenvalues --   -0.38524  -0.37061  -0.34798  -0.34235  -0.34006
 Alpha  occ. eigenvalues --   -0.31134  -0.30628  -0.26794  -0.25238
 Alpha virt. eigenvalues --   -0.02854   0.07407   0.09124   0.10581   0.10979
 Alpha virt. eigenvalues --    0.12807   0.13522   0.14680   0.15163   0.17219
 Alpha virt. eigenvalues --    0.18060   0.20134   0.21361   0.21591   0.22742

 Mulliken charges:
               1
     1  O   -0.443284
     2  C    0.046437
     3  C   -0.040274
     4  C   -0.230578
     5  C   -0.237278
     6  C    0.000424
     7  C   -0.361372
     8  C    0.365513
     9  O   -0.325052
    10  H    0.289999
    11  H    0.086593
    12  H    0.083953
    13  H    0.105443
    14  H    0.104684
    15  H    0.103023
    16  H    0.100914
    17  H    0.081040
    18  H    0.136325
    19  H    0.133491
 Sum of Mulliken charges =   0.00000

 Dipole moment (field-independent basis, Debye):
    X=             -2.4521    Y=             -1.3187    Z=             -0.1129  Tot=              2.7865
 Quadrupole moment (field-independent basis, Debye-Ang):
   XX=            -57.4166   YY=            -56.2824   ZZ=            -51.1424
   XY=              1.1318   XZ=             -0.4223   YZ=             -0.5555

  Exact polarizability:  87.037  -0.536  75.165   0.846  -0.183  61.421
 Approx polarizability: 122.767  -0.903 107.200   1.589   0.378  96.540

                      1                      2                      3
                      A                      A                      A
 Frequencies --     79.1481               113.6356               244.9155
 Red. masses --      4.4346                 2.4448                 3.1707
 Frc consts  --      0.0164                 0.0186                 0.1121
 IR Inten    --      0.7285                 0.6598                 8.0851

                      4                      5                      6
                      A                      A                      A
 Frequencies --    300.3873               328.5175               356.5658
 Red. masses --      3.2149                 2.5975                 4.7152
 Frc consts  --      0.1709                 0.1652                 0.3532
 IR Inten    --     16.9774                 1.5893                 7.3968

                      7                      8                      9
                      A                      A                      A
 Frequencies --    403.9075               458.6204               566.8902
 Red. masses --      1.5811                 1.6128                 4.2176
 Frc consts  --      0.1520                 0.1999                 0.7986
 IR Inten    --     31.4593                36.6603                 2.5872

                     10                     11                     12
                      A                      A                      A
 Frequencies --    633.0683               643.4049               679.3371
 Red. masses --      3.4877                 4.7939                 2.1676
 Frc consts  --      0.8236                 1.1692                 0.5894
 IR Inten    --      1.0407                 6.3131                 2.5454

                     13                     14                     15
                      A                      A                      A
 Frequencies --    753.8267               770.2892               879.6256
 Red. masses --      1.9971                 1.6479                 2.4843
 Frc consts  --      0.6686                 0.5761                 1.1325
 IR Inten    --      5.9760                 0.6350                 0.4354

                     16                     17                     18
                      A                      A                      A
 Frequencies --    882.1017               896.2058               949.0734
 Red. masses --      2.2781                 2.1672                 2.5914
 Frc consts  --      1.0444                 1.0256                 1.3753
 IR Inten    --      0.9281                 2.6372                 0.1286

                     19                     20                     21
                      A                      A                      A
 Frequencies --    970.6090              1001.8042              1035.2231
 Red. masses --      1.6345                 2.0190                 2.0223
 Frc consts  --      0.9072                 1.1939                 1.2769
 IR Inten    --      0.3328                 0.5738                20.4169

                     22                     23                     24
                      A                      A                      A
 Frequencies --   1078.8851              1105.8371              1112.6575
 Red. masses --      2.3930                 2.3214                 2.3172
 Frc consts  --      1.6411                 1.6725                 1.6902
 IR Inten    --      3.0501                85.0661                46.2881

                     25                     26                     27
                      A                      A                      A
 Frequencies --   1167.5336              1173.4968              1199.5436
 Red. masses --      1.5826                 1.9959                 1.7630
 Frc consts  --      1.2710                 1.6194                 1.4946
 IR Inten    --     23.3186                 8.7472                 5.2845

                     28                     29                     30
                      A                      A                      A
 Frequencies --   1222.4996              1247.2211              1259.5875
 Red. masses --      1.3402                 1.2656                 1.3203
 Frc consts  --      1.1801                 1.1599                 1.2342
 IR Inten    --      2.9854                 3.3432                 1.7212

                     31                     32                     33
                      A                      A                      A
 Frequencies --   1263.4182              1281.1740              1283.2874
 Red. masses --      1.4269                 1.6470                 1.5609
 Frc consts  --      1.3419                 1.5928                 1.5145
 IR Inten    --      0.8441                 1.9254                 2.4626

                     34                     35                     36
                      A                      A                      A
 Frequencies --   1307.4211              1340.8975              1379.8564
 Red. masses --      1.3220                 1.4504                 1.4513
 Frc consts  --      1.3314                 1.5365                 1.6281
 IR Inten    --      2.5712                 4.2245                24.1178

                     37                     38                     39
                      A                      A                      A
 Frequencies --   1416.1155              1446.7439              1482.0833
 Red. masses --      1.4772                 1.0846                 1.0837
 Frc consts  --      1.7454                 1.3375                 1.4025
 IR Inten    --     56.8432                 8.4606                 2.4272

                     40                     41                     42
                      A                      A                      A
 Frequencies --   1497.5349              1835.4056              2905.0802
 Red. masses --      1.1181                12.5026                 1.0784
 Frc consts  --      1.4774                24.8151                 5.3623
 IR Inten    --      1.9588               199.1297                31.7881

                     43                     44                     45
                      A                      A                      A
 Frequencies --   3043.3003              3050.5268              3059.3964
 Red. masses --      1.0647                 1.0605                 1.0600
 Frc consts  --      5.8098                 5.8143                 5.8457
 IR Inten    --      6.7036                35.8239                36.4021

                     46                     47                     48
                      A                      A                      A
 Frequencies --   3082.8317              3091.5365              3098.3533
 Red. masses --      1.0900                 1.0898                 1.1005
 Frc consts  --      6.1036                 6.1371                 6.2247
 IR Inten    --      5.6993                13.8537                21.9834

                     49                     50                     51
                      A                      A                      A
 Frequencies --   3104.6649              3117.8278              3701.2351
 Red. masses --      1.0996                 1.1046                 1.0650
 Frc consts  --      6.2448                 6.3263                 8.5962
 IR Inten    --      3.0533                58.8623                46.9296

 - Thermochemistry -
 -------------------
 Temperature   298.150 Kelvin.  Pressure   1.00000 Atm.
 Atom     1 has atomic number  8 and mass  15.99491

 Molecular mass:   126.06808 amu.
 Principal axes and moments of inertia in atomic units:
                           1         2         3
     Eigenvalues --   647.206741195.561061673.94935
           X            0.99998   0.00487   0.00443
           Y           -0.00485   0.99998  -0.00422
           Z           -0.00445   0.00420   0.99998
 This molecule is an asymmetric top.
 Rotational symmetry number  1.
 Warning -- assumption of classical behavior for rotation
           may cause significant error
 Rotational temperatures (Kelvin)      0.13383     0.07245     0.05174
 Rotational constants (GHZ):           2.78851     1.50953     1.07813
 Zero-point vibrational energy     420506.0 (Joules/Mol)
                                  100.50334 (Kcal/Mol)
 Warning -- explicit consideration of   9 degrees of freedom as
           vibrations may cause significant error
 Vibrational temperatures:    113.88   163.50   352.38   432.19   472.66
          (Kelvin)            513.02   581.13   659.85   815.63   910.84
                              925.72   977.41  1084.59  1108.27  1265.58
                             1269.15  1289.44  1365.50  1396.49  1441.37
                             1489.45  1552.27  1591.05  1600.86  1679.82
                             1688.40  1725.87  1758.90  1794.47  1812.26
                             1817.77  1843.32  1846.36  1881.08  1929.25
                             1985.30  2037.47  2081.54  2132.38  2154.62
                             2640.74  4179.76  4378.62  4389.02  4401.78
                             4435.50  4448.03  4457.83  4466.91  4485.85
                             5325.25

 Zero-point correction=                           0.160162 (Hartree/Particle)
 Thermal correction to Energy=                    0.168043
 Thermal correction to Enthalpy=                  0.168987
 Thermal correction to Gibbs Free Energy=         0.127620
 Sum of electronic and zero-point Energies=           -423.043940
 Sum of electronic and thermal Energies=              -423.036060
 Sum of electronic and thermal Enthalpies=            -423.035115
 Sum of electronic and thermal Free Energies=         -423.076482

                     E (Thermal)             CV                S
                      KCal/Mol        Cal/Mol-Kelvin    Cal/Mol-Kelvin
 Total                  105.448             30.990             87.064
 Electronic               0.000              0.000              0.000
 Translational            0.889              2.981             40.409
 Rotational               0.889              2.981             28.651
 Vibrational            103.671             25.028             18.005
 Vibration     1          0.600              1.963              3.912
 Vibration     2          0.607              1.938              3.206
 Vibration     3          0.660              1.771              1.767
 Vibration     4          0.693              1.673              1.415
 Vibration     5          0.712              1.619              1.267
 Vibration     6          0.732              1.562              1.137
 Vibration     7          0.769              1.462              0.948
 Vibration     8          0.817              1.342              0.770
 Vibration     9          0.923              1.103              0.510

 Optimization completed.
    -- Stationary point found.
 Normal termination of Gaussian 09 at Tue Jan 28 00:53:24 2020.
