 Gaussian 09, Revision D.01,
 Gaussian 09:  ES64L-G09RevD.01 24-Apr-2013

 -----------------------------
 # b3lyp 6-31G(2df,p) opt Freq
 -----------------------------

 -----
 titel
 -----
 Symbolic Z-matrix:
 Charge =  0 Multiplicity = 1

 SCF Done:  E(RB3LYP) =  -423.173468370     A.U. after   14 cycles
 Optimization completed.
    -- Stationary point found.
 Normal termination of Gaussian 09 at Tue Jan 28 14:09:07 2020.

 ----------------------------------------------------------------------
 #N Geom=AllCheck Guess=TCheck SCRF=Check GenChk RB3LYP/6-31G(2df,p) Fr
 eq
 ----------------------------------------------------------------------

 Structure from the checkpoint file:  "/scratch/puck/g09_e5116ed7-6280-45fa-b2f0-3fbbb49ef452/Gau-91403.chk"
 -----
 titel
 -----
 Charge =  0 Multiplicity = 1

                         Standard orientation:
 ---------------------------------------------------------------------
 Center     Atomic      Atomic             Coordinates (Angstroms)
 Number     Number       Type             X           Y           Z
 ---------------------------------------------------------------------
      1          8           0       -2.861453   -0.329332   -0.346533
      2          6           0       -1.791386   -0.969597    0.312404
      3          6           0       -0.443926   -0.536911   -0.282625
      4          6           0        0.855152   -0.877286    0.510714
      5          6           0        2.118157   -1.057187   -0.361743
      6          6           0        2.334244    0.484443   -0.371323
      7          6           0        1.167650    0.671685    0.660796
      8          6           0       -0.177687    0.948219    0.012976
      9          8           0       -0.891721    1.915255   -0.065585
     10          1           0       -2.684345    0.620740   -0.308343
     11          1           0       -1.796360   -0.764615    1.396572
     12          1           0       -1.933503   -2.048299    0.186135
     13          1           0       -0.421347   -0.802030   -1.344712
     14          1           0        0.717636   -1.528957    1.374053
     15          1           0        2.921016   -1.583328    0.160395
     16          1           0        1.966512   -1.541317   -1.330354
     17          1           0        3.300452    0.808334    0.018263
     18          1           0        2.174464    0.980959   -1.331302
     19          1           0        1.407642    1.190935    1.589055
 ---------------------------------------------------------------------

 SCF Done:  E(RB3LYP) =  -423.173468370     A.U. after    1 cycles

 The electronic state is 1-A.
 Alpha  occ. eigenvalues --  -19.14623 -19.12750 -10.27330 -10.23445 -10.20579
 Alpha  occ. eigenvalues --  -10.20355 -10.20226 -10.19636 -10.19600  -1.05319
 Alpha  occ. eigenvalues --   -1.01135  -0.88643  -0.77068  -0.70194  -0.66913
 Alpha  occ. eigenvalues --   -0.61938  -0.57219  -0.51943  -0.51877  -0.49149
 Alpha  occ. eigenvalues --   -0.48005  -0.45562  -0.43213  -0.41619  -0.41099
 Alpha  occ. eigenvalues --   -0.39937  -0.36902  -0.35820  -0.34586  -0.32903
 Alpha  occ. eigenvalues --   -0.31776  -0.30031  -0.26348  -0.24471
 Alpha virt. eigenvalues --   -0.02938   0.07862   0.08450   0.09311   0.11382
 Alpha virt. eigenvalues --    0.11457   0.14208   0.14297   0.15645   0.16113
 Alpha virt. eigenvalues --    0.17881   0.18284   0.19622   0.20868   0.21758

 Mulliken charges:
               1
     1  O   -0.423016
     2  C   -0.075710
     3  C   -0.140797
     4  C   -0.049238
     5  C   -0.227645
     6  C   -0.235345
     7  C   -0.148831
     8  C    0.416045
     9  O   -0.335773
    10  H    0.297304
    11  H    0.086573
    12  H    0.111575
    13  H    0.103783
    14  H    0.079769
    15  H    0.108599
    16  H    0.104688
    17  H    0.119586
    18  H    0.117566
    19  H    0.090865
 Sum of Mulliken charges =   0.00000

 Dipole moment (field-independent basis, Debye):
    X=              3.2584    Y=             -1.4917    Z=              0.7146  Tot=              3.6542
 Quadrupole moment (field-independent basis, Debye-Ang):
   XX=            -57.9770   YY=            -56.3391   ZZ=            -51.6454
   XY=              0.4600   XZ=             -1.3661   YZ=             -0.2934

  Exact polarizability:  88.739  -1.312  75.724   0.964   0.277  62.799
 Approx polarizability: 117.347  -6.619 117.563   4.257  -0.101  97.685

                      1                      2                      3
                      A                      A                      A
 Frequencies --     64.3451               132.7270               165.0952
 Red. masses --      3.4961                 3.7580                 3.9527
 Frc consts  --      0.0085                 0.0390                 0.0635
 IR Inten    --      0.4195                 6.2029                 1.5818

                      4                      5                      6
                      A                      A                      A
 Frequencies --    187.7654               227.2378               319.2022
 Red. masses --      2.8602                 2.1677                 4.1632
 Frc consts  --      0.0594                 0.0659                 0.2499
 IR Inten    --      1.7050                 1.8092                 2.1554

                      7                      8                      9
                      A                      A                      A
 Frequencies --    412.1539               436.3171               514.4829
 Red. masses --      4.8936                 4.3050                 1.0946
 Frc consts  --      0.4898                 0.4829                 0.1707
 IR Inten    --      4.7439                 2.2897               122.8181

                     10                     11                     12
                      A                      A                      A
 Frequencies --    620.0567               704.4459               756.0654
 Red. masses --      3.7036                 1.8133                 2.6503
 Frc consts  --      0.8389                 0.5302                 0.8926
 IR Inten    --      2.2275                 1.3453                 2.0809

                     13                     14                     15
                      A                      A                      A
 Frequencies --    768.4140               804.2482               839.1890
 Red. masses --      1.6792                 2.9062                 2.7102
 Frc consts  --      0.5842                 1.1075                 1.1245
 IR Inten    --      2.1222                 1.5610                 2.2137

                     16                     17                     18
                      A                      A                      A
 Frequencies --    895.3755               928.1214               951.9554
 Red. masses --      2.0294                 2.3025                 1.8972
 Frc consts  --      0.9586                 1.1686                 1.0130
 IR Inten    --      4.8076                 7.4773                 1.5474

                     19                     20                     21
                      A                      A                      A
 Frequencies --    962.3621              1005.7105              1030.3801
 Red. masses --      2.1275                 2.1084                 2.5871
 Frc consts  --      1.1609                 1.2564                 1.6183
 IR Inten    --      1.0972                11.3042                22.6512

                     22                     23                     24
                      A                      A                      A
 Frequencies --   1075.8707              1081.0564              1097.9994
 Red. masses --      2.2514                 3.3895                 1.6481
 Frc consts  --      1.5354                 2.3339                 1.1707
 IR Inten    --      7.9942               129.2136                 4.8874

                     25                     26                     27
                      A                      A                      A
 Frequencies --   1123.7053              1164.4684              1182.3825
 Red. masses --      2.4970                 1.7818                 1.3042
 Frc consts  --      1.8577                 1.4236                 1.0742
 IR Inten    --      3.7704                14.9145                 7.0622

                     28                     29                     30
                      A                      A                      A
 Frequencies --   1198.5132              1208.9198              1234.4807
 Red. masses --      1.3526                 1.4275                 1.3573
 Frc consts  --      1.1447                 1.2292                 1.2187
 IR Inten    --      3.7524                 5.9226                 1.4093

                     31                     32                     33
                      A                      A                      A
 Frequencies --   1252.1935              1273.1664              1285.2812
 Red. masses --      1.3348                 1.5745                 1.5250
 Frc consts  --      1.2331                 1.5037                 1.4842
 IR Inten    --      3.7467                 2.5011                 2.0975

                     34                     35                     36
                      A                      A                      A
 Frequencies --   1292.1598              1331.5051              1381.7426
 Red. masses --      1.4255                 1.6465                 1.2310
 Frc consts  --      1.4023                 1.7198                 1.3847
 IR Inten    --      9.4272                16.5676                 0.9864

                     37                     38                     39
                      A                      A                      A
 Frequencies --   1446.9767              1480.1369              1496.4140
 Red. masses --      1.2106                 1.0791                 1.1083
 Frc consts  --      1.4934                 1.3929                 1.4622
 IR Inten    --    103.7439                 1.2127                 1.3219

                     40                     41                     42
                      A                      A                      A
 Frequencies --   1514.0556              1847.5406              2958.2322
 Red. masses --      1.0869                12.1389                 1.0708
 Frc consts  --      1.4679                24.4128                 5.5210
 IR Inten    --      0.4575               255.3395                53.4954

                     43                     44                     45
                      A                      A                      A
 Frequencies --   3056.8950              3058.1113              3069.1352
 Red. masses --      1.0789                 1.0638                 1.0909
 Frc consts  --      5.9399                 5.8614                 6.0544
 IR Inten    --     22.3881                23.7807                35.6006

                     46                     47                     48
                      A                      A                      A
 Frequencies --   3072.1415              3099.2176              3108.3357
 Red. masses --      1.0608                 1.0993                 1.0958
 Frc consts  --      5.8991                 6.2212                 6.2376
 IR Inten    --     32.5976                10.5153                21.1450

                     49                     50                     51
                      A                      A                      A
 Frequencies --   3112.7720              3129.7992              3748.2216
 Red. masses --      1.0926                 1.1050                 1.0661
 Frc consts  --      6.2374                 6.3775                 8.8245
 IR Inten    --      9.5024                35.0543                48.8058

 - Thermochemistry -
 -------------------
 Temperature   298.150 Kelvin.  Pressure   1.00000 Atm.
 Atom     1 has atomic number  8 and mass  15.99491

 Molecular mass:   126.06808 amu.
 Principal axes and moments of inertia in atomic units:
                           1         2         3
     Eigenvalues --   573.058681435.392091810.99115
           X            0.99994   0.00621  -0.00920
           Y           -0.00623   0.99998  -0.00277
           Z            0.00918   0.00283   0.99995
 This molecule is an asymmetric top.
 Rotational symmetry number  1.
 Warning -- assumption of classical behavior for rotation
           may cause significant error
 Rotational temperatures (Kelvin)      0.15114     0.06034     0.04783
 Rotational constants (GHZ):           3.14931     1.25732     0.99655
 Zero-point vibrational energy     419333.5 (Joules/Mol)
                                  100.22310 (Kcal/Mol)
 Warning -- explicit consideration of  10 degrees of freedom as
           vibrations may cause significant error
 Vibrational temperatures:     92.58   190.96   237.53   270.15   326.94
          (Kelvin)            459.26   593.00   627.76   740.23   892.12
                             1013.54  1087.81  1105.57  1157.13  1207.40
                             1288.24  1335.36  1369.65  1384.62  1446.99
                             1482.49  1547.94  1555.40  1579.77  1616.76
                             1675.41  1701.18  1724.39  1739.36  1776.14
                             1801.62  1831.80  1849.23  1859.13  1915.74
                             1988.02  2081.87  2129.58  2153.00  2178.39
                             2658.20  4256.23  4398.18  4399.93  4415.80
                             4420.12  4459.08  4472.20  4478.58  4503.08
                             5392.85

 Zero-point correction=                           0.159716 (Hartree/Particle)
 Thermal correction to Energy=                    0.168049
 Thermal correction to Enthalpy=                  0.168993
 Thermal correction to Gibbs Free Energy=         0.126381
 Sum of electronic and zero-point Energies=           -423.013753
 Sum of electronic and thermal Energies=              -423.005419
 Sum of electronic and thermal Enthalpies=            -423.004475
 Sum of electronic and thermal Free Energies=         -423.047088

                     E (Thermal)             CV                S
                      KCal/Mol        Cal/Mol-Kelvin    Cal/Mol-Kelvin
 Total                  105.452             31.498             89.685
 Electronic               0.000              0.000              0.000
 Translational            0.889              2.981             40.409
 Rotational               0.889              2.981             28.790
 Vibrational            103.675             25.536             20.487
 Vibration     1          0.597              1.971              4.319
 Vibration     2          0.613              1.921              2.906
 Vibration     3          0.623              1.885              2.491
 Vibration     4          0.632              1.857              2.250
 Vibration     5          0.651              1.799              1.901
 Vibration     6          0.705              1.637              1.314
 Vibration     7          0.776              1.444              0.919
 Vibration     8          0.797              1.391              0.838
 Vibration     9          0.870              1.218              0.623
 Vibration    10          0.980              0.990              0.416

 Optimization completed.
    -- Stationary point found.
 Normal termination of Gaussian 09 at Tue Jan 28 14:54:33 2020.
