 Gaussian 09, Revision D.01,
 Gaussian 09:  ES64L-G09RevD.01 24-Apr-2013

 -----------------------------
 # b3lyp 6-31G(2df,p) opt Freq
 -----------------------------

 -----
 titel
 -----
 Symbolic Z-matrix:
 Charge =  0 Multiplicity = 1

 SCF Done:  E(RB3LYP) =  -423.168498709     A.U. after   14 cycles
 Optimization completed.
    -- Stationary point found.
 Normal termination of Gaussian 09 at Mon Jan 27 12:06:33 2020.

 ----------------------------------------------------------------------
 #N Geom=AllCheck Guess=TCheck SCRF=Check GenChk RB3LYP/6-31G(2df,p) Fr
 eq
 ----------------------------------------------------------------------

 Structure from the checkpoint file:  "/scratch/puck/g09_c8b3613e-8b95-4e06-88b3-10ccce871136/Gau-165373.chk"
 -----
 titel
 -----
 Charge =  0 Multiplicity = 1

                         Standard orientation:
 ---------------------------------------------------------------------
 Center     Atomic      Atomic             Coordinates (Angstroms)
 Number     Number       Type             X           Y           Z
 ---------------------------------------------------------------------
      1          6           0       -2.727776   -0.156173   -0.648716
      2          8           0       -2.549209   -0.240348    0.761770
      3          6           0       -1.695353    0.653417    0.024509
      4          6           0       -0.248592    0.331541   -0.021990
      5          6           0        0.669938    1.296865    0.064347
      6          6           0        2.145957    1.022978   -0.001257
      7          8           0        2.460277   -0.308619   -0.354376
      8          6           0        1.636749   -1.253956    0.309112
      9          6           0        0.179994   -1.113066   -0.133037
     10          1           0       -2.440147   -1.042639   -1.211132
     11          1           0       -3.647642    0.324515   -0.979953
     12          1           0       -1.921549    1.707776    0.187331
     13          1           0        0.375464    2.335673    0.197782
     14          1           0        2.620601    1.659596   -0.758300
     15          1           0        2.610118    1.288297    0.967785
     16          1           0        2.037356   -2.238972    0.055124
     17          1           0        1.709424   -1.127187    1.401713
     18          1           0        0.073563   -1.467742   -1.166736
     19          1           0       -0.471235   -1.737225    0.489415
 ---------------------------------------------------------------------

 SCF Done:  E(RB3LYP) =  -423.168498709     A.U. after    1 cycles

 The electronic state is 1-A.
 Alpha  occ. eigenvalues --  -19.15360 -19.13793 -10.24216 -10.23607 -10.23287
 Alpha  occ. eigenvalues --  -10.22744 -10.19433 -10.18613 -10.18569  -1.07179
 Alpha  occ. eigenvalues --   -1.03376  -0.81492  -0.76395  -0.69152  -0.65919
 Alpha  occ. eigenvalues --   -0.64008  -0.60459  -0.52764  -0.51336  -0.49803
 Alpha  occ. eigenvalues --   -0.46773  -0.46378  -0.44313  -0.42519  -0.40090
 Alpha  occ. eigenvalues --   -0.39259  -0.38546  -0.37795  -0.34893  -0.32615
 Alpha  occ. eigenvalues --   -0.30551  -0.27317  -0.25410  -0.23958
 Alpha virt. eigenvalues --    0.00778   0.09628   0.10560   0.10716   0.11629
 Alpha virt. eigenvalues --    0.13231   0.13393   0.14282   0.15420   0.16188
 Alpha virt. eigenvalues --    0.17127   0.17943   0.19695   0.20620   0.22622

 Mulliken charges:
               1
     1  C   -0.190627
     2  O   -0.235045
     3  C   -0.009246
     4  C    0.332132
     5  C   -0.188441
     6  C   -0.118258
     7  O   -0.246351
     8  C   -0.092963
     9  C   -0.316943
    10  H    0.115641
    11  H    0.117507
    12  H    0.088857
    13  H    0.087261
    14  H    0.119288
    15  H    0.098816
    16  H    0.107844
    17  H    0.092917
    18  H    0.113224
    19  H    0.124386
 Sum of Mulliken charges =   0.00000

 Dipole moment (field-independent basis, Debye):
    X=             -0.3079    Y=              0.7706    Z=             -0.7778  Tot=              1.1374
 Quadrupole moment (field-independent basis, Debye-Ang):
   XX=            -57.5089   YY=            -48.5046   ZZ=            -54.6887
   XY=              0.1577   XZ=              6.3177   YZ=              0.6290

  Exact polarizability:  98.539   9.180  81.775   5.655   3.058  57.848
 Approx polarizability: 131.922  22.171 123.605   3.499   4.351  94.018

                      1                      2                      3
                      A                      A                      A
 Frequencies --     79.0215               120.0186               189.6681
 Red. masses --      3.6383                 3.2459                 4.0920
 Frc consts  --      0.0134                 0.0275                 0.0867
 IR Inten    --      2.0995                 4.7472                 1.2720

                      4                      5                      6
                      A                      A                      A
 Frequencies --    222.6277               296.1439               354.4651
 Red. masses --      2.2105                 2.7502                 2.4067
 Frc consts  --      0.0646                 0.1421                 0.1782
 IR Inten    --      3.7020                 2.6584                 3.7244

                      7                      8                      9
                      A                      A                      A
 Frequencies --    368.1268               491.6933               528.9116
 Red. masses --      4.0279                 2.5832                 4.1143
 Frc consts  --      0.3216                 0.3680                 0.6781
 IR Inten    --      2.8488                 2.4298                 6.0118

                     10                     11                     12
                      A                      A                      A
 Frequencies --    579.7426               681.1259               793.0568
 Red. masses --      3.3389                 2.7936                 2.4129
 Frc consts  --      0.6612                 0.7636                 0.8941
 IR Inten    --      5.1744                 2.2712                 7.2534

                     13                     14                     15
                      A                      A                      A
 Frequencies --    819.1156               855.2178               863.7678
 Red. masses --      2.9120                 1.8187                 2.9141
 Frc consts  --      1.1512                 0.7837                 1.2810
 IR Inten    --     25.3748                 7.1414                 5.7737

                     16                     17                     18
                      A                      A                      A
 Frequencies --    904.6204               941.2841               983.7779
 Red. masses --      2.5633                 2.1876                 2.0974
 Frc consts  --      1.2359                 1.1420                 1.1960
 IR Inten    --     25.5766                 4.1732                 0.8362

                     19                     20                     21
                      A                      A                      A
 Frequencies --   1002.5793              1029.9833              1040.7336
 Red. masses --      2.2993                 1.9713                 1.9541
 Frc consts  --      1.3617                 1.2321                 1.2471
 IR Inten    --     16.6554                 5.5271                 9.1764

                     22                     23                     24
                      A                      A                      A
 Frequencies --   1095.6455              1098.6395              1146.4517
 Red. masses --      1.8836                 1.1975                 2.1093
 Frc consts  --      1.3322                 0.8516                 1.6334
 IR Inten    --      2.6389                 0.1557                26.6903

                     25                     26                     27
                      A                      A                      A
 Frequencies --   1161.3166              1169.0919              1198.0703
 Red. masses --      2.4154                 1.3467                 1.8078
 Frc consts  --      1.9193                 1.0844                 1.5289
 IR Inten    --     50.1900                 1.0929                16.8249

                     28                     29                     30
                      A                      A                      A
 Frequencies --   1229.4213              1259.1592              1282.9683
 Red. masses --      1.1717                 1.3282                 1.5213
 Frc consts  --      1.0434                 1.2407                 1.4754
 IR Inten    --      1.3335                17.1189                 5.2140

                     31                     32                     33
                      A                      A                      A
 Frequencies --   1302.3190              1330.3203              1373.6156
 Red. masses --      1.3599                 1.3025                 1.3729
 Frc consts  --      1.3590                 1.3582                 1.5262
 IR Inten    --      6.5857                 4.9391                 1.0391

                     34                     35                     36
                      A                      A                      A
 Frequencies --   1396.2350              1413.0719              1428.9993
 Red. masses --      2.1661                 1.6055                 1.4540
 Frc consts  --      2.4880                 1.8888                 1.7493
 IR Inten    --      4.1154                37.1087                 0.8978

                     37                     38                     39
                      A                      A                      A
 Frequencies --   1475.3443              1485.7043              1501.9359
 Red. masses --      1.0898                 1.0840                 1.0995
 Frc consts  --      1.3976                 1.4098                 1.4613
 IR Inten    --      1.8291                 1.6369                 2.1538

                     40                     41                     42
                      A                      A                      A
 Frequencies --   1523.7958              1733.4671              2924.7258
 Red. masses --      1.2605                 7.2480                 1.0732
 Frc consts  --      1.7245                12.8322                 5.4086
 IR Inten    --      1.5271                 0.2917                67.8306

                     43                     44                     45
                      A                      A                      A
 Frequencies --   2974.5252              3019.6593              3042.5620
 Red. masses --      1.0708                 1.0637                 1.0859
 Frc consts  --      5.5820                 5.7149                 5.9227
 IR Inten    --     54.2892                21.0259                31.5192

                     46                     47                     48
                      A                      A                      A
 Frequencies --   3071.4392              3084.3032              3091.3890
 Red. masses --      1.0952                 1.0505                 1.0939
 Frc consts  --      6.0871                 5.8880                 6.1594
 IR Inten    --     12.0468                30.3886                39.0249

                     49                     50                     51
                      A                      A                      A
 Frequencies --   3104.9434              3151.0153              3171.8364
 Red. masses --      1.0885                 1.0897                 1.1190
 Frc consts  --      6.1829                 6.3746                 6.6328
 IR Inten    --     20.2679                16.9400                27.6394

 - Thermochemistry -
 -------------------
 Temperature   298.150 Kelvin.  Pressure   1.00000 Atm.
 Atom     1 has atomic number  6 and mass  12.00000

 Molecular mass:   126.06808 amu.
 Principal axes and moments of inertia in atomic units:
                           1         2         3
     Eigenvalues --   451.762481743.626322015.35551
           X            0.99979   0.00215   0.02032
           Y           -0.00238   0.99993   0.01165
           Z           -0.02029  -0.01169   0.99973
 This molecule is an asymmetric top.
 Rotational symmetry number  1.
 Warning -- assumption of classical behavior for rotation
           may cause significant error
 Rotational temperatures (Kelvin)      0.19172     0.04967     0.04298
 Rotational constants (GHZ):           3.99489     1.03505     0.89550
 Zero-point vibrational energy     421011.7 (Joules/Mol)
                                  100.62420 (Kcal/Mol)
 Warning -- explicit consideration of  10 degrees of freedom as
           vibrations may cause significant error
 Vibrational temperatures:    113.69   172.68   272.89   320.31   426.08
          (Kelvin)            510.00   529.65   707.44   760.98   834.12
                              979.99  1141.03  1178.52  1230.47  1242.77
                             1301.55  1354.30  1415.44  1442.49  1481.91
                             1497.38  1576.39  1580.70  1649.49  1670.87
                             1682.06  1723.75  1768.86  1811.65  1845.90
                             1873.74  1914.03  1976.32  2008.87  2033.09
                             2056.01  2122.69  2137.59  2160.95  2192.40
                             2494.07  4208.02  4279.67  4344.61  4377.56
                             4419.11  4437.62  4447.81  4467.32  4533.60
                             4563.56

 Zero-point correction=                           0.160355 (Hartree/Particle)
 Thermal correction to Energy=                    0.168370
 Thermal correction to Enthalpy=                  0.169314
 Thermal correction to Gibbs Free Energy=         0.127439
 Sum of electronic and zero-point Energies=           -423.008144
 Sum of electronic and thermal Energies=              -423.000129
 Sum of electronic and thermal Enthalpies=            -422.999185
 Sum of electronic and thermal Free Energies=         -423.041060

                     E (Thermal)             CV                S
                      KCal/Mol        Cal/Mol-Kelvin    Cal/Mol-Kelvin
 Total                  105.654             30.507             88.133
 Electronic               0.000              0.000              0.000
 Translational            0.889              2.981             40.409
 Rotational               0.889              2.981             28.853
 Vibrational            103.876             24.546             18.872
 Vibration     1          0.600              1.963              3.915
 Vibration     2          0.609              1.933              3.100
 Vibration     3          0.633              1.854              2.231
 Vibration     4          0.648              1.807              1.938
 Vibration     5          0.690              1.681              1.439
 Vibration     6          0.730              1.566              1.146
 Vibration     7          0.741              1.538              1.088
 Vibration     8          0.847              1.268              0.679
 Vibration     9          0.884              1.186              0.590
 Vibration    10          0.936              1.075              0.486

 Normal termination of Gaussian 09 at Mon Jan 27 12:44:48 2020.
