 Gaussian 09, Revision D.01,
 Gaussian 09:  ES64L-G09RevD.01 24-Apr-2013

 -----------------------------
 # b3lyp 6-31G(2df,p) opt Freq
 -----------------------------

 -----
 titel
 -----
 Symbolic Z-matrix:
 Charge =  0 Multiplicity = 1

 SCF Done:  E(RB3LYP) =  -423.192867256     A.U. after   14 cycles
 Optimization completed.
    -- Stationary point found.
 Normal termination of Gaussian 09 at Tue Jan 28 00:04:59 2020.

 ----------------------------------------------------------------------
 #N Geom=AllCheck Guess=TCheck SCRF=Check GenChk RB3LYP/6-31G(2df,p) Fr
 eq
 ----------------------------------------------------------------------

 Structure from the checkpoint file:  "/scratch/puck/g09_aaca26f0-3583-4586-9c4e-a25bad62b832/Gau-71694.chk"
 -----
 titel
 -----
 Charge =  0 Multiplicity = 1

                         Standard orientation:
 ---------------------------------------------------------------------
 Center     Atomic      Atomic             Coordinates (Angstroms)
 Number     Number       Type             X           Y           Z
 ---------------------------------------------------------------------
      1          6           0       -1.179841    2.283032   -0.336002
      2          6           0       -0.077126    1.248695   -0.411608
      3          6           0        0.532485    0.682102    0.825010
      4          6           0        1.942957    0.126706    0.715903
      5          8           0        1.975803   -0.599115   -0.505407
      6          6           0        0.693013   -1.191195   -0.706238
      7          6           0       -0.309399   -0.229641   -0.082638
      8          6           0       -1.620670   -0.750072    0.339690
      9          8           0       -1.980584   -1.891585    0.161400
     10          1           0       -1.851524    2.218587   -1.198101
     11          1           0       -1.785177    2.181187    0.569017
     12          1           0       -0.746244    3.288530   -0.325728
     13          1           0        0.607603    1.381099   -1.246891
     14          1           0        0.155119    0.987132    1.795338
     15          1           0        2.719441    0.896758    0.659424
     16          1           0        2.157958   -0.522480    1.580041
     17          1           0        0.565732   -1.332093   -1.783421
     18          1           0        0.610731   -2.170723   -0.215021
     19          1           0       -2.283901   -0.020151    0.852703
 ---------------------------------------------------------------------

 SCF Done:  E(RB3LYP) =  -423.192867256     A.U. after    1 cycles

 The electronic state is 1-A.
 Alpha  occ. eigenvalues --  -19.14582 -19.13383 -10.26998 -10.23946 -10.23159
 Alpha  occ. eigenvalues --  -10.21418 -10.21301 -10.20971 -10.19482  -1.04689
 Alpha  occ. eigenvalues --   -1.03952  -0.88431  -0.74867  -0.73812  -0.65796
 Alpha  occ. eigenvalues --   -0.64443  -0.58605  -0.54390  -0.50791  -0.48318
 Alpha  occ. eigenvalues --   -0.47987  -0.45812  -0.43208  -0.42086  -0.41325
 Alpha  occ. eigenvalues --   -0.41083  -0.39154  -0.38212  -0.37881  -0.33003
 Alpha  occ. eigenvalues --   -0.30108  -0.28933  -0.26317  -0.24727
 Alpha virt. eigenvalues --   -0.02313   0.08629   0.09427   0.10426   0.11815
 Alpha virt. eigenvalues --    0.13033   0.13842   0.14493   0.15447   0.16533
 Alpha virt. eigenvalues --    0.16838   0.17541   0.18702   0.19451   0.21526

 Mulliken charges:
               1
     1  C   -0.433798
     2  C   -0.046453
     3  C   -0.125448
     4  C   -0.098030
     5  O   -0.255905
     6  C   -0.151221
     7  C    0.202770
     8  C    0.070350
     9  O   -0.273514
    10  H    0.130649
    11  H    0.123286
    12  H    0.128502
    13  H    0.110934
    14  H    0.100281
    15  H    0.115149
    16  H    0.099471
    17  H    0.117180
    18  H    0.115845
    19  H    0.069951
 Sum of Mulliken charges =   0.00000

 Dipole moment (field-independent basis, Debye):
    X=              0.4559    Y=              3.0477    Z=              0.9126  Tot=              3.2139
 Quadrupole moment (field-independent basis, Debye-Ang):
   XX=            -58.8500   YY=            -56.6360   ZZ=            -50.8201
   XY=             -4.2792   XZ=              2.2420   YZ=              0.2477

  Exact polarizability:  81.077   3.261  84.764   2.103   1.703  65.050
 Approx polarizability: 113.552  13.914 127.870   2.331   4.742 101.365

                      1                      2                      3
                      A                      A                      A
 Frequencies --    101.3168               189.0653               193.1891
 Red. masses --      4.3075                 2.1419                 2.5799
 Frc consts  --      0.0261                 0.0451                 0.0567
 IR Inten    --      4.4802                 1.7048                 5.1031

                      4                      5                      6
                      A                      A                      A
 Frequencies --    217.4457               224.6014               256.8452
 Red. masses --      2.3471                 1.6994                 2.7307
 Frc consts  --      0.0654                 0.0505                 0.1061
 IR Inten    --      3.2623                 1.8554                 1.6156

                      7                      8                      9
                      A                      A                      A
 Frequencies --    298.7305               362.8140               432.9550
 Red. masses --      2.0043                 2.2413                 3.3570
 Frc consts  --      0.1054                 0.1738                 0.3708
 IR Inten    --      4.4834                 0.7889                 0.7951

                     10                     11                     12
                      A                      A                      A
 Frequencies --    514.8221               638.4445               707.0935
 Red. masses --      4.1212                 4.8387                 4.6261
 Frc consts  --      0.6436                 1.1620                 1.3628
 IR Inten    --      0.6572                26.0689                20.8048

                     13                     14                     15
                      A                      A                      A
 Frequencies --    764.3736               780.1680               876.6853
 Red. masses --      3.5212                 3.8033                 2.5136
 Frc consts  --      1.2121                 1.3639                 1.1383
 IR Inten    --      5.3615                 0.3586                 6.1782

                     16                     17                     18
                      A                      A                      A
 Frequencies --    939.2059               948.4814              1005.6304
 Red. masses --      2.2228                 1.5848                 1.5312
 Frc consts  --      1.1552                 0.8400                 0.9124
 IR Inten    --     18.8765                 5.0192                 6.5941

                     19                     20                     21
                      A                      A                      A
 Frequencies --   1007.7473              1032.1981              1064.0654
 Red. masses --      1.6540                 1.7229                 2.0212
 Frc consts  --      0.9896                 1.0815                 1.3483
 IR Inten    --      5.1292                12.3286                 4.0662

                     22                     23                     24
                      A                      A                      A
 Frequencies --   1086.6621              1093.9301              1116.3345
 Red. masses --      1.6876                 3.9444                 2.2673
 Frc consts  --      1.1741                 2.7811                 1.6648
 IR Inten    --      2.6304                27.6829                 4.0944

                     25                     26                     27
                      A                      A                      A
 Frequencies --   1130.6541              1150.8986              1215.8818
 Red. masses --      2.3318                 1.6451                 1.1575
 Frc consts  --      1.7563                 1.2838                 1.0083
 IR Inten    --     56.8974                 2.4629                 8.9226

                     28                     29                     30
                      A                      A                      A
 Frequencies --   1237.3175              1259.2743              1266.2032
 Red. masses --      1.6031                 1.3894                 1.8314
 Frc consts  --      1.4460                 1.2982                 1.7299
 IR Inten    --      7.5302                 4.4978                40.9310

                     31                     32                     33
                      A                      A                      A
 Frequencies --   1331.3554              1370.3047              1395.2204
 Red. masses --      1.3793                 1.6662                 1.5959
 Frc consts  --      1.4404                 1.8434                 1.8303
 IR Inten    --      0.9354                 5.1305                18.0654

                     34                     35                     36
                      A                      A                      A
 Frequencies --   1416.7071              1432.3957              1455.5091
 Red. masses --      1.3461                 1.3337                 1.8880
 Frc consts  --      1.5918                 1.6122                 2.3566
 IR Inten    --      9.1622                 1.5256                11.0524

                     37                     38                     39
                      A                      A                      A
 Frequencies --   1495.2668              1505.1277              1510.4073
 Red. masses --      1.0442                 1.1220                 1.0839
 Frc consts  --      1.3755                 1.4975                 1.4568
 IR Inten    --      2.6240                 4.1731                 0.1467

                     40                     41                     42
                      A                      A                      A
 Frequencies --   1522.3005              1794.7252              2890.7646
 Red. masses --      1.0956                10.3586                 1.0818
 Frc consts  --      1.4959                19.6584                 5.3262
 IR Inten    --      1.3233               245.0296                93.3927

                     43                     44                     45
                      A                      A                      A
 Frequencies --   2976.7867              3014.8259              3036.9956
 Red. masses --      1.0697                 1.0660                 1.0358
 Frc consts  --      5.5848                 5.7085                 5.6286
 IR Inten    --     73.7662                42.1978                28.1542

                     46                     47                     48
                      A                      A                      A
 Frequencies --   3070.6065              3086.7178              3099.1594
 Red. masses --      1.0931                 1.0984                 1.1013
 Frc consts  --      6.0723                 6.1659                 6.2320
 IR Inten    --     30.2652                23.4924                17.7397

                     49                     50                     51
                      A                      A                      A
 Frequencies --   3107.3105              3137.0474              3174.1067
 Red. masses --      1.0993                 1.0886                 1.0900
 Frc consts  --      6.2535                 6.3119                 6.4699
 IR Inten    --     13.1868                11.9493                 9.0592

 - Thermochemistry -
 -------------------
 Temperature   298.150 Kelvin.  Pressure   1.00000 Atm.
 Atom     1 has atomic number  6 and mass  12.00000

 Molecular mass:   126.06808 amu.
 Principal axes and moments of inertia in atomic units:
                           1         2         3
     Eigenvalues --   880.281001071.613671643.02102
           X            0.98133  -0.19180   0.01441
           Y            0.19181   0.98143   0.00027
           Z           -0.01419   0.00250   0.99990
 This molecule is an asymmetric top.
 Rotational symmetry number  1.
 Warning -- assumption of classical behavior for rotation
           may cause significant error
 Rotational temperatures (Kelvin)      0.09839     0.08083     0.05272
 Rotational constants (GHZ):           2.05019     1.68413     1.09843
 Zero-point vibrational energy     418314.2 (Joules/Mol)
                                   99.97950 (Kcal/Mol)
 Warning -- explicit consideration of  10 degrees of freedom as
           vibrations may cause significant error
 Vibrational temperatures:    145.77   272.02   277.96   312.86   323.15
          (Kelvin)            369.54   429.81   522.01   622.92   740.71
                              918.58  1017.35  1099.76  1122.49  1261.35
                             1351.31  1364.65  1446.88  1449.92  1485.10
                             1530.95  1563.46  1573.92  1606.15  1626.76
                             1655.88  1749.38  1780.22  1811.81  1821.78
                             1915.52  1971.56  2007.41  2038.32  2060.90
                             2094.15  2151.35  2165.54  2173.14  2190.25
                             2582.21  4159.16  4282.93  4337.66  4369.55
                             4417.91  4441.09  4458.99  4470.72  4513.51
                             4566.83

 Zero-point correction=                           0.159327 (Hartree/Particle)
 Thermal correction to Energy=                    0.167783
 Thermal correction to Enthalpy=                  0.168727
 Thermal correction to Gibbs Free Energy=         0.126368
 Sum of electronic and zero-point Energies=           -423.033540
 Sum of electronic and thermal Energies=              -423.025084
 Sum of electronic and thermal Enthalpies=            -423.024140
 Sum of electronic and thermal Free Energies=         -423.066499

                     E (Thermal)             CV                S
                      KCal/Mol        Cal/Mol-Kelvin    Cal/Mol-Kelvin
 Total                  105.286             31.807             89.153
 Electronic               0.000              0.000              0.000
 Translational            0.889              2.981             40.409
 Rotational               0.889              2.981             28.829
 Vibrational            103.508             25.845             19.915
 Vibration     1          0.604              1.948              3.429
 Vibration     2          0.633              1.855              2.237
 Vibration     3          0.635              1.849              2.197
 Vibration     4          0.646              1.814              1.980
 Vibration     5          0.649              1.804              1.922
 Vibration     6          0.666              1.751              1.683
 Vibration     7          0.692              1.676              1.424
 Vibration     8          0.737              1.549              1.110
 Vibration     9          0.794              1.398              0.849
 Vibration    10          0.870              1.217              0.622

 Optimization completed.
    -- Stationary point found.
 Normal termination of Gaussian 09 at Tue Jan 28 00:46:20 2020.
