 Gaussian 09, Revision D.01,
 Gaussian 09:  ES64L-G09RevD.01 24-Apr-2013

 -----------------------------
 # b3lyp 6-31G(2df,p) opt Freq
 -----------------------------

 -----
 titel
 -----
 Symbolic Z-matrix:
 Charge =  0 Multiplicity = 1

 SCF Done:  E(RB3LYP) =  -423.185041897     A.U. after   14 cycles
 Optimization completed.
    -- Stationary point found.
 Normal termination of Gaussian 09 at Tue Jan 28 03:55:50 2020.

 ----------------------------------------------------------------------
 #N Geom=AllCheck Guess=TCheck SCRF=Check GenChk RB3LYP/6-31G(2df,p) Fr
 eq
 ----------------------------------------------------------------------

 Structure from the checkpoint file:  "/scratch/puck/g09_ef9669a7-cf4d-4c37-bc65-248a64b2f97d/Gau-192755.chk"
 -----
 titel
 -----
 Charge =  0 Multiplicity = 1

                         Standard orientation:
 ---------------------------------------------------------------------
 Center     Atomic      Atomic             Coordinates (Angstroms)
 Number     Number       Type             X           Y           Z
 ---------------------------------------------------------------------
      1          6           0        2.039354   -1.029390   -0.503723
      2          6           0        0.680112   -0.517557   -0.091430
      3          8           0        0.203272   -0.967033    1.187133
      4          6           0       -0.481949   -1.421803   -0.008918
      5          6           0       -1.847105   -0.895586   -0.255472
      6          6           0       -2.087145    0.415299   -0.222333
      7          6           0       -0.995971    1.405842    0.084831
      8          6           0        0.399618    0.951993   -0.386059
      9          8           0        1.414182    1.792076    0.154474
     10          1           0        2.826767   -0.427392   -0.042439
     11          1           0        2.163811   -2.071129   -0.198946
     12          1           0        2.163711   -0.962057   -1.589936
     13          1           0       -0.317662   -2.478031   -0.216391
     14          1           0       -2.636405   -1.611920   -0.460093
     15          1           0       -3.091717    0.795544   -0.383973
     16          1           0       -1.212940    2.384225   -0.353929
     17          1           0       -0.951592    1.557998    1.172324
     18          1           0        0.474483    1.088712   -1.472221
     19          1           0        1.400431    1.670914    1.111375
 ---------------------------------------------------------------------

 SCF Done:  E(RB3LYP) =  -423.185041897     A.U. after    1 cycles

 The electronic state is 1-A.
 Alpha  occ. eigenvalues --  -19.14683 -19.13849 -10.23750 -10.23632 -10.23615
 Alpha  occ. eigenvalues --  -10.19094 -10.18808 -10.18530 -10.17883  -1.06576
 Alpha  occ. eigenvalues --   -1.01922  -0.81298  -0.75646  -0.72809  -0.67345
 Alpha  occ. eigenvalues --   -0.62516  -0.58328  -0.54299  -0.50162  -0.47834
 Alpha  occ. eigenvalues --   -0.46376  -0.44464  -0.43767  -0.42113  -0.39862
 Alpha  occ. eigenvalues --   -0.38812  -0.37643  -0.36435  -0.35177  -0.33256
 Alpha  occ. eigenvalues --   -0.30965  -0.27934  -0.25980  -0.24239
 Alpha virt. eigenvalues --   -0.00389   0.07791   0.09621   0.11317   0.11789
 Alpha virt. eigenvalues --    0.13778   0.14986   0.15585   0.16204   0.16935
 Alpha virt. eigenvalues --    0.17440   0.19057   0.20175   0.21830   0.23387

 Mulliken charges:
               1
     1  C   -0.468402
     2  C    0.357202
     3  O   -0.305988
     4  C   -0.059574
     5  C   -0.037329
     6  C   -0.100034
     7  C   -0.290580
     8  C    0.070100
     9  O   -0.437019
    10  H    0.134710
    11  H    0.123760
    12  H    0.121937
    13  H    0.087629
    14  H    0.093155
    15  H    0.098776
    16  H    0.112081
    17  H    0.119681
    18  H    0.094805
    19  H    0.285089
 Sum of Mulliken charges =   0.00000

 Dipole moment (field-independent basis, Debye):
    X=             -0.8981    Y=             -0.4188    Z=             -0.8367  Tot=              1.2970
 Quadrupole moment (field-independent basis, Debye-Ang):
   XX=            -51.9174   YY=            -52.9001   ZZ=            -53.8217
   XY=             -2.2677   XZ=              1.3883   YZ=              3.6587

  Exact polarizability:  85.854  -1.491  83.844   1.499   1.699  57.532
 Approx polarizability: 114.362   0.256 127.959   4.277   0.570  97.211

                      1                      2                      3
                      A                      A                      A
 Frequencies --     95.1455               174.0390               214.1728
 Red. masses --      3.4559                 1.2034                 1.8792
 Frc consts  --      0.0184                 0.0215                 0.0508
 IR Inten    --      2.9799                 0.3673                 2.3229

                      4                      5                      6
                      A                      A                      A
 Frequencies --    254.4974               279.3844               352.5240
 Red. masses --      3.6137                 3.0760                 2.1008
 Frc consts  --      0.1379                 0.1415                 0.1538
 IR Inten    --      6.3872                 1.8110                14.5867

                      7                      8                      9
                      A                      A                      A
 Frequencies --    365.2321               421.3762               429.2629
 Red. masses --      1.5182                 3.5862                 3.1399
 Frc consts  --      0.1193                 0.3752                 0.3409
 IR Inten    --     45.5476                 5.6112                33.5358

                     10                     11                     12
                      A                      A                      A
 Frequencies --    494.3010               552.9952               599.6983
 Red. masses --      5.2400                 2.4856                 4.4764
 Frc consts  --      0.7543                 0.4478                 0.9485
 IR Inten    --      1.4591                 0.4273                12.0186

                     13                     14                     15
                      A                      A                      A
 Frequencies --    687.1756               716.3951               802.8721
 Red. masses --      3.5198                 1.5191                 3.7497
 Frc consts  --      0.9793                 0.4594                 1.4241
 IR Inten    --      5.5551                22.8042                 4.9628

                     16                     17                     18
                      A                      A                      A
 Frequencies --    812.6426               880.7122               949.6352
 Red. masses --      3.4204                 2.9425                 2.2673
 Frc consts  --      1.3308                 1.3447                 1.2047
 IR Inten    --     15.4724                31.1518                 7.3384

                     19                     20                     21
                      A                      A                      A
 Frequencies --    965.9825               969.4790               984.5965
 Red. masses --      1.8065                 2.8209                 1.4009
 Frc consts  --      0.9932                 1.5621                 0.8002
 IR Inten    --      8.1287                10.1137                 1.3697

                     22                     23                     24
                      A                      A                      A
 Frequencies --   1041.6847              1060.9238              1079.4498
 Red. masses --      1.6504                 2.0243                 3.0586
 Frc consts  --      1.0551                 1.3425                 2.0998
 IR Inten    --     35.2367                27.6485                36.6512

                     25                     26                     27
                      A                      A                      A
 Frequencies --   1096.0646              1117.3068              1182.7885
 Red. masses --      2.8645                 1.7282                 1.1328
 Frc consts  --      2.0275                 1.2711                 0.9338
 IR Inten    --     26.3551                 0.9245                 2.0925

                     28                     29                     30
                      A                      A                      A
 Frequencies --   1201.9637              1245.1745              1287.9625
 Red. masses --      1.1346                 1.8559                 1.4119
 Frc consts  --      0.9658                 1.6954                 1.3799
 IR Inten    --      1.4903                 8.6892                11.2084

                     31                     32                     33
                      A                      A                      A
 Frequencies --   1324.6260              1352.3727              1362.7137
 Red. masses --      1.3789                 1.5185                 1.6339
 Frc consts  --      1.4255                 1.6363                 1.7877
 IR Inten    --      3.7273                 1.6415                 3.5171

                     34                     35                     36
                      A                      A                      A
 Frequencies --   1406.7522              1410.8133              1424.4022
 Red. masses --      1.2923                 1.5424                 1.2855
 Frc consts  --      1.5067                 1.8087                 1.5366
 IR Inten    --      6.9240                 0.7109                50.5404

                     37                     38                     39
                      A                      A                      A
 Frequencies --   1459.0280              1467.6100              1479.9242
 Red. masses --      2.1540                 1.1315                 1.1016
 Frc consts  --      2.7016                 1.4359                 1.4215
 IR Inten    --     10.4517                 5.5612                 5.9034

                     40                     41                     42
                      A                      A                      A
 Frequencies --   1500.6127              1710.5150              3013.6722
 Red. masses --      1.1991                 6.4444                 1.0693
 Frc consts  --      1.5909                11.1093                 5.7217
 IR Inten    --      2.6298                 4.5539                11.1473

                     43                     44                     45
                      A                      A                      A
 Frequencies --   3036.9863              3043.0283              3083.0320
 Red. masses --      1.0748                 1.0435                 1.0933
 Frc consts  --      5.8405                 5.6933                 6.1228
 IR Inten    --     14.9339                28.6618                22.9701

                     46                     47                     48
                      A                      A                      A
 Frequencies --   3110.1632              3121.7400              3131.0215
 Red. masses --      1.0984                 1.0884                 1.1023
 Frc consts  --      6.2601                 6.2493                 6.3669
 IR Inten    --     15.4708                24.2699                18.1756

                     49                     50                     51
                      A                      A                      A
 Frequencies --   3162.9741              3187.6214              3789.4046
 Red. masses --      1.0850                 1.0981                 1.0659
 Frc consts  --      6.3952                 6.5741                 9.0176
 IR Inten    --      7.5423                27.6226                18.0738

 - Thermochemistry -
 -------------------
 Temperature   298.150 Kelvin.  Pressure   1.00000 Atm.
 Atom     1 has atomic number  6 and mass  12.00000

 Molecular mass:   126.06808 amu.
 Principal axes and moments of inertia in atomic units:
                           1         2         3
     Eigenvalues --   772.46822 980.637121488.26186
           X            0.99344  -0.11406  -0.00775
           Y            0.11424   0.99302   0.02929
           Z            0.00435  -0.02998   0.99954
 This molecule is an asymmetric top.
 Rotational symmetry number  1.
 Warning -- assumption of classical behavior for rotation
           may cause significant error
 Rotational temperatures (Kelvin)      0.11213     0.08832     0.05820
 Rotational constants (GHZ):           2.33633     1.84038     1.21265
 Zero-point vibrational energy     418061.7 (Joules/Mol)
                                   99.91913 (Kcal/Mol)
 Warning -- explicit consideration of  12 degrees of freedom as
           vibrations may cause significant error
 Vibrational temperatures:    136.89   250.40   308.15   366.16   401.97
          (Kelvin)            507.20   525.49   606.27   617.61   711.19
                              795.64   862.83   988.69  1030.73  1155.15
                             1169.21  1267.15  1366.31  1389.83  1394.86
                             1416.61  1498.75  1526.43  1553.09  1576.99
                             1607.55  1701.77  1729.36  1791.53  1853.09
                             1905.84  1945.76  1960.64  2024.00  2029.84
                             2049.39  2099.21  2111.56  2129.28  2159.04
                             2461.05  4336.00  4369.54  4378.23  4435.79
                             4474.83  4491.48  4504.84  4550.81  4586.27
                             5452.10

 Zero-point correction=                           0.159231 (Hartree/Particle)
 Thermal correction to Energy=                    0.167597
 Thermal correction to Enthalpy=                  0.168542
 Thermal correction to Gibbs Free Energy=         0.126717
 Sum of electronic and zero-point Energies=           -423.025811
 Sum of electronic and thermal Energies=              -423.017444
 Sum of electronic and thermal Enthalpies=            -423.016500
 Sum of electronic and thermal Free Energies=         -423.058324

                     E (Thermal)             CV                S
                      KCal/Mol        Cal/Mol-Kelvin    Cal/Mol-Kelvin
 Total                  105.169             32.853             88.026
 Electronic               0.000              0.000              0.000
 Translational            0.889              2.981             40.409
 Rotational               0.889              2.981             28.513
 Vibrational            103.392             26.891             19.105
 Vibration     1          0.603              1.953              3.551
 Vibration     2          0.627              1.874              2.391
 Vibration     3          0.644              1.819              2.008
 Vibration     4          0.665              1.755              1.699
 Vibration     5          0.680              1.712              1.537
 Vibration     6          0.729              1.570              1.155
 Vibration     7          0.738              1.544              1.100
 Vibration     8          0.784              1.424              0.887
 Vibration     9          0.791              1.407              0.861
 Vibration    10          0.850              1.263              0.673
 Vibration    11          0.908              1.133              0.538
 Vibration    12          0.958              1.032              0.450

 Optimization completed.
    -- Stationary point found.
 Normal termination of Gaussian 09 at Tue Jan 28 04:43:26 2020.
