 Gaussian 09, Revision D.01,
 Gaussian 09:  ES64L-G09RevD.01 24-Apr-2013

 -----------------------------
 # b3lyp 6-31G(2df,p) opt Freq
 -----------------------------

 -----
 titel
 -----
 Symbolic Z-matrix:
 Charge =  0 Multiplicity = 1

 SCF Done:  E(RB3LYP) =  -423.184130664     A.U. after   12 cycles
 Optimization completed.
    -- Stationary point found.
 Normal termination of Gaussian 09 at Mon Jan 27 18:12:19 2020.

 ----------------------------------------------------------------------
 #N Geom=AllCheck Guess=TCheck SCRF=Check GenChk RB3LYP/6-31G(2df,p) Fr
 eq
 ----------------------------------------------------------------------

 Structure from the checkpoint file:  "/scratch/puck/g09_f0200b05-fec9-4af6-b292-95adb381d9ae/Gau-42289.chk"
 -----
 titel
 -----
 Charge =  0 Multiplicity = 1

                         Standard orientation:
 ---------------------------------------------------------------------
 Center     Atomic      Atomic             Coordinates (Angstroms)
 Number     Number       Type             X           Y           Z
 ---------------------------------------------------------------------
      1          6           0        1.969420   -1.277891   -0.065589
      2          6           0        0.592536   -0.676204   -0.062189
      3          6           0       -0.618296   -1.308266   -0.745365
      4          6           0       -1.634928   -0.240386   -0.282896
      5          6           0       -0.992312    1.071817   -0.780938
      6          6           0        0.345192    0.833771   -0.083971
      7          8           0        1.418947    1.708367   -0.153849
      8          6           0       -0.019952    0.022834    1.143981
      9          8           0       -1.419928   -0.189589    1.142248
     10          1           0        1.973429   -2.262404    0.415510
     11          1           0        2.346165   -1.402380   -1.087134
     12          1           0        2.676289   -0.633802    0.464702
     13          1           0       -0.526347   -1.360243   -1.834524
     14          1           0       -0.855407   -2.301629   -0.352793
     15          1           0       -2.690075   -0.406556   -0.489371
     16          1           0       -0.912518    1.123667   -1.870111
     17          1           0       -1.516189    1.957333   -0.406751
     18          1           0        1.221349    2.474597    0.396301
     19          1           0        0.441178    0.107151    2.118778
 ---------------------------------------------------------------------

 SCF Done:  E(RB3LYP) =  -423.184130664     A.U. after    1 cycles

 The electronic state is 1-A.
 Alpha  occ. eigenvalues --  -19.15024 -19.13787 -10.23313 -10.23185 -10.22183
 Alpha  occ. eigenvalues --  -10.18997 -10.18150 -10.18131 -10.17605  -1.05438
 Alpha  occ. eigenvalues --   -1.02891  -0.85195  -0.76254  -0.72715  -0.68539
 Alpha  occ. eigenvalues --   -0.59723  -0.57650  -0.54993  -0.50723  -0.47950
 Alpha  occ. eigenvalues --   -0.46008  -0.43505  -0.42619  -0.40198  -0.39761
 Alpha  occ. eigenvalues --   -0.38902  -0.38319  -0.36494  -0.35036  -0.33320
 Alpha  occ. eigenvalues --   -0.31055  -0.29133  -0.25610  -0.21589
 Alpha virt. eigenvalues --    0.07236   0.09798   0.11563   0.12964   0.13730
 Alpha virt. eigenvalues --    0.14182   0.15364   0.16207   0.17066   0.17346
 Alpha virt. eigenvalues --    0.17673   0.19120   0.21178   0.22175   0.22286

 Mulliken charges:
               1
     1  C   -0.499818
     2  C    0.249216
     3  C   -0.275392
     4  C    0.051772
     5  C   -0.296864
     6  C    0.309394
     7  O   -0.474804
     8  C   -0.034632
     9  O   -0.262708
    10  H    0.115844
    11  H    0.119633
    12  H    0.128630
    13  H    0.099093
    14  H    0.102882
    15  H    0.081651
    16  H    0.104865
    17  H    0.095713
    18  H    0.285244
    19  H    0.100282
 Sum of Mulliken charges =   0.00000

 Dipole moment (field-independent basis, Debye):
    X=              0.0009    Y=              0.5045    Z=             -0.3720  Tot=              0.6269
 Quadrupole moment (field-independent basis, Debye-Ang):
   XX=            -55.4850   YY=            -49.0946   ZZ=            -53.0086
   XY=             -0.8418   XZ=              5.0041   YZ=              2.9458

  Exact polarizability:  76.679  -2.047  76.331   3.083   1.715  67.381
 Approx polarizability: 106.993   0.226 109.408  -0.329   2.037 106.886

                      1                      2                      3
                      A                      A                      A
 Frequencies --    180.4211               206.1446               223.8715
 Red. masses --      1.0332                 2.9893                 2.8346
 Frc consts  --      0.0198                 0.0748                 0.0837
 IR Inten    --      0.6078                 1.2499                 5.8440

                      4                      5                      6
                      A                      A                      A
 Frequencies --    281.0971               343.3555               380.3085
 Red. masses --      1.2717                 2.2431                 3.8494
 Frc consts  --      0.0592                 0.1558                 0.3280
 IR Inten    --     55.2220                36.7663                 4.2183

                      7                      8                      9
                      A                      A                      A
 Frequencies --    416.8033               458.9878               549.3693
 Red. masses --      1.7127                 2.5815                 3.8840
 Frc consts  --      0.1753                 0.3204                 0.6907
 IR Inten    --      0.2710                 1.5012                 5.7892

                     10                     11                     12
                      A                      A                      A
 Frequencies --    601.5908               620.5744               676.5525
 Red. masses --      3.6985                 6.2241                 3.6806
 Frc consts  --      0.7886                 1.4122                 0.9926
 IR Inten    --      6.8919                 2.4682                 1.3666

                     13                     14                     15
                      A                      A                      A
 Frequencies --    733.3417               813.1153               891.8507
 Red. masses --      3.6015                 5.1597                 2.6769
 Frc consts  --      1.1412                 2.0099                 1.2545
 IR Inten    --     10.0901                 2.3007                24.4177

                     16                     17                     18
                      A                      A                      A
 Frequencies --    906.8616               922.5672               941.8501
 Red. masses --      2.0439                 2.5092                 2.5260
 Frc consts  --      0.9904                 1.2583                 1.3202
 IR Inten    --      3.5777                11.1900                 4.6636

                     19                     20                     21
                      A                      A                      A
 Frequencies --    947.3634               959.2287               994.6744
 Red. masses --      2.4878                 1.3749                 1.4453
 Frc consts  --      1.3155                 0.7454                 0.8425
 IR Inten    --      9.9713                 0.4719                 3.0908

                     22                     23                     24
                      A                      A                      A
 Frequencies --   1009.7904              1065.7700              1096.7391
 Red. masses --      1.7423                 2.8191                 1.5275
 Frc consts  --      1.0467                 1.8866                 1.0825
 IR Inten    --     11.8473                45.8765                17.0214

                     25                     26                     27
                      A                      A                      A
 Frequencies --   1115.7633              1139.7470              1179.8986
 Red. masses --      2.8396                 1.3461                 1.3906
 Frc consts  --      2.0828                 1.0302                 1.1406
 IR Inten    --      4.4086                 5.8062                 0.1229

                     28                     29                     30
                      A                      A                      A
 Frequencies --   1208.7352              1219.4968              1236.8360
 Red. masses --      1.5112                 1.9465                 2.4978
 Frc consts  --      1.3009                 1.7055                 2.2513
 IR Inten    --      8.1804                20.0129                22.7721

                     31                     32                     33
                      A                      A                      A
 Frequencies --   1279.0152              1284.4429              1306.8470
 Red. masses --      1.7512                 1.8275                 1.5814
 Frc consts  --      1.6879                 1.7764                 1.5912
 IR Inten    --     32.8551                15.2952                48.3534

                     34                     35                     36
                      A                      A                      A
 Frequencies --   1340.8872              1354.9862              1419.0268
 Red. masses --      1.5089                 2.9994                 1.3387
 Frc consts  --      1.5984                 3.2446                 1.5882
 IR Inten    --      2.9363                26.1996                 0.4427

                     37                     38                     39
                      A                      A                      A
 Frequencies --   1447.1519              1476.5354              1489.0503
 Red. masses --      2.4991                 1.1285                 1.0500
 Frc consts  --      3.0836                 1.4495                 1.3717
 IR Inten    --      4.0381                 1.3656                 3.7206

                     40                     41                     42
                      A                      A                      A
 Frequencies --   1495.6760              1506.9041              3027.9684
 Red. masses --      1.1036                 1.1930                 1.0367
 Frc consts  --      1.4546                 1.5961                 5.6000
 IR Inten    --      1.9538                 7.0118                39.3532

                     43                     44                     45
                      A                      A                      A
 Frequencies --   3049.0852              3053.8844              3084.6398
 Red. masses --      1.0573                 1.0590                 1.1011
 Frc consts  --      5.7913                 5.8193                 6.1728
 IR Inten    --     45.2670                14.7706                22.1241

                     46                     47                     48
                      A                      A                      A
 Frequencies --   3100.8074              3107.8443              3111.3748
 Red. masses --      1.1071                 1.1062                 1.0991
 Frc consts  --      6.2716                 6.2953                 6.2689
 IR Inten    --     16.4751                26.4711                15.5960

                     49                     50                     51
                      A                      A                      A
 Frequencies --   3147.6891              3212.4824              3790.4276
 Red. masses --      1.0912                 1.0942                 1.0661
 Frc consts  --      6.3702                 6.6533                 9.0249
 IR Inten    --     34.1497                 7.9702                19.8724

 - Thermochemistry -
 -------------------
 Temperature   298.150 Kelvin.  Pressure   1.00000 Atm.
 Atom     1 has atomic number  6 and mass  12.00000

 Molecular mass:   126.06808 amu.
 Principal axes and moments of inertia in atomic units:
                           1         2         3
     Eigenvalues --   737.59258 933.694491203.89369
           X            0.99145  -0.12320   0.04303
           Y            0.12224   0.99220   0.02430
           Z           -0.04569  -0.01883   0.99878
 This molecule is an asymmetric top.
 Rotational symmetry number  1.
 Warning -- assumption of classical behavior for rotation
           may cause significant error
 Rotational temperatures (Kelvin)      0.11743     0.09276     0.07194
 Rotational constants (GHZ):           2.44680     1.93290     1.49909
 Zero-point vibrational energy     421141.9 (Joules/Mol)
                                  100.65534 (Kcal/Mol)
 Warning -- explicit consideration of  11 degrees of freedom as
           vibrations may cause significant error
 Vibrational temperatures:    259.59   296.60   322.10   404.44   494.01
          (Kelvin)            547.18   599.69   660.38   790.42   865.55
                              892.87   973.41  1055.11  1169.89  1283.17
                             1304.77  1327.37  1355.11  1363.04  1380.11
                             1431.11  1452.86  1533.40  1577.96  1605.33
                             1639.84  1697.61  1739.10  1754.58  1779.53
                             1840.22  1848.02  1880.26  1929.24  1949.52
                             2041.66  2082.13  2124.40  2142.41  2151.94
                             2168.10  4356.57  4386.95  4393.85  4438.10
                             4461.36  4471.49  4476.57  4528.82  4622.04
                             5453.57

 Zero-point correction=                           0.160404 (Hartree/Particle)
 Thermal correction to Energy=                    0.168006
 Thermal correction to Enthalpy=                  0.168950
 Thermal correction to Gibbs Free Energy=         0.128973
 Sum of electronic and zero-point Energies=           -423.023726
 Sum of electronic and thermal Energies=              -423.016124
 Sum of electronic and thermal Enthalpies=            -423.015180
 Sum of electronic and thermal Free Energies=         -423.055158

                     E (Thermal)             CV                S
                      KCal/Mol        Cal/Mol-Kelvin    Cal/Mol-Kelvin
 Total                  105.426             31.117             84.140
 Electronic               0.000              0.000              0.000
 Translational            0.889              2.981             40.409
 Rotational               0.889              2.981             28.207
 Vibrational            103.648             25.155             15.524
 Vibration     1          0.629              1.866              2.324
 Vibration     2          0.641              1.831              2.078
 Vibration     3          0.649              1.805              1.928
 Vibration     4          0.681              1.709              1.527
 Vibration     5          0.722              1.589              1.197
 Vibration     6          0.750              1.512              1.038
 Vibration     7          0.780              1.434              0.903
 Vibration     8          0.817              1.341              0.769
 Vibration     9          0.905              1.141              0.545
 Vibration    10          0.960              1.028              0.447
 Vibration    11          0.981              0.988              0.416

 Normal termination of Gaussian 09 at Mon Jan 27 19:08:12 2020.
