 Gaussian 09, Revision D.01,
 Gaussian 09:  ES64L-G09RevD.01 24-Apr-2013

 -----------------------------
 # b3lyp 6-31G(2df,p) opt Freq
 -----------------------------

 -----
 titel
 -----
 Symbolic Z-matrix:
 Charge =  0 Multiplicity = 1

 SCF Done:  E(RB3LYP) =  -423.161646291     A.U. after   13 cycles
 Optimization completed.
    -- Stationary point found.
 Normal termination of Gaussian 09 at Mon Jan 27 17:30:10 2020.

 ----------------------------------------------------------------------
 #N Geom=AllCheck Guess=TCheck SCRF=Check GenChk RB3LYP/6-31G(2df,p) Fr
 eq
 ----------------------------------------------------------------------

 Structure from the checkpoint file:  "/scratch/puck/g09_38598918-6398-49c1-a56b-b6da4edb06d9/Gau-179614.chk"
 -----
 titel
 -----
 Charge =  0 Multiplicity = 1

                         Standard orientation:
 ---------------------------------------------------------------------
 Center     Atomic      Atomic             Coordinates (Angstroms)
 Number     Number       Type             X           Y           Z
 ---------------------------------------------------------------------
      1          8           0       -2.451127   -0.344995   -0.865815
      2          6           0       -1.360796   -0.034375   -0.052546
      3          6           0       -1.046238   -0.908791    1.129986
      4          6           0       -0.141483   -0.918548   -0.096087
      5          6           0        1.060861   -0.021981   -0.048721
      6          6           0        2.226201   -0.221911   -0.918730
      7          8           0        2.294529   -0.510024    0.482866
      8          6           0        0.584250    1.356185    0.416674
      9          6           0       -0.899106    1.420379   -0.007953
     10          1           0       -3.254793   -0.109159   -0.389576
     11          1           0       -0.687496   -0.478773    2.059672
     12          1           0       -1.673330   -1.785767    1.245490
     13          1           0       -0.121565   -1.811327   -0.708935
     14          1           0        2.271627   -1.089643   -1.576783
     15          1           0        2.808923    0.637716   -1.249551
     16          1           0        0.683606    1.409392    1.506123
     17          1           0        1.184036    2.169252    0.001755
     18          1           0       -1.503023    2.045202    0.659854
     19          1           0       -0.997337    1.827509   -1.020203
 ---------------------------------------------------------------------

 SCF Done:  E(RB3LYP) =  -423.161646291     A.U. after    1 cycles

 The electronic state is 1-A.
 Alpha  occ. eigenvalues --  -19.14564 -19.14211 -10.24105 -10.23939 -10.22707
 Alpha  occ. eigenvalues --  -10.18904 -10.18690 -10.18665 -10.18612  -1.06331
 Alpha  occ. eigenvalues --   -1.03219  -0.87384  -0.76523  -0.68783  -0.65336
 Alpha  occ. eigenvalues --   -0.62779  -0.57654  -0.54589  -0.52554  -0.48803
 Alpha  occ. eigenvalues --   -0.47179  -0.44808  -0.42752  -0.42018  -0.40868
 Alpha  occ. eigenvalues --   -0.38645  -0.36297  -0.35475  -0.34887  -0.33007
 Alpha  occ. eigenvalues --   -0.29755  -0.27229  -0.25856  -0.25207
 Alpha virt. eigenvalues --    0.07663   0.08333   0.09573   0.11329   0.12056
 Alpha virt. eigenvalues --    0.12763   0.13089   0.14557   0.16937   0.17748
 Alpha virt. eigenvalues --    0.18427   0.18904   0.19933   0.22411   0.23817

 Mulliken charges:
               1
     1  O   -0.472480
     2  C    0.405755
     3  C   -0.360954
     4  C   -0.171368
     5  C    0.496693
     6  C   -0.261430
     7  O   -0.290275
     8  C   -0.329751
     9  C   -0.281760
    10  H    0.282704
    11  H    0.115512
    12  H    0.116211
    13  H    0.096402
    14  H    0.112207
    15  H    0.109464
    16  H    0.119516
    17  H    0.108458
    18  H    0.092911
    19  H    0.112185
 Sum of Mulliken charges =   0.00000

 Dipole moment (field-independent basis, Debye):
    X=             -1.5863    Y=              1.1669    Z=             -0.0766  Tot=              1.9707
 Quadrupole moment (field-independent basis, Debye-Ang):
   XX=            -52.3217   YY=            -51.8567   ZZ=            -53.8791
   XY=              0.9925   XZ=             -7.0451   YZ=              0.6216

  Exact polarizability:  85.921   0.144  71.142  -6.869   0.486  67.866
 Approx polarizability: 116.344  -2.396 100.795  -5.687  -0.246 107.741

                      1                      2                      3
                      A                      A                      A
 Frequencies --    104.3053               194.4073               265.9682
 Red. masses --      3.8902                 2.3388                 1.6872
 Frc consts  --      0.0249                 0.0521                 0.0703
 IR Inten    --      2.6850                 1.5370                76.4021

                      4                      5                      6
                      A                      A                      A
 Frequencies --    275.6381               330.3384               367.7911
 Red. masses --      1.9299                 2.3123                 2.5154
 Frc consts  --      0.0864                 0.1487                 0.2005
 IR Inten    --     16.2401                 0.9798                 0.1872

                      7                      8                      9
                      A                      A                      A
 Frequencies --    405.6247               418.8535               465.4730
 Red. masses --      3.0631                 3.7940                 2.9800
 Frc consts  --      0.2969                 0.3922                 0.3804
 IR Inten    --      3.3570                19.3696                 0.2331

                     10                     11                     12
                      A                      A                      A
 Frequencies --    543.8141               568.8999               694.4292
 Red. masses --      3.6682                 3.2085                 2.2951
 Frc consts  --      0.6391                 0.6118                 0.6521
 IR Inten    --     13.5071                 1.0442                 0.9838

                     13                     14                     15
                      A                      A                      A
 Frequencies --    750.4185               818.4398               859.3129
 Red. masses --      3.4337                 1.7378                 3.9764
 Frc consts  --      1.1393                 0.6858                 1.7300
 IR Inten    --      9.5740                 2.6311                40.4502

                     16                     17                     18
                      A                      A                      A
 Frequencies --    898.5278               913.3691               930.9204
 Red. masses --      1.6335                 1.9620                 1.5698
 Frc consts  --      0.7770                 0.9644                 0.8015
 IR Inten    --      8.0720                 3.4903                 0.4572

                     19                     20                     21
                      A                      A                      A
 Frequencies --    954.2326               966.7921               986.9669
 Red. masses --      2.7589                 1.7793                 2.1497
 Frc consts  --      1.4801                 0.9798                 1.2338
 IR Inten    --     22.1402                 7.8393                 2.0791

                     22                     23                     24
                      A                      A                      A
 Frequencies --   1019.7076              1046.5173              1065.0861
 Red. masses --      2.0051                 1.3639                 1.8008
 Frc consts  --      1.2284                 0.8801                 1.2036
 IR Inten    --      4.1373                 2.1008                15.1576

                     25                     26                     27
                      A                      A                      A
 Frequencies --   1083.2635              1127.3307              1159.7501
 Red. masses --      2.0291                 1.2779                 1.3305
 Frc consts  --      1.4029                 0.9569                 1.0544
 IR Inten    --     27.3970                 4.1309                 7.1474

                     28                     29                     30
                      A                      A                      A
 Frequencies --   1168.7175              1205.7764              1233.1912
 Red. masses --      1.4525                 1.4489                 2.1337
 Frc consts  --      1.1689                 1.2411                 1.9118
 IR Inten    --      4.3469                12.7319                58.9733

                     31                     32                     33
                      A                      A                      A
 Frequencies --   1240.8754              1284.9095              1303.0852
 Red. masses --      1.5252                 2.2927                 1.4930
 Frc consts  --      1.3837                 2.2302                 1.4937
 IR Inten    --      2.1362                11.9675                 0.4998

                     34                     35                     36
                      A                      A                      A
 Frequencies --   1322.0893              1335.5015              1396.6646
 Red. masses --      1.7296                 1.9963                 1.9204
 Frc consts  --      1.7812                 2.0978                 2.2072
 IR Inten    --     55.0110                 5.8587                 1.1786

                     37                     38                     39
                      A                      A                      A
 Frequencies --   1440.5430              1482.8187              1490.1013
 Red. masses --      2.0316                 1.3907                 1.0877
 Frc consts  --      2.4840                 1.8016                 1.4230
 IR Inten    --     37.7112                12.1733                 2.0270

                     40                     41                     42
                      A                      A                      A
 Frequencies --   1510.1538              1533.2744              3035.6867
 Red. masses --      1.1833                 1.4563                 1.0591
 Frc consts  --      1.5899                 2.0172                 5.7506
 IR Inten    --      6.0041                 8.6274                41.7821

                     43                     44                     45
                      A                      A                      A
 Frequencies --   3054.2539              3072.2173              3077.5048
 Red. masses --      1.0674                 1.0504                 1.1002
 Frc consts  --      5.8667                 5.8413                 6.1393
 IR Inten    --     10.7606                29.8575                23.9901

                     46                     47                     48
                      A                      A                      A
 Frequencies --   3107.0061              3129.8053              3157.0722
 Red. masses --      1.1012                 1.0545                 1.1191
 Frc consts  --      6.2634                 6.0859                 6.5720
 IR Inten    --     22.5765                11.6137                25.1574

                     49                     50                     51
                      A                      A                      A
 Frequencies --   3188.8865              3221.0016              3796.4301
 Red. masses --      1.0923                 1.1158                 1.0661
 Frc consts  --      6.5443                 6.8203                 9.0531
 IR Inten    --      4.5897                 7.2976                19.7132

 - Thermochemistry -
 -------------------
 Temperature   298.150 Kelvin.  Pressure   1.00000 Atm.
 Atom     1 has atomic number  8 and mass  15.99491

 Molecular mass:   126.06808 amu.
 Principal axes and moments of inertia in atomic units:
                           1         2         3
     Eigenvalues --   546.915781402.545381538.57066
           X            0.99954   0.00805  -0.02910
           Y           -0.00759   0.99985   0.01584
           Z            0.02922  -0.01561   0.99945
 This molecule is an asymmetric top.
 Rotational symmetry number  1.
 Warning -- assumption of classical behavior for rotation
           may cause significant error
 Rotational temperatures (Kelvin)      0.15837     0.06175     0.05629
 Rotational constants (GHZ):           3.29985     1.28676     1.17300
 Zero-point vibrational energy     418715.4 (Joules/Mol)
                                  100.07538 (Kcal/Mol)
 Warning -- explicit consideration of  11 degrees of freedom as
           vibrations may cause significant error
 Vibrational temperatures:    150.07   279.71   382.67   396.58   475.28
          (Kelvin)            529.17   583.60   602.64   669.71   782.43
                              818.52   999.13  1079.68  1177.55  1236.36
                             1292.78  1314.13  1339.39  1372.93  1391.00
                             1420.02  1467.13  1505.70  1532.42  1558.57
                             1621.98  1668.62  1681.52  1734.84  1774.28
                             1785.34  1848.70  1874.85  1902.19  1921.49
                             2009.49  2072.62  2133.44  2143.92  2172.77
                             2206.04  4367.67  4394.38  4420.23  4427.84
                             4470.28  4503.09  4542.32  4588.09  4634.30
                             5462.21

 Zero-point correction=                           0.159480 (Hartree/Particle)
 Thermal correction to Energy=                    0.167394
 Thermal correction to Enthalpy=                  0.168338
 Thermal correction to Gibbs Free Energy=         0.127433
 Sum of electronic and zero-point Energies=           -423.002166
 Sum of electronic and thermal Energies=              -422.994252
 Sum of electronic and thermal Enthalpies=            -422.993308
 Sum of electronic and thermal Free Energies=         -423.034213

                     E (Thermal)             CV                S
                      KCal/Mol        Cal/Mol-Kelvin    Cal/Mol-Kelvin
 Total                  105.041             31.903             86.092
 Electronic               0.000              0.000              0.000
 Translational            0.889              2.981             40.409
 Rotational               0.889              2.981             28.558
 Vibrational            103.264             25.941             17.125
 Vibration     1          0.605              1.946              3.372
 Vibration     2          0.635              1.848              2.185
 Vibration     3          0.672              1.735              1.622
 Vibration     4          0.677              1.718              1.561
 Vibration     5          0.713              1.615              1.258
 Vibration     6          0.740              1.538              1.089
 Vibration     7          0.771              1.458              0.942
 Vibration     8          0.782              1.429              0.896
 Vibration     9          0.823              1.327              0.750
 Vibration    10          0.899              1.153              0.557
 Vibration    11          0.925              1.099              0.506

 Optimization completed.
    -- Stationary point found.
 Normal termination of Gaussian 09 at Mon Jan 27 18:14:28 2020.
