 Gaussian 09, Revision D.01,
 Gaussian 09:  ES64L-G09RevD.01 24-Apr-2013

 -----------------------------
 # b3lyp 6-31G(2df,p) opt Freq
 -----------------------------

 -----
 titel
 -----
 Symbolic Z-matrix:
 Charge =  0 Multiplicity = 1

 SCF Done:  E(RB3LYP) =  -423.135076614     A.U. after   14 cycles
 Optimization completed.
    -- Stationary point found.
 Normal termination of Gaussian 09 at Mon Jan 27 16:35:58 2020.

 ----------------------------------------------------------------------
 #N Geom=AllCheck Guess=TCheck SCRF=Check GenChk RB3LYP/6-31G(2df,p) Fr
 eq
 ----------------------------------------------------------------------

 Structure from the checkpoint file:  "/scratch/puck/g09_887e1e71-2b4c-482b-8c72-9db82d81ace2/Gau-167519.chk"
 -----
 titel
 -----
 Charge =  0 Multiplicity = 1

                         Standard orientation:
 ---------------------------------------------------------------------
 Center     Atomic      Atomic             Coordinates (Angstroms)
 Number     Number       Type             X           Y           Z
 ---------------------------------------------------------------------
      1          8           0       -0.222822    1.570115   -0.062292
      2          6           0        0.183103    0.216305   -0.182297
      3          6           0       -1.051789   -0.614461   -0.547946
      4          6           0       -2.192840   -0.334722    0.410179
      5          8           0       -3.306532   -0.026572    0.073782
      6          6           0        1.155588   -0.216009    0.959200
      7          6           0        1.686901   -1.331538    0.012310
      8          6           0        1.560179   -0.063947   -0.881251
      9          6           0        2.220310    0.716295    0.297943
     10          1           0       -0.733386    1.807428   -0.844048
     11          1           0       -1.392079   -0.371086   -1.561885
     12          1           0       -0.846537   -1.689554   -0.522567
     13          1           0       -1.927079   -0.447422    1.485611
     14          1           0        0.921892   -0.301442    2.021383
     15          1           0        2.709174   -1.658257    0.212333
     16          1           0        1.046741   -2.188691   -0.199246
     17          1           0        1.786777    0.020759   -1.945800
     18          1           0        3.261886    0.461598    0.505737
     19          1           0        2.038724    1.786777    0.347723
 ---------------------------------------------------------------------

 SCF Done:  E(RB3LYP) =  -423.135076614     A.U. after    1 cycles

 The electronic state is 1-A.
 Alpha  occ. eigenvalues --  -19.14829 -19.13852 -10.27214 -10.25596 -10.20774
 Alpha  occ. eigenvalues --  -10.20572 -10.19748 -10.19565 -10.18861  -1.04697
 Alpha  occ. eigenvalues --   -1.03534  -0.91062  -0.76993  -0.66927  -0.64683
 Alpha  occ. eigenvalues --   -0.63751  -0.57911  -0.54685  -0.50485  -0.49627
 Alpha  occ. eigenvalues --   -0.48840  -0.45540  -0.44044  -0.42100  -0.40066
 Alpha  occ. eigenvalues --   -0.38039  -0.36364  -0.34941  -0.33323  -0.32981
 Alpha  occ. eigenvalues --   -0.31904  -0.30629  -0.27464  -0.24864
 Alpha virt. eigenvalues --   -0.01881   0.07072   0.10229   0.10697   0.12268
 Alpha virt. eigenvalues --    0.12599   0.13266   0.14826   0.15315   0.15996
 Alpha virt. eigenvalues --    0.16558   0.18653   0.19071   0.19903   0.22132

 Mulliken charges:
               1
     1  O   -0.485426
     2  C    0.466129
     3  C   -0.386476
     4  C    0.175948
     5  O   -0.247247
     6  C   -0.091449
     7  C   -0.238241
     8  C   -0.118544
     9  C   -0.229120
    10  H    0.286361
    11  H    0.112596
    12  H    0.126988
    13  H    0.078746
    14  H    0.076668
    15  H    0.100996
    16  H    0.091703
    17  H    0.069794
    18  H    0.090624
    19  H    0.119951
 Sum of Mulliken charges =   0.00000

 Dipole moment (field-independent basis, Debye):
    X=              2.3498    Y=             -1.1201    Z=             -0.8258  Tot=              2.7310
 Quadrupole moment (field-independent basis, Debye-Ang):
   XX=            -64.3969   YY=            -52.7034   ZZ=            -50.8921
   XY=              0.1724   XZ=              0.5920   YZ=             -2.5554

  Exact polarizability:  91.547  -2.606  69.070   2.585  -0.845  68.636
 Approx polarizability: 125.049  -6.413 106.104   5.598  -1.655 107.933

                      1                      2                      3
                      A                      A                      A
 Frequencies --     59.3527                78.3267               154.0294
 Red. masses --      4.7886                 3.3815                 2.7151
 Frc consts  --      0.0099                 0.0122                 0.0380
 IR Inten    --      6.0203                 6.1788                 4.2874

                      4                      5                      6
                      A                      A                      A
 Frequencies --    276.1967               301.3419               313.8154
 Red. masses --      3.6441                 1.5068                 1.9854
 Frc consts  --      0.1638                 0.0806                 0.1152
 IR Inten    --     15.9250                45.7874                44.3824

                      7                      8                      9
                      A                      A                      A
 Frequencies --    411.5050               429.5709               476.9682
 Red. masses --      3.7685                 3.0223                 2.6179
 Frc consts  --      0.3760                 0.3286                 0.3509
 IR Inten    --      8.2003                 1.9426                 6.5269

                     10                     11                     12
                      A                      A                      A
 Frequencies --    559.0595               597.4312               705.3256
 Red. masses --      2.6536                 2.1469                 3.0135
 Frc consts  --      0.4887                 0.4515                 0.8833
 IR Inten    --      8.6903                 5.1728                 3.0648

                     13                     14                     15
                      A                      A                      A
 Frequencies --    779.2946               800.8347               821.3731
 Red. masses --      2.5492                 2.8288                 2.0453
 Frc consts  --      0.9121                 1.0689                 0.8130
 IR Inten    --      2.5732                 0.0996                 1.1401

                     16                     17                     18
                      A                      A                      A
 Frequencies --    897.0182               900.6341               910.1186
 Red. masses --      2.1165                 2.4687                 2.4909
 Frc consts  --      1.0034                 1.1798                 1.2156
 IR Inten    --      0.0577                 0.8403                 9.6640

                     19                     20                     21
                      A                      A                      A
 Frequencies --    979.4287              1003.7709              1015.5274
 Red. masses --      2.1102                 1.4380                 1.0223
 Frc consts  --      1.1927                 0.8537                 0.6212
 IR Inten    --     23.3887                 1.4904                 0.5696

                     22                     23                     24
                      A                      A                      A
 Frequencies --   1036.2902              1047.6126              1080.0806
 Red. masses --      1.3635                 1.9262                 1.5106
 Frc consts  --      0.8627                 1.2455                 1.0383
 IR Inten    --     17.8937                22.3677                 9.0621

                     25                     26                     27
                      A                      A                      A
 Frequencies --   1094.9662              1110.3913              1146.2797
 Red. masses --      1.7888                 2.0186                 2.4497
 Frc consts  --      1.2636                 1.4664                 1.8964
 IR Inten    --     11.5126                 3.2244                32.7893

                     28                     29                     30
                      A                      A                      A
 Frequencies --   1164.7145              1184.6844              1197.3196
 Red. masses --      2.3501                 1.4673                 1.3892
 Frc consts  --      1.8784                 1.2133                 1.1734
 IR Inten    --     16.6698                 1.1219                 0.9487

                     31                     32                     33
                      A                      A                      A
 Frequencies --   1220.9306              1233.2941              1246.6723
 Red. masses --      1.6517                 1.4962                 1.7620
 Frc consts  --      1.4506                 1.3408                 1.6135
 IR Inten    --     59.9801                13.1809                 3.8174

                     34                     35                     36
                      A                      A                      A
 Frequencies --   1258.5817              1303.4726              1378.6443
 Red. masses --      1.6985                 1.6329                 1.8634
 Frc consts  --      1.5851                 1.6346                 2.0867
 IR Inten    --     32.5149                 9.8368                50.3592

                     37                     38                     39
                      A                      A                      A
 Frequencies --   1427.7958              1460.3465              1500.7350
 Red. masses --      1.1939                 1.0946                 1.0947
 Frc consts  --      1.4340                 1.3753                 1.4526
 IR Inten    --      4.5730                 5.8986                 1.5274

                     40                     41                     42
                      A                      A                      A
 Frequencies --   1540.4309              1835.7002              2877.5568
 Red. masses --      1.1300                10.0895                 1.0827
 Frc consts  --      1.5798                20.0320                 5.2821
 IR Inten    --      4.8297               186.1044                81.7745

                     43                     44                     45
                      A                      A                      A
 Frequencies --   3037.3058              3073.0775              3076.2958
 Red. masses --      1.0605                 1.0597                 1.0619
 Frc consts  --      5.7643                 5.8964                 5.9209
 IR Inten    --     11.8854                25.8053                38.3041

                     46                     47                     48
                      A                      A                      A
 Frequencies --   3089.2491              3096.1075              3106.8874
 Red. masses --      1.0971                 1.0892                 1.0919
 Frc consts  --      6.1690                 6.1517                 6.2098
 IR Inten    --     20.8629                88.4116                20.7192

                     49                     50                     51
                      A                      A                      A
 Frequencies --   3133.9890              3173.6528              3804.7906
 Red. masses --      1.1083                 1.1043                 1.0662
 Frc consts  --      6.4136                 6.5533                 9.0937
 IR Inten    --     45.6399                15.2727                24.2176

 - Thermochemistry -
 -------------------
 Temperature   298.150 Kelvin.  Pressure   1.00000 Atm.
 Atom     1 has atomic number  8 and mass  15.99491

 Molecular mass:   126.06808 amu.
 Principal axes and moments of inertia in atomic units:
                           1         2         3
     Eigenvalues --   475.546601647.463461825.46429
           X            0.99999  -0.00157   0.00384
           Y            0.00160   0.99996  -0.00858
           Z           -0.00382   0.00859   0.99996
 This molecule is an asymmetric top.
 Rotational symmetry number  1.
 Warning -- assumption of classical behavior for rotation
           may cause significant error
 Rotational temperatures (Kelvin)      0.18214     0.05257     0.04745
 Rotational constants (GHZ):           3.79509     1.09547     0.98865
 Zero-point vibrational energy     415156.7 (Joules/Mol)
                                   99.22483 (Kcal/Mol)
 Warning -- explicit consideration of  11 degrees of freedom as
           vibrations may cause significant error
 Vibrational temperatures:     85.40   112.69   221.61   397.38   433.56
          (Kelvin)            451.51   592.06   618.06   686.25   804.36
                              859.57  1014.80  1121.23  1152.22  1181.77
                             1290.61  1295.81  1309.46  1409.18  1444.20
                             1461.12  1490.99  1507.28  1553.99  1575.41
                             1597.60  1649.24  1675.76  1704.49  1722.67
                             1756.64  1774.43  1793.68  1810.82  1875.40
                             1983.56  2054.28  2101.11  2159.22  2216.33
                             2641.16  4140.16  4370.00  4421.47  4426.10
                             4444.73  4454.60  4470.11  4509.11  4566.17
                             5474.24

 Zero-point correction=                           0.158125 (Hartree/Particle)
 Thermal correction to Energy=                    0.166555
 Thermal correction to Enthalpy=                  0.167500
 Thermal correction to Gibbs Free Energy=         0.124561
 Sum of electronic and zero-point Energies=           -422.976952
 Sum of electronic and thermal Energies=              -422.968521
 Sum of electronic and thermal Enthalpies=            -422.967577
 Sum of electronic and thermal Free Energies=         -423.010516

                     E (Thermal)             CV                S
                      KCal/Mol        Cal/Mol-Kelvin    Cal/Mol-Kelvin
 Total                  104.515             32.277             90.373
 Electronic               0.000              0.000              0.000
 Translational            0.889              2.981             40.409
 Rotational               0.889              2.981             28.749
 Vibrational            102.738             26.315             21.215
 Vibration     1          0.597              1.974              4.479
 Vibration     2          0.600              1.964              3.932
 Vibration     3          0.620              1.898              2.622
 Vibration     4          0.678              1.717              1.557
 Vibration     5          0.693              1.671              1.409
 Vibration     6          0.702              1.647              1.342
 Vibration     7          0.775              1.445              0.921
 Vibration     8          0.791              1.406              0.860
 Vibration     9          0.834              1.301              0.718
 Vibration    10          0.915              1.120              0.526
 Vibration    11          0.955              1.037              0.454

 Normal termination of Gaussian 09 at Mon Jan 27 17:21:22 2020.
