 Gaussian 09, Revision D.01,
 Gaussian 09:  ES64L-G09RevD.01 24-Apr-2013

 -----------------------------
 # b3lyp 6-31G(2df,p) opt Freq
 -----------------------------

 -----
 titel
 -----
 Symbolic Z-matrix:
 Charge =  0 Multiplicity = 1

 SCF Done:  E(RB3LYP) =  -423.179573332     A.U. after   15 cycles
 Optimization completed.
    -- Stationary point found.
 Normal termination of Gaussian 09 at Mon Jan 27 14:22:35 2020.

 ----------------------------------------------------------------------
 #N Geom=AllCheck Guess=TCheck SCRF=Check GenChk RB3LYP/6-31G(2df,p) Fr
 eq
 ----------------------------------------------------------------------

 Structure from the checkpoint file:  "/scratch/puck/g09_7f364a9b-a4ee-4e01-8358-10a1b4887d41/Gau-77979.chk"
 -----
 titel
 -----
 Charge =  0 Multiplicity = 1

                         Standard orientation:
 ---------------------------------------------------------------------
 Center     Atomic      Atomic             Coordinates (Angstroms)
 Number     Number       Type             X           Y           Z
 ---------------------------------------------------------------------
      1          6           0        1.630742   -0.834885   -1.240644
      2          6           0        1.085053   -0.217835    0.065964
      3          6           0        2.063467   -0.487983    1.231599
      4          6           0       -0.269796   -0.858101    0.434427
      5          8           0       -1.212622   -0.666773   -0.635216
      6          6           0       -2.388653   -0.090299   -0.334944
      7          8           0       -2.771915    0.241734    0.751248
      8          6           0        0.907855    1.228170   -0.102209
      9          6           0        0.768193    2.414421   -0.236411
     10          1           0        0.930038   -0.681425   -2.063256
     11          1           0        2.586567   -0.377324   -1.508311
     12          1           0        1.786795   -1.911347   -1.111424
     13          1           0        1.697758   -0.050214    2.164489
     14          1           0        2.192883   -1.565559    1.378364
     15          1           0        3.041451   -0.052281    1.012902
     16          1           0       -0.143213   -1.938488    0.560805
     17          1           0       -0.676564   -0.428496    1.350844
     18          1           0       -2.961442    0.021961   -1.268002
     19          1           0        0.640849    3.462550   -0.351363
 ---------------------------------------------------------------------

 SCF Done:  E(RB3LYP) =  -423.179573332     A.U. after    1 cycles

 The electronic state is 1-A.
 Alpha  occ. eigenvalues --  -19.19035 -19.13369 -10.30911 -10.24522 -10.22924
 Alpha  occ. eigenvalues --  -10.18957 -10.18416 -10.18102 -10.17392  -1.10498
 Alpha  occ. eigenvalues --   -1.02330  -0.84179  -0.73664  -0.72079  -0.69850
 Alpha  occ. eigenvalues --   -0.62332  -0.58941  -0.53431  -0.51725  -0.48717
 Alpha  occ. eigenvalues --   -0.47875  -0.46344  -0.43684  -0.42183  -0.40415
 Alpha  occ. eigenvalues --   -0.39623  -0.37522  -0.37053  -0.36070  -0.34274
 Alpha  occ. eigenvalues --   -0.30616  -0.28216  -0.26811  -0.26676
 Alpha virt. eigenvalues --    0.00985   0.05089   0.05459   0.08199   0.11160
 Alpha virt. eigenvalues --    0.12014   0.13187   0.14135   0.14390   0.15926
 Alpha virt. eigenvalues --    0.18003   0.18133   0.19665   0.19918   0.21325

 Mulliken charges:
               1
     1  C   -0.402941
     2  C    0.039358
     3  C   -0.412933
     4  C   -0.088623
     5  O   -0.212062
     6  C    0.192747
     7  O   -0.298675
     8  C    0.368215
     9  C   -0.509995
    10  H    0.138999
    11  H    0.125075
    12  H    0.111350
    13  H    0.130952
    14  H    0.115860
    15  H    0.131163
    16  H    0.114392
    17  H    0.147878
    18  H    0.109618
    19  H    0.199622
 Sum of Mulliken charges =   0.00000

 Dipole moment (field-independent basis, Debye):
    X=              1.7141    Y=             -0.9748    Z=             -0.8439  Tot=              2.1449
 Quadrupole moment (field-independent basis, Debye-Ang):
   XX=            -56.5680   YY=            -48.8749   ZZ=            -54.1385
   XY=              0.1062   XZ=              5.2984   YZ=             -1.9301

  Exact polarizability:  80.570  -6.583  85.205   1.681  -1.918  67.718
 Approx polarizability: 104.345 -12.628 135.160  -2.857  -1.140 103.126

                      1                      2                      3
                      A                      A                      A
 Frequencies --     24.2378                81.3947               137.9646
 Red. masses --      8.1803                 3.8256                 3.9821
 Frc consts  --      0.0028                 0.0149                 0.0447
 IR Inten    --      0.9498                 0.7984                 0.7378

                      4                      5                      6
                      A                      A                      A
 Frequencies --    177.8755               210.6293               223.0741
 Red. masses --      2.7351                 2.1906                 1.1174
 Frc consts  --      0.0510                 0.0573                 0.0328
 IR Inten    --      0.3563                 3.3597                 0.5035

                      7                      8                      9
                      A                      A                      A
 Frequencies --    249.9914               275.2821               321.8857
 Red. masses --      1.7361                 1.7567                 2.7958
 Frc consts  --      0.0639                 0.0784                 0.1707
 IR Inten    --      2.6479                 5.3056                 9.7499

                     10                     11                     12
                      A                      A                      A
 Frequencies --    356.7541               388.9996               423.0010
 Red. masses --      2.5310                 2.2393                 4.6089
 Frc consts  --      0.1898                 0.1996                 0.4859
 IR Inten    --      1.6264                 2.4719                 5.4058

                     13                     14                     15
                      A                      A                      A
 Frequencies --    549.3066               590.8726               631.8706
 Red. masses --      4.6769                 4.3032                 1.2236
 Frc consts  --      0.8314                 0.8852                 0.2878
 IR Inten    --      4.8050                 4.9532                41.5046

                     16                     17                     18
                      A                      A                      A
 Frequencies --    642.6733               706.9331               781.4354
 Red. masses --      1.2219                 4.3642                 4.5352
 Frc consts  --      0.2974                 1.2850                 1.6317
 IR Inten    --     41.7067                 4.9756                 5.6059

                     19                     20                     21
                      A                      A                      A
 Frequencies --    906.8688               913.2520               949.7129
 Red. masses --      2.3184                 2.1891                 1.4872
 Frc consts  --      1.1234                 1.0757                 0.7903
 IR Inten    --      2.4822                 6.2720                 1.9271

                     22                     23                     24
                      A                      A                      A
 Frequencies --    965.4915              1015.1320              1044.7952
 Red. masses --      3.1645                 1.5657                 1.6226
 Frc consts  --      1.7380                 0.9506                 1.0436
 IR Inten    --     17.8350                 0.9044                 0.3248

                     25                     26                     27
                      A                      A                      A
 Frequencies --   1051.5308              1173.8076              1192.4219
 Red. masses --      1.4811                 3.8981                 3.2355
 Frc consts  --      0.9649                 3.1645                 2.7105
 IR Inten    --      1.2475               160.3371               220.5501

                     28                     29                     30
                      A                      A                      A
 Frequencies --   1231.9611              1250.7578              1321.1601
 Red. masses --      2.9426                 2.2732                 1.4151
 Frc consts  --      2.6313                 2.0952                 1.4553
 IR Inten    --     17.9190                20.9788                20.5309

                     31                     32                     33
                      A                      A                      A
 Frequencies --   1389.1143              1395.2082              1411.9570
 Red. masses --      1.2946                 1.2070                 1.1367
 Frc consts  --      1.4718                 1.3844                 1.3351
 IR Inten    --      5.3208                 4.5080                 1.3121

                     34                     35                     36
                      A                      A                      A
 Frequencies --   1422.7116              1478.9638              1486.3304
 Red. masses --      1.2262                 1.0534                 1.0455
 Frc consts  --      1.4623                 1.3575                 1.3609
 IR Inten    --      4.0800                 0.2204                 1.1026

                     37                     38                     39
                      A                      A                      A
 Frequencies --   1496.2738              1498.5942              1511.0892
 Red. masses --      1.0560                 1.0743                 1.0583
 Frc consts  --      1.3930                 1.4215                 1.4238
 IR Inten    --      4.7514                 5.0803                 9.2990

                     40                     41                     42
                      A                      A                      A
 Frequencies --   1827.1532              2234.1880              3035.0590
 Red. masses --      9.2192                 5.9153                 1.0900
 Frc consts  --     18.1340                17.3966                 5.9159
 IR Inten    --    279.7255                 0.5319                58.8425

                     43                     44                     45
                      A                      A                      A
 Frequencies --   3037.0777              3041.3445              3053.6808
 Red. masses --      1.0364                 1.0388                 1.0615
 Frc consts  --      5.6326                 5.6612                 5.8318
 IR Inten    --     17.6077                16.4134                34.7691

                     46                     47                     48
                      A                      A                      A
 Frequencies --   3110.3129              3114.4388              3125.0587
 Red. masses --      1.1006                 1.0996                 1.1022
 Frc consts  --      6.2733                 6.2840                 6.3423
 IR Inten    --      9.1775                26.6585                19.5146

                     49                     50                     51
                      A                      A                      A
 Frequencies --   3134.7459              3140.4846              3501.0460
 Red. masses --      1.1015                 1.1015                 1.1622
 Frc consts  --      6.3774                 6.4009                 8.3935
 IR Inten    --      8.3349                13.8893                64.2690

 - Thermochemistry -
 -------------------
 Temperature   298.150 Kelvin.  Pressure   1.00000 Atm.
 Atom     1 has atomic number  6 and mass  12.00000

 Molecular mass:   126.06808 amu.
 Principal axes and moments of inertia in atomic units:
                           1         2         3
     Eigenvalues --   768.951791582.046271808.77098
           X            0.99952  -0.02678   0.01579
           Y            0.02708   0.99945  -0.01918
           Z           -0.01527   0.01960   0.99969
 This molecule is an asymmetric top.
 Rotational symmetry number  1.
 Warning -- assumption of classical behavior for rotation
           may cause significant error
 Rotational temperatures (Kelvin)      0.11264     0.05475     0.04789
 Rotational constants (GHZ):           2.34701     1.14076     0.99777
 Zero-point vibrational energy     408141.3 (Joules/Mol)
                                   97.54812 (Kcal/Mol)
 Warning -- explicit consideration of  14 degrees of freedom as
           vibrations may cause significant error
 Vibrational temperatures:     34.87   117.11   198.50   255.92   303.05
          (Kelvin)            320.95   359.68   396.07   463.12   513.29
                              559.68   608.60   790.33   850.13   909.12
                              924.66  1017.12  1124.31  1304.78  1313.96
                             1366.42  1389.13  1460.55  1503.23  1512.92
                             1688.85  1715.63  1772.52  1799.56  1900.85
                             1998.62  2007.39  2031.49  2046.96  2127.90
                             2138.50  2152.80  2156.14  2174.12  2628.86
                             3214.49  4366.77  4369.67  4375.81  4393.56
                             4475.04  4480.98  4496.26  4510.19  4518.45
                             5037.22

 Zero-point correction=                           0.155453 (Hartree/Particle)
 Thermal correction to Energy=                    0.165818
 Thermal correction to Enthalpy=                  0.166762
 Thermal correction to Gibbs Free Energy=         0.119330
 Sum of electronic and zero-point Energies=           -423.024121
 Sum of electronic and thermal Energies=              -423.013756
 Sum of electronic and thermal Enthalpies=            -423.012811
 Sum of electronic and thermal Free Energies=         -423.060243

                     E (Thermal)             CV                S
                      KCal/Mol        Cal/Mol-Kelvin    Cal/Mol-Kelvin
 Total                  104.052             37.109             99.828
 Electronic               0.000              0.000              0.000
 Translational            0.889              2.981             40.409
 Rotational               0.889              2.981             29.177
 Vibrational            102.275             31.148             30.242
 Vibration     1          0.593              1.985              6.253
 Vibration     2          0.600              1.962              3.857
 Vibration     3          0.614              1.915              2.832
 Vibration     4          0.628              1.870              2.351
 Vibration     5          0.643              1.825              2.038
 Vibration     6          0.649              1.806              1.934
 Vibration     7          0.663              1.763              1.731
 Vibration     8          0.677              1.719              1.563
 Vibration     9          0.707              1.632              1.301
 Vibration    10          0.732              1.561              1.136
 Vibration    11          0.757              1.494              1.004
 Vibration    12          0.785              1.420              0.882
 Vibration    13          0.905              1.141              0.546
 Vibration    14          0.948              1.051              0.466

 Optimization completed.
    -- Stationary point found.
 Normal termination of Gaussian 09 at Mon Jan 27 14:59:55 2020.
