 Gaussian 09, Revision D.01,
 Gaussian 09:  ES64L-G09RevD.01 24-Apr-2013

 -----------------------------
 # b3lyp 6-31G(2df,p) opt Freq
 -----------------------------

 -----
 titel
 -----
 Symbolic Z-matrix:
 Charge =  0 Multiplicity = 1

 SCF Done:  E(RB3LYP) =  -423.123266183     A.U. after   14 cycles
 Optimization completed.
    -- Stationary point found.
 Normal termination of Gaussian 09 at Tue Jan 28 08:19:15 2020.

 ----------------------------------------------------------------------
 #N Geom=AllCheck Guess=TCheck SCRF=Check GenChk RB3LYP/6-31G(2df,p) Fr
 eq
 ----------------------------------------------------------------------

 Structure from the checkpoint file:  "/scratch/puck/g09_2053846f-19a4-4e50-b05d-47439387eef5/Gau-74494.chk"
 -----
 titel
 -----
 Charge =  0 Multiplicity = 1

                         Standard orientation:
 ---------------------------------------------------------------------
 Center     Atomic      Atomic             Coordinates (Angstroms)
 Number     Number       Type             X           Y           Z
 ---------------------------------------------------------------------
      1          6           0        2.027582   -1.425733    0.833865
      2          6           0        0.885268   -1.377344   -0.184885
      3          6           0        0.157370   -0.034973   -0.204821
      4          6           0        0.930140    1.091606   -0.647483
      5          6           0        1.602941    2.005896   -1.046665
      6          6           0       -1.345396   -0.011593   -0.561368
      7          8           0       -2.022967   -1.195507   -0.844632
      8          6           0       -0.917273    0.199998    0.853569
      9          8           0       -0.992861    1.457570    1.440748
     10          1           0        2.531337   -2.396800    0.807008
     11          1           0        2.770139   -0.650179    0.624909
     12          1           0        1.655341   -1.265707    1.851068
     13          1           0        1.278850   -1.574864   -1.189606
     14          1           0        0.153390   -2.163513    0.024219
     15          1           0        2.190605    2.824436   -1.380687
     16          1           0       -1.673722    0.874242   -1.104019
     17          1           0       -1.817996   -1.451781   -1.750625
     18          1           0       -1.082079   -0.648384    1.519757
     19          1           0       -1.923033    1.668917    1.575780
 ---------------------------------------------------------------------

 SCF Done:  E(RB3LYP) =  -423.123266183     A.U. after    1 cycles

 The electronic state is 1-A.
 Alpha  occ. eigenvalues --  -19.15673 -19.14777 -10.24144 -10.24071 -10.21318
 Alpha  occ. eigenvalues --  -10.18706 -10.17506 -10.17037 -10.16455  -1.04525
 Alpha  occ. eigenvalues --   -1.03018  -0.86041  -0.75807  -0.73353  -0.64570
 Alpha  occ. eigenvalues --   -0.60959  -0.60153  -0.53492  -0.53074  -0.49902
 Alpha  occ. eigenvalues --   -0.47126  -0.45131  -0.43172  -0.42298  -0.39583
 Alpha  occ. eigenvalues --   -0.37367  -0.35494  -0.34489  -0.33776  -0.31169
 Alpha  occ. eigenvalues --   -0.29079  -0.28201  -0.25088  -0.22980
 Alpha virt. eigenvalues --    0.05000   0.05458   0.07307   0.08373   0.10500
 Alpha virt. eigenvalues --    0.12675   0.13678   0.14434   0.15675   0.16746
 Alpha virt. eigenvalues --    0.17885   0.18581   0.19422   0.21169   0.21878

 Mulliken charges:
               1
     1  C   -0.379348
     2  C   -0.261230
     3  C    0.036038
     4  C    0.320190
     5  C   -0.461186
     6  C   -0.024172
     7  O   -0.415586
     8  C    0.047880
     9  O   -0.411596
    10  H    0.109979
    11  H    0.132269
    12  H    0.119429
    13  H    0.099375
    14  H    0.110731
    15  H    0.188935
    16  H    0.103700
    17  H    0.294021
    18  H    0.100019
    19  H    0.290553
 Sum of Mulliken charges =   0.00000

 Dipole moment (field-independent basis, Debye):
    X=             -0.9821    Y=             -0.6046    Z=             -1.0620  Tot=              1.5678
 Quadrupole moment (field-independent basis, Debye-Ang):
   XX=            -51.1057   YY=            -51.6822   ZZ=            -50.1880
   XY=             -2.2387   XZ=             -1.3248   YZ=              0.0776

  Exact polarizability:  83.773   8.344  84.724  -4.822  -5.031  67.694
 Approx polarizability: 120.427  22.752 125.770 -11.455  -9.323 100.550

                      1                      2                      3
                      A                      A                      A
 Frequencies --     73.3086               120.4072               145.6313
 Red. masses --      2.4561                 4.5341                 3.3448
 Frc consts  --      0.0078                 0.0387                 0.0418
 IR Inten    --      0.2751                 0.2203                 0.2195

                      4                      5                      6
                      A                      A                      A
 Frequencies --    153.8435               211.3864               233.6512
 Red. masses --      3.7954                 1.3960                 1.8822
 Frc consts  --      0.0529                 0.0368                 0.0605
 IR Inten    --      1.1067                 4.8260                46.7125

                      7                      8                      9
                      A                      A                      A
 Frequencies --    267.2160               297.6218               301.9796
 Red. masses --      1.3735                 2.0038                 2.0881
 Frc consts  --      0.0578                 0.1046                 0.1122
 IR Inten    --     46.9573                 5.6244                17.6779

                     10                     11                     12
                      A                      A                      A
 Frequencies --    351.9455               372.4815               423.0339
 Red. masses --      1.7350                 3.4013                 4.6672
 Frc consts  --      0.1266                 0.2780                 0.4921
 IR Inten    --    121.4617                 4.7653                 5.8048

                     13                     14                     15
                      A                      A                      A
 Frequencies --    520.0876               574.9240               580.2112
 Red. masses --      6.9217                 2.8902                 1.5488
 Frc consts  --      1.1031                 0.5629                 0.3072
 IR Inten    --      5.8739                21.9448                35.5945

                     16                     17                     18
                      A                      A                      A
 Frequencies --    630.8648               644.8083               670.4623
 Red. masses --      3.7735                 1.2340                 3.7138
 Frc consts  --      0.8848                 0.3023                 0.9836
 IR Inten    --      5.0265                39.4051                15.0033

                     19                     20                     21
                      A                      A                      A
 Frequencies --    785.7159               820.0460               955.2555
 Red. masses --      1.3360                 3.1306                 2.4040
 Frc consts  --      0.4860                 1.2404                 1.2925
 IR Inten    --      3.3270                 1.9591                 1.2275

                     22                     23                     24
                      A                      A                      A
 Frequencies --    980.5872              1025.1168              1034.5015
 Red. masses --      2.0918                 1.6177                 1.5215
 Frc consts  --      1.1850                 1.0016                 0.9593
 IR Inten    --     23.0820                 3.5407                 1.8461

                     25                     26                     27
                      A                      A                      A
 Frequencies --   1091.3106              1102.8944              1143.4436
 Red. masses --      1.7768                 1.7006                 8.1876
 Frc consts  --      1.2467                 1.2188                 6.3072
 IR Inten    --      4.8360                 2.2110               183.2421

                     28                     29                     30
                      A                      A                      A
 Frequencies --   1176.9046              1240.1285              1247.3731
 Red. masses --      2.8073                 2.1419                 1.7167
 Frc consts  --      2.2910                 1.9408                 1.5738
 IR Inten    --      6.1698                11.1968                11.0704

                     31                     32                     33
                      A                      A                      A
 Frequencies --   1282.4512              1298.4716              1333.9572
 Red. masses --      1.2140                 1.2480                 1.4490
 Frc consts  --      1.1764                 1.2397                 1.5192
 IR Inten    --     38.7574                53.3960                13.4574

                     34                     35                     36
                      A                      A                      A
 Frequencies --   1358.5222              1378.3414              1409.9739
 Red. masses --      1.4492                 1.3765                 1.2330
 Frc consts  --      1.5758                 1.5407                 1.4442
 IR Inten    --     11.2832                18.3214                 2.9150

                     37                     38                     39
                      A                      A                      A
 Frequencies --   1480.3002              1490.0414              1496.6683
 Red. masses --      2.2119                 1.0974                 1.0417
 Frc consts  --      2.8557                 1.4355                 1.3748
 IR Inten    --     11.1059                 0.8780                 5.0223

                     40                     41                     42
                      A                      A                      A
 Frequencies --   1508.5678              2230.8639              3031.3544
 Red. masses --      1.0712                 6.0447                 1.0645
 Frc consts  --      1.4363                17.7243                 5.7635
 IR Inten    --      3.2054                12.9763                21.9505

                     43                     44                     45
                      A                      A                      A
 Frequencies --   3037.9002              3080.3031              3093.1299
 Red. masses --      1.0351                 1.0962                 1.0878
 Frc consts  --      5.6284                 6.1281                 6.1317
 IR Inten    --     25.6266                 2.3403                18.4804

                     46                     47                     48
                      A                      A                      A
 Frequencies --   3106.4369              3114.5575              3116.8434
 Red. masses --      1.1019                 1.0884                 1.1007
 Frc consts  --      6.2651                 6.2203                 6.3003
 IR Inten    --     34.5106                14.1963                36.9726

                     49                     50                     51
                      A                      A                      A
 Frequencies --   3504.0040              3798.8469              3802.0996
 Red. masses --      1.1595                 1.0662                 1.0662
 Frc consts  --      8.3879                 9.0652                 9.0808
 IR Inten    --     76.0906                25.0001                26.9153

 - Thermochemistry -
 -------------------
 Temperature   298.150 Kelvin.  Pressure   1.00000 Atm.
 Atom     1 has atomic number  6 and mass  12.00000

 Molecular mass:   126.06808 amu.
 Principal axes and moments of inertia in atomic units:
                           1         2         3
     Eigenvalues --  1059.045801250.473511585.51419
           X            0.98994  -0.14004   0.02019
           Y            0.14074   0.98928  -0.03888
           Z           -0.01453   0.04133   0.99904
 This molecule is an asymmetric top.
 Rotational symmetry number  1.
 Warning -- assumption of classical behavior for rotation
           may cause significant error
 Rotational temperatures (Kelvin)      0.08178     0.06926     0.05463
 Rotational constants (GHZ):           1.70412     1.44325     1.13827
 Zero-point vibrational energy     407512.5 (Joules/Mol)
                                   97.39784 (Kcal/Mol)
 Warning -- explicit consideration of  15 degrees of freedom as
           vibrations may cause significant error
 Vibrational temperatures:    105.47   173.24   209.53   221.35   304.14
          (Kelvin)            336.17   384.46   428.21   434.48   506.37
                              535.92   608.65   748.29   827.19   834.79
                              907.67   927.73   964.64  1130.47  1179.86
                             1374.40  1410.84  1474.91  1488.42  1570.15
                             1586.82  1645.16  1693.30  1784.27  1794.69
                             1845.16  1868.21  1919.26  1954.61  1983.12
                             2028.64  2129.82  2143.83  2153.37  2170.49
                             3209.71  4361.44  4370.86  4431.86  4450.32
                             4469.46  4481.15  4484.44  5041.47  5465.69
                             5470.37

 Zero-point correction=                           0.155213 (Hartree/Particle)
 Thermal correction to Energy=                    0.165618
 Thermal correction to Enthalpy=                  0.166562
 Thermal correction to Gibbs Free Energy=         0.120251
 Sum of electronic and zero-point Energies=           -422.968053
 Sum of electronic and thermal Energies=              -422.957648
 Sum of electronic and thermal Enthalpies=            -422.956704
 Sum of electronic and thermal Free Energies=         -423.003015

                     E (Thermal)             CV                S
                      KCal/Mol        Cal/Mol-Kelvin    Cal/Mol-Kelvin
 Total                  103.927             38.325             97.471
 Electronic               0.000              0.000              0.000
 Translational            0.889              2.981             40.409
 Rotational               0.889              2.981             29.131
 Vibrational            102.150             32.363             27.932
 Vibration     1          0.599              1.967              4.062
 Vibration     2          0.609              1.932              3.094
 Vibration     3          0.617              1.907              2.729
 Vibration     4          0.619              1.898              2.624
 Vibration     5          0.643              1.823              2.032
 Vibration     6          0.654              1.789              1.851
 Vibration     7          0.672              1.733              1.614
 Vibration     8          0.691              1.678              1.430
 Vibration     9          0.694              1.670              1.406
 Vibration    10          0.728              1.571              1.157
 Vibration    11          0.744              1.529              1.070
 Vibration    12          0.785              1.420              0.882
 Vibration    13          0.875              1.206              0.610
 Vibration    14          0.931              1.085              0.495
 Vibration    15          0.937              1.074              0.485

 Normal termination of Gaussian 09 at Tue Jan 28 09:04:09 2020.
