 Gaussian 09, Revision D.01,
 Gaussian 09:  ES64L-G09RevD.01 24-Apr-2013

 -----------------------------
 # b3lyp 6-31G(2df,p) opt Freq
 -----------------------------

 -----
 titel
 -----
 Symbolic Z-matrix:
 Charge =  0 Multiplicity = 1

 SCF Done:  E(RB3LYP) =  -423.174047779     A.U. after   13 cycles
 Optimization completed.
    -- Stationary point found.
 Normal termination of Gaussian 09 at Tue Jan 28 12:40:23 2020.

 ----------------------------------------------------------------------
 #N Geom=AllCheck Guess=TCheck SCRF=Check GenChk RB3LYP/6-31G(2df,p) Fr
 eq
 ----------------------------------------------------------------------

 Structure from the checkpoint file:  "/scratch/puck/g09_10797385-9fe3-446c-b616-5fffde9c0d5e/Gau-30118.chk"
 -----
 titel
 -----
 Charge =  0 Multiplicity = 1

                         Standard orientation:
 ---------------------------------------------------------------------
 Center     Atomic      Atomic             Coordinates (Angstroms)
 Number     Number       Type             X           Y           Z
 ---------------------------------------------------------------------
      1          8           0        2.884735   -0.432924    0.544220
      2          6           0        2.100935   -0.033691   -0.579534
      3          6           0        0.702681    0.339199   -0.189162
      4          6           0        0.097105    1.511951   -0.403662
      5          6           0       -1.309880    1.571384    0.142709
      6          6           0       -1.546949    0.137031    0.641559
      7          8           0       -2.142119   -0.716659   -0.364248
      8          6           0       -0.997972   -1.595337   -0.372107
      9          6           0       -0.201147   -0.628152    0.535806
     10          1           0        2.906597    0.312682    1.153490
     11          1           0        2.574659    0.792961   -1.129486
     12          1           0        2.097754   -0.906637   -1.243694
     13          1           0        0.557877    2.350824   -0.916848
     14          1           0       -1.403631    2.314892    0.945918
     15          1           0       -2.055863    1.828830   -0.618702
     16          1           0       -2.101005    0.080671    1.584948
     17          1           0       -1.226766   -2.565612    0.088267
     18          1           0       -0.609547   -1.759644   -1.384482
     19          1           0        0.250358   -1.066607    1.427158
 ---------------------------------------------------------------------

 SCF Done:  E(RB3LYP) =  -423.174047779     A.U. after    1 cycles

 The electronic state is 1-A.
 Alpha  occ. eigenvalues --  -19.13893 -19.12810 -10.23313 -10.23131 -10.22757
 Alpha  occ. eigenvalues --  -10.19051 -10.18756 -10.18666 -10.18571  -1.03442
 Alpha  occ. eigenvalues --   -1.01798  -0.83611  -0.74540  -0.71585  -0.66979
 Alpha  occ. eigenvalues --   -0.63915  -0.55361  -0.53128  -0.51524  -0.49384
 Alpha  occ. eigenvalues --   -0.47014  -0.44528  -0.43703  -0.43003  -0.40220
 Alpha  occ. eigenvalues --   -0.39338  -0.37316  -0.34945  -0.32921  -0.32601
 Alpha  occ. eigenvalues --   -0.29903  -0.27510  -0.24805  -0.24346
 Alpha virt. eigenvalues --    0.00946   0.08130   0.08594   0.10924   0.11364
 Alpha virt. eigenvalues --    0.12667   0.13861   0.14955   0.16309   0.16675
 Alpha virt. eigenvalues --    0.17686   0.18773   0.19192   0.21083   0.21804

 Mulliken charges:
               1
     1  O   -0.412839
     2  C   -0.176702
     3  C    0.293423
     4  C   -0.174975
     5  C   -0.274315
     6  C    0.118923
     7  O   -0.292506
     8  C   -0.077177
     9  C   -0.167624
    10  H    0.281734
    11  H    0.093634
    12  H    0.115253
    13  H    0.090642
    14  H    0.102964
    15  H    0.123714
    16  H    0.070770
    17  H    0.097425
    18  H    0.100724
    19  H    0.086931
 Sum of Mulliken charges =   0.00000

 Dipole moment (field-independent basis, Debye):
    X=              0.7286    Y=              1.4714    Z=              0.7152  Tot=              1.7909
 Quadrupole moment (field-independent basis, Debye-Ang):
   XX=            -60.9542   YY=            -50.3755   ZZ=            -50.9456
   XY=              2.1862   XZ=             -2.2618   YZ=              1.0253

  Exact polarizability:  81.953  -5.845  85.457  -3.494  -0.894  64.022
 Approx polarizability: 112.450 -14.593 130.186  -0.051  -2.732  98.416

                      1                      2                      3
                      A                      A                      A
 Frequencies --     76.2086               113.6470               173.9161
 Red. masses --      3.8817                 3.6171                 3.8502
 Frc consts  --      0.0133                 0.0275                 0.0686
 IR Inten    --      2.4284                 2.7611                 0.3625

                      4                      5                      6
                      A                      A                      A
 Frequencies --    220.8403               273.5421               345.8540
 Red. masses --      2.1476                 2.9921                 1.2571
 Frc consts  --      0.0617                 0.1319                 0.0886
 IR Inten    --      6.0919                 2.9498                89.8110

                      7                      8                      9
                      A                      A                      A
 Frequencies --    385.5432               427.0729               572.6835
 Red. masses --      2.2759                 2.3475                 3.5812
 Frc consts  --      0.1993                 0.2523                 0.6920
 IR Inten    --      3.5238                34.2625                 4.5622

                     10                     11                     12
                      A                      A                      A
 Frequencies --    626.8824               733.2003               792.4377
 Red. masses --      4.7364                 4.1996                 2.8820
 Frc consts  --      1.0966                 1.3301                 1.0663
 IR Inten    --      5.4451                 8.2943                 0.7172

                     13                     14                     15
                      A                      A                      A
 Frequencies --    808.5779               848.2413               890.0673
 Red. masses --      1.8239                 1.6721                 1.9334
 Frc consts  --      0.7026                 0.7088                 0.9024
 IR Inten    --      0.4578                 2.4337                13.0058

                     16                     17                     18
                      A                      A                      A
 Frequencies --    902.3163               946.1691               980.9707
 Red. masses --      3.1904                 1.9611                 2.3089
 Frc consts  --      1.5304                 1.0344                 1.3091
 IR Inten    --     29.6948                 5.2703                12.3006

                     19                     20                     21
                      A                      A                      A
 Frequencies --    997.6868              1011.5414              1037.2598
 Red. masses --      2.0245                 2.5201                 3.0435
 Frc consts  --      1.1873                 1.5193                 1.9293
 IR Inten    --     37.6837                25.6665                38.0364

                     22                     23                     24
                      A                      A                      A
 Frequencies --   1047.8482              1058.0021              1071.2150
 Red. masses --      2.9988                 2.7828                 2.3192
 Frc consts  --      1.9399                 1.8353                 1.5680
 IR Inten    --     34.9850                27.6358                10.8568

                     25                     26                     27
                      A                      A                      A
 Frequencies --   1162.7960              1169.8599              1176.9555
 Red. masses --      1.1508                 1.9109                 1.2882
 Frc consts  --      0.9167                 1.5408                 1.0514
 IR Inten    --      1.5686                14.8990                13.8119

                     28                     29                     30
                      A                      A                      A
 Frequencies --   1196.4503              1232.0483              1259.3529
 Red. masses --      1.0990                 1.5997                 1.7268
 Frc consts  --      0.9269                 1.4307                 1.6136
 IR Inten    --      7.4375                 4.1128                 1.8016

                     31                     32                     33
                      A                      A                      A
 Frequencies --   1280.5362              1316.0959              1333.3478
 Red. masses --      1.3597                 1.5767                 1.7383
 Frc consts  --      1.3137                 1.6091                 1.8208
 IR Inten    --      1.3713                 6.3615                 0.7390

                     34                     35                     36
                      A                      A                      A
 Frequencies --   1356.8730              1359.3128              1386.0416
 Red. masses --      1.5087                 1.3749                 1.5445
 Frc consts  --      1.6366                 1.4967                 1.7482
 IR Inten    --      2.7493                 9.1759                 0.8454

                     37                     38                     39
                      A                      A                      A
 Frequencies --   1416.4591              1466.3319              1497.7791
 Red. masses --      1.2415                 1.0925                 1.0885
 Frc consts  --      1.4675                 1.3840                 1.4388
 IR Inten    --     63.9743                 3.0346                 1.2867

                     40                     41                     42
                      A                      A                      A
 Frequencies --   1521.6157              1706.6501              2993.9260
 Red. masses --      1.1009                 7.4322                 1.0651
 Frc consts  --      1.5018                12.7542                 5.6248
 IR Inten    --      0.8385                 2.1011                54.2585

                     43                     44                     45
                      A                      A                      A
 Frequencies --   3006.4147              3013.8917              3045.5625
 Red. masses --      1.0566                 1.0657                 1.0860
 Frc consts  --      5.6267                 5.7036                 5.9348
 IR Inten    --     80.4585                30.4818                67.7751

                     46                     47                     48
                      A                      A                      A
 Frequencies --   3051.2775              3054.9050              3060.2682
 Red. masses --      1.0983                 1.1070                 1.0969
 Frc consts  --      6.0248                 6.0869                 6.0527
 IR Inten    --     28.9504                31.5460                16.7401

                     49                     50                     51
                      A                      A                      A
 Frequencies --   3099.5151              3177.3550              3808.6752
 Red. masses --      1.0873                 1.0929                 1.0662
 Frc consts  --      6.1542                 6.5008                 9.1126
 IR Inten    --     28.6727                16.2663                15.8246

 - Thermochemistry -
 -------------------
 Temperature   298.150 Kelvin.  Pressure   1.00000 Atm.
 Atom     1 has atomic number  8 and mass  15.99491

 Molecular mass:   126.06808 amu.
 Principal axes and moments of inertia in atomic units:
                           1         2         3
     Eigenvalues --   600.999571415.013381756.51718
           X            0.99988  -0.00364  -0.01521
           Y            0.00369   0.99999   0.00335
           Z            0.01520  -0.00341   0.99988
 This molecule is an asymmetric top.
 Rotational symmetry number  1.
 Warning -- assumption of classical behavior for rotation
           may cause significant error
 Rotational temperatures (Kelvin)      0.14412     0.06121     0.04931
 Rotational constants (GHZ):           3.00290     1.27542     1.02745
 Zero-point vibrational energy     421635.9 (Joules/Mol)
                                  100.77340 (Kcal/Mol)
 Warning -- explicit consideration of   9 degrees of freedom as
           vibrations may cause significant error
 Vibrational temperatures:    109.65   163.51   250.23   317.74   393.57
          (Kelvin)            497.61   554.71   614.46   823.96   901.94
                             1054.91  1140.14  1163.36  1220.43  1280.61
                             1298.23  1361.32  1411.40  1435.45  1455.38
                             1492.38  1507.62  1522.23  1541.24  1673.00
                             1683.17  1693.37  1721.42  1772.64  1811.93
                             1842.40  1893.57  1918.39  1952.24  1955.75
                             1994.20  2037.97  2109.72  2154.97  2189.26
                             2455.49  4307.59  4325.55  4336.31  4381.88
                             4390.10  4395.32  4403.04  4459.51  4571.50
                             5479.83

 Zero-point correction=                           0.160593 (Hartree/Particle)
 Thermal correction to Energy=                    0.168689
 Thermal correction to Enthalpy=                  0.169633
 Thermal correction to Gibbs Free Energy=         0.127547
 Sum of electronic and zero-point Energies=           -423.013455
 Sum of electronic and thermal Energies=              -423.005359
 Sum of electronic and thermal Enthalpies=            -423.004415
 Sum of electronic and thermal Free Energies=         -423.046501

                     E (Thermal)             CV                S
                      KCal/Mol        Cal/Mol-Kelvin    Cal/Mol-Kelvin
 Total                  105.854             30.747             88.577
 Electronic               0.000              0.000              0.000
 Translational            0.889              2.981             40.409
 Rotational               0.889              2.981             28.792
 Vibrational            104.076             24.785             19.376
 Vibration     1          0.599              1.965              3.986
 Vibration     2          0.607              1.938              3.206
 Vibration     3          0.627              1.875              2.393
 Vibration     4          0.648              1.809              1.952
 Vibration     5          0.676              1.722              1.574
 Vibration     6          0.724              1.584              1.185
 Vibration     7          0.754              1.501              1.017
 Vibration     8          0.789              1.411              0.868
 Vibration     9          0.929              1.090              0.499

 Normal termination of Gaussian 09 at Tue Jan 28 13:24:09 2020.
