 Gaussian 09, Revision D.01,
 Gaussian 09:  ES64L-G09RevD.01 24-Apr-2013

 -----------------------------
 # b3lyp 6-31G(2df,p) opt Freq
 -----------------------------

 -----
 titel
 -----
 Symbolic Z-matrix:
 Charge =  0 Multiplicity = 1

 SCF Done:  E(RB3LYP) =  -423.158991169     A.U. after   13 cycles
 Optimization completed.
    -- Stationary point found.
 Normal termination of Gaussian 09 at Mon Jan 27 12:18:58 2020.

 ----------------------------------------------------------------------
 #N Geom=AllCheck Guess=TCheck SCRF=Check GenChk RB3LYP/6-31G(2df,p) Fr
 eq
 ----------------------------------------------------------------------

 Structure from the checkpoint file:  "/scratch/puck/g09_54a69331-104b-48ac-bd13-783d511fad09/Gau-165632.chk"
 -----
 titel
 -----
 Charge =  0 Multiplicity = 1

                         Standard orientation:
 ---------------------------------------------------------------------
 Center     Atomic      Atomic             Coordinates (Angstroms)
 Number     Number       Type             X           Y           Z
 ---------------------------------------------------------------------
      1          6           0       -1.978359   -0.957782    0.296758
      2          8           0       -2.222023    0.455166    0.154693
      3          6           0       -1.037146    0.630531   -0.661654
      4          6           0       -0.000085    1.549084    0.000189
      5          6           0        1.037226    0.630581    0.661653
      6          8           0        2.221816    0.455286   -0.155132
      7          6           0        1.978430   -0.957761   -0.296703
      8          6           0        0.627381   -0.856061    0.438115
      9          6           0       -0.627252   -0.856072   -0.437965
     10          1           0       -1.936886   -1.267534    1.349283
     11          1           0       -2.740172   -1.556602   -0.218964
     12          1           0       -1.307416    0.932956   -1.679204
     13          1           0        0.509234    2.190132   -0.725148
     14          1           0       -0.509606    2.189637    0.725823
     15          1           0        1.307853    0.933005    1.679112
     16          1           0        1.936966   -1.267879   -1.349117
     17          1           0        2.740389   -1.556250    0.219193
     18          1           0        0.526724   -1.488075    1.322520
     19          1           0       -0.526587   -1.488121   -1.322344
 ---------------------------------------------------------------------

 SCF Done:  E(RB3LYP) =  -423.158991169     A.U. after    1 cycles

 The electronic state is 1-A.
 Alpha  occ. eigenvalues --  -19.13065 -19.13064 -10.23390 -10.23390 -10.23104
 Alpha  occ. eigenvalues --  -10.23103 -10.19572 -10.19551 -10.17856  -1.04052
 Alpha  occ. eigenvalues --   -1.03331  -0.80698  -0.75494  -0.70026  -0.68076
 Alpha  occ. eigenvalues --   -0.63229  -0.54844  -0.54024  -0.51126  -0.51063
 Alpha  occ. eigenvalues --   -0.46282  -0.45712  -0.43825  -0.43297  -0.41348
 Alpha  occ. eigenvalues --   -0.38893  -0.35994  -0.35969  -0.33296  -0.31162
 Alpha  occ. eigenvalues --   -0.29797  -0.29298  -0.25507  -0.24309
 Alpha virt. eigenvalues --    0.06291   0.07666   0.09290   0.09970   0.12305
 Alpha virt. eigenvalues --    0.13093   0.14090   0.14421   0.15789   0.16889
 Alpha virt. eigenvalues --    0.17990   0.18295   0.18295   0.20617   0.22018

 Mulliken charges:
               1
     1  C   -0.091758
     2  O   -0.292030
     3  C    0.129301
     4  C   -0.258038
     5  C    0.129306
     6  O   -0.292037
     7  C   -0.091746
     8  C   -0.085513
     9  C   -0.085470
    10  H    0.097664
    11  H    0.099120
    12  H    0.076253
    13  H    0.116287
    14  H    0.116285
    15  H    0.076243
    16  H    0.097671
    17  H    0.099111
    18  H    0.079674
    19  H    0.079678
 Sum of Mulliken charges =   0.00000

 Dipole moment (field-independent basis, Debye):
    X=              0.0004    Y=             -1.8132    Z=              0.0007  Tot=              1.8132
 Quadrupole moment (field-independent basis, Debye-Ang):
   XX=            -61.7470   YY=            -50.8096   ZZ=            -50.8624
   XY=              0.0000   XZ=              1.8263   YZ=              0.0007

  Exact polarizability:  78.970   0.000  74.857  -0.077   0.001  66.871
 Approx polarizability: 105.530   0.000 108.435  -2.750  -0.001 102.213

                      1                      2                      3
                      A                      A                      A
 Frequencies --     48.3012                73.8699               251.1939
 Red. masses --      3.6597                 2.9413                 2.2163
 Frc consts  --      0.0050                 0.0095                 0.0824
 IR Inten    --      7.0712                 0.3121                 0.1245

                      4                      5                      6
                      A                      A                      A
 Frequencies --    310.0730               370.4734               427.8427
 Red. masses --      6.4713                 3.1088                 1.8961
 Frc consts  --      0.3666                 0.2514                 0.2045
 IR Inten    --      0.9665                 0.7735                 6.0870

                      7                      8                      9
                      A                      A                      A
 Frequencies --    613.3183               683.7022               787.6238
 Red. masses --      4.3549                 4.9330                 1.8948
 Frc consts  --      0.9652                 1.3586                 0.6926
 IR Inten    --      2.0623                 0.4505                 0.4543

                     10                     11                     12
                      A                      A                      A
 Frequencies --    797.3346               820.1098               842.8327
 Red. masses --      2.5592                 3.4281                 1.9028
 Frc consts  --      0.9586                 1.3585                 0.7964
 IR Inten    --      8.5068                 1.2540                12.3480

                     13                     14                     15
                      A                      A                      A
 Frequencies --    874.5781               897.1561               915.2521
 Red. masses --      3.3038                 4.9517                 2.2978
 Frc consts  --      1.4889                 2.3482                 1.1341
 IR Inten    --      0.7597                23.8644                 4.6965

                     16                     17                     18
                      A                      A                      A
 Frequencies --    981.4704               994.3172              1006.2097
 Red. masses --      1.5747                 2.3102                 2.5465
 Frc consts  --      0.8937                 1.3457                 1.5190
 IR Inten    --      1.7141                 0.2820                 0.7088

                     19                     20                     21
                      A                      A                      A
 Frequencies --   1024.3276              1035.7852              1058.3336
 Red. masses --      4.2469                 8.3574                 2.1336
 Frc consts  --      2.6254                 5.2827                 1.4080
 IR Inten    --     28.4724               129.6046                18.7838

                     22                     23                     24
                      A                      A                      A
 Frequencies --   1078.4702              1095.0706              1136.3449
 Red. masses --      3.2079                 1.9735                 1.6171
 Frc consts  --      2.1983                 1.3944                 1.2303
 IR Inten    --     40.5442                 1.6113                 0.0620

                     25                     26                     27
                      A                      A                      A
 Frequencies --   1155.9753              1164.7954              1192.5665
 Red. masses --      1.1951                 1.1383                 1.4623
 Frc consts  --      0.9409                 0.9099                 1.2253
 IR Inten    --      0.0366                 0.4655                 0.8624

                     28                     29                     30
                      A                      A                      A
 Frequencies --   1207.5040              1212.4053              1240.3443
 Red. masses --      1.4580                 2.1151                 1.3740
 Frc consts  --      1.2525                 1.8318                 1.2454
 IR Inten    --      6.5847                 6.8591                 1.3362

                     31                     32                     33
                      A                      A                      A
 Frequencies --   1285.2246              1295.4106              1313.5915
 Red. masses --      1.3758                 1.3300                 1.3310
 Frc consts  --      1.3389                 1.3150                 1.3531
 IR Inten    --      0.0211                 3.8145                 7.2230

                     34                     35                     36
                      A                      A                      A
 Frequencies --   1340.0260              1340.9419              1366.2151
 Red. masses --      1.3624                 1.6148                 1.4931
 Frc consts  --      1.4413                 1.7108                 1.6420
 IR Inten    --      5.5853                 2.1838                 9.9242

                     37                     38                     39
                      A                      A                      A
 Frequencies --   1366.8665              1371.6565              1460.0179
 Red. masses --      1.5051                 1.4696                 1.0855
 Frc consts  --      1.6568                 1.6290                 1.3633
 IR Inten    --      5.8220                 2.2370                 6.3787

                     40                     41                     42
                      A                      A                      A
 Frequencies --   1525.4791              1526.1782              3003.5157
 Red. masses --      1.0996                 1.1005                 1.0549
 Frc consts  --      1.5077                 1.5103                 5.6067
 IR Inten    --      1.1402                 0.1048                80.8647

                     43                     44                     45
                      A                      A                      A
 Frequencies --   3004.1403              3041.9976              3042.9529
 Red. masses --      1.0549                 1.0823                 1.0879
 Frc consts  --      5.6094                 5.9009                 5.9350
 IR Inten    --     84.9267                 3.6444                98.5591

                     46                     47                     48
                      A                      A                      A
 Frequencies --   3043.7250              3045.1199              3063.3433
 Red. masses --      1.1090                 1.1108                 1.0650
 Frc consts  --      6.0532                 6.0685                 5.8882
 IR Inten    --     48.2809                 2.3052                27.3337

                     49                     50                     51
                      A                      A                      A
 Frequencies --   3090.7424              3091.2986              3110.6704
 Red. masses --      1.0878                 1.0886                 1.1046
 Frc consts  --      6.1222                 6.1289                 6.2976
 IR Inten    --     50.3629                17.3064                14.5432

 - Thermochemistry -
 -------------------
 Temperature   298.150 Kelvin.  Pressure   1.00000 Atm.
 Atom     1 has atomic number  6 and mass  12.00000

 Molecular mass:   126.06808 amu.
 Principal axes and moments of inertia in atomic units:
                           1         2         3
     Eigenvalues --   501.943891236.966071510.18807
           X            0.99999   0.00000   0.00357
           Y            0.00000   1.00000   0.00001
           Z           -0.00357  -0.00001   0.99999
 This molecule is an asymmetric top.
 Rotational symmetry number  1.
 Warning -- assumption of classical behavior for rotation
           may cause significant error
 Rotational temperatures (Kelvin)      0.17256     0.07002     0.05735
 Rotational constants (GHZ):           3.59550     1.45901     1.19504
 Zero-point vibrational energy     424834.0 (Joules/Mol)
                                  101.53776 (Kcal/Mol)
 Warning -- explicit consideration of   7 degrees of freedom as
           vibrations may cause significant error
 Vibrational temperatures:     69.49   106.28   361.41   446.13   533.03
          (Kelvin)            615.57   882.43   983.69  1133.21  1147.19
                             1179.95  1212.65  1258.32  1290.81  1316.84
                             1412.12  1430.60  1447.71  1473.78  1490.26
                             1522.70  1551.68  1575.56  1634.94  1663.19
                             1675.88  1715.84  1737.33  1744.38  1784.58
                             1849.15  1863.80  1889.96  1928.00  1929.31
                             1965.68  1966.61  1973.51  2100.64  2194.82
                             2195.83  4321.38  4322.28  4376.75  4378.13
                             4379.24  4381.24  4407.46  4446.88  4447.68
                             4475.56

 Zero-point correction=                           0.161811 (Hartree/Particle)
 Thermal correction to Energy=                    0.168999
 Thermal correction to Enthalpy=                  0.169943
 Thermal correction to Gibbs Free Energy=         0.129145
 Sum of electronic and zero-point Energies=           -422.997180
 Sum of electronic and thermal Energies=              -422.989992
 Sum of electronic and thermal Enthalpies=            -422.989048
 Sum of electronic and thermal Free Energies=         -423.029846

                     E (Thermal)             CV                S
                      KCal/Mol        Cal/Mol-Kelvin    Cal/Mol-Kelvin
 Total                  106.048             27.704             85.866
 Electronic               0.000              0.000              0.000
 Translational            0.889              2.981             40.409
 Rotational               0.889              2.981             28.330
 Vibrational            104.271             21.743             17.128
 Vibration     1          0.595              1.978              4.886
 Vibration     2          0.599              1.966              4.047
 Vibration     3          0.663              1.761              1.722
 Vibration     4          0.699              1.655              1.362
 Vibration     5          0.742              1.533              1.078
 Vibration     6          0.789              1.410              0.866
 Vibration     7          0.973              1.004              0.427

 Optimization completed.
    -- Stationary point found.
 Normal termination of Gaussian 09 at Mon Jan 27 13:01:09 2020.
