 Gaussian 09, Revision D.01,
 Gaussian 09:  ES64L-G09RevD.01 24-Apr-2013

 -----------------------------
 # b3lyp 6-31G(2df,p) opt Freq
 -----------------------------

 -----
 titel
 -----
 Symbolic Z-matrix:
 Charge =  0 Multiplicity = 1

 SCF Done:  E(RB3LYP) =  -423.117945650     A.U. after   14 cycles
 Optimization completed.
    -- Stationary point found.
 Normal termination of Gaussian 09 at Mon Jan 27 23:07:58 2020.

 ----------------------------------------------------------------------
 #N Geom=AllCheck Guess=TCheck SCRF=Check GenChk RB3LYP/6-31G(2df,p) Fr
 eq
 ----------------------------------------------------------------------

 Structure from the checkpoint file:  "/scratch/puck/g09_7ecb1a5e-4f64-4f50-b8b0-8381f25d3210/Gau-196143.chk"
 -----
 titel
 -----
 Charge =  0 Multiplicity = 1

                         Standard orientation:
 ---------------------------------------------------------------------
 Center     Atomic      Atomic             Coordinates (Angstroms)
 Number     Number       Type             X           Y           Z
 ---------------------------------------------------------------------
      1          8           0        1.827132   -1.396250   -0.513612
      2          6           0        0.887826   -0.371744   -0.674344
      3          6           0        1.192891    0.960464    0.034746
      4          6           0       -0.035559    1.825262   -0.413879
      5          6           0       -1.115889    0.807813    0.050493
      6          6           0       -2.042137   -0.300289   -0.570467
      7          6           0       -1.376840   -1.314493    0.455216
      8          6           0       -0.206789   -0.330878    0.426884
      9          8           0        0.806641    0.278215    1.306600
     10          1           0        2.063468   -1.389259    0.423947
     11          1           0        0.600599   -0.351651   -1.728316
     12          1           0        2.186150    1.406192    0.080530
     13          1           0       -0.111391    2.778839    0.111477
     14          1           0        0.013981    2.025884   -1.488142
     15          1           0       -1.617874    1.178999    0.948292
     16          1           0       -3.117576   -0.147149   -0.473988
     17          1           0       -1.805863   -0.556544   -1.604749
     18          1           0       -1.921249   -1.318844    1.402862
     19          1           0       -1.181454   -2.338993    0.132295
 ---------------------------------------------------------------------

 SCF Done:  E(RB3LYP) =  -423.117945650     A.U. after    1 cycles

 The electronic state is 1-A.
 Alpha  occ. eigenvalues --  -19.14190 -19.13670 -10.23747 -10.23324 -10.23079
 Alpha  occ. eigenvalues --  -10.20025 -10.19703 -10.19209 -10.18469  -1.05759
 Alpha  occ. eigenvalues --   -1.00575  -0.85426  -0.77028  -0.69641  -0.65215
 Alpha  occ. eigenvalues --   -0.63503  -0.57748  -0.55350  -0.50383  -0.47984
 Alpha  occ. eigenvalues --   -0.46391  -0.45972  -0.42860  -0.41605  -0.38969
 Alpha  occ. eigenvalues --   -0.37498  -0.36689  -0.34412  -0.33522  -0.33012
 Alpha  occ. eigenvalues --   -0.32407  -0.28852  -0.25108  -0.24893
 Alpha virt. eigenvalues --    0.06902   0.09279   0.10232   0.11148   0.11607
 Alpha virt. eigenvalues --    0.12316   0.13312   0.13595   0.16218   0.16598
 Alpha virt. eigenvalues --    0.17116   0.19742   0.20022   0.20941   0.21872

 Mulliken charges:
               1
     1  O   -0.465633
     2  C    0.164763
     3  C    0.003311
     4  C   -0.304229
     5  C    0.013129
     6  C   -0.277980
     7  C   -0.358831
     8  C    0.394218
     9  O   -0.393868
    10  H    0.286217
    11  H    0.083185
    12  H    0.085861
    13  H    0.110370
    14  H    0.110747
    15  H    0.087982
    16  H    0.109176
    17  H    0.116696
    18  H    0.119886
    19  H    0.114999
 Sum of Mulliken charges =   0.00000

 Dipole moment (field-independent basis, Debye):
    X=             -1.2989    Y=              0.8250    Z=             -0.5164  Tot=              1.6231
 Quadrupole moment (field-independent basis, Debye-Ang):
   XX=            -52.4646   YY=            -53.1486   ZZ=            -54.8910
   XY=              2.6911   XZ=              0.5361   YZ=             -2.6865

  Exact polarizability:  81.525   3.886  77.487  -0.127  -1.105  65.112
 Approx polarizability: 114.063   3.429 111.226   1.473  -0.159 107.228

                      1                      2                      3
                      A                      A                      A
 Frequencies --    190.8125               223.6556               282.0922
 Red. masses --      4.0076                 2.9680                 2.4647
 Frc consts  --      0.0860                 0.0875                 0.1156
 IR Inten    --      1.4576                 2.7174                 6.6026

                      4                      5                      6
                      A                      A                      A
 Frequencies --    340.8101               408.7580               430.0738
 Red. masses --      2.6393                 2.1492                 3.4250
 Frc consts  --      0.1806                 0.2116                 0.3732
 IR Inten    --      0.9258                 3.0302                 4.2162

                      7                      8                      9
                      A                      A                      A
 Frequencies --    521.2454               543.6589               605.1401
 Red. masses --      1.2137                 4.2808                 4.4527
 Frc consts  --      0.1943                 0.7455                 0.9607
 IR Inten    --     87.3945                 4.0506                 4.4099

                     10                     11                     12
                      A                      A                      A
 Frequencies --    630.2478               698.1061               761.9287
 Red. masses --      3.4988                 2.5176                 2.1479
 Frc consts  --      0.8188                 0.7229                 0.7347
 IR Inten    --      3.3016                 0.3253                 5.0180

                     13                     14                     15
                      A                      A                      A
 Frequencies --    790.8575               824.3797               861.5752
 Red. masses --      4.7084                 1.5285                 2.5551
 Frc consts  --      1.7351                 0.6120                 1.1175
 IR Inten    --     38.4692                 2.3246                 2.8909

                     16                     17                     18
                      A                      A                      A
 Frequencies --    871.6267               882.9053               921.7603
 Red. masses --      2.8525                 2.0310                 4.1437
 Frc consts  --      1.2768                 0.9328                 2.0743
 IR Inten    --      6.7234                 1.6384                50.8214

                     19                     20                     21
                      A                      A                      A
 Frequencies --    963.1280               979.4009              1035.7855
 Red. masses --      1.7960                 2.5676                 2.1392
 Frc consts  --      0.9816                 1.4511                 1.3522
 IR Inten    --      2.5012                 8.2554                 9.5998

                     22                     23                     24
                      A                      A                      A
 Frequencies --   1039.2761              1101.0994              1110.9577
 Red. masses --      1.2985                 2.1785                 2.5848
 Frc consts  --      0.8264                 1.5562                 1.8796
 IR Inten    --      4.9268                49.3223                13.0827

                     25                     26                     27
                      A                      A                      A
 Frequencies --   1144.1334              1158.8443              1176.8694
 Red. masses --      1.9646                 1.7947                 1.7420
 Frc consts  --      1.5153                 1.4200                 1.4215
 IR Inten    --     17.7572                55.1491                14.7207

                     28                     29                     30
                      A                      A                      A
 Frequencies --   1203.2914              1215.5282              1218.8209
 Red. masses --      1.3438                 1.5376                 1.2074
 Frc consts  --      1.1464                 1.3385                 1.0568
 IR Inten    --      0.9533                 0.9754                 3.1155

                     31                     32                     33
                      A                      A                      A
 Frequencies --   1228.5952              1244.4850              1267.3649
 Red. masses --      1.8991                 1.4182                 1.6737
 Frc consts  --      1.6890                 1.2941                 1.5839
 IR Inten    --      7.8790                 2.5428                18.6721

                     34                     35                     36
                      A                      A                      A
 Frequencies --   1285.9912              1306.0955              1313.5259
 Red. masses --      1.5106                 1.8028                 2.1615
 Frc consts  --      1.4719                 1.8119                 2.1973
 IR Inten    --      1.7271                10.5094                 5.0807

                     37                     38                     39
                      A                      A                      A
 Frequencies --   1374.3496              1451.7274              1479.5710
 Red. masses --      1.3019                 1.3523                 1.0941
 Frc consts  --      1.4488                 1.6792                 1.4112
 IR Inten    --      2.3263                75.1691                 2.4168

                     40                     41                     42
                      A                      A                      A
 Frequencies --   1485.1422              1496.1473              3061.3016
 Red. masses --      1.1145                 1.1171                 1.0804
 Frc consts  --      1.4484                 1.4734                 5.9655
 IR Inten    --      8.6836                 4.1960                 9.8624

                     43                     44                     45
                      A                      A                      A
 Frequencies --   3065.3310              3069.3403              3080.7728
 Red. masses --      1.0632                 1.0599                 1.0612
 Frc consts  --      5.8860                 5.8830                 5.9345
 IR Inten    --     29.1994                28.8196                15.0759

                     46                     47                     48
                      A                      A                      A
 Frequencies --   3091.4517              3119.8602              3125.4085
 Red. masses --      1.0825                 1.1050                 1.1094
 Frc consts  --      6.0955                 6.3368                 6.3850
 IR Inten    --     48.6064                22.0361                 8.9756

                     49                     50                     51
                      A                      A                      A
 Frequencies --   3133.5410              3143.4186              3761.2797
 Red. masses --      1.0917                 1.1092                 1.0641
 Frc consts  --      6.3159                 6.4573                 8.8696
 IR Inten    --     37.4659                36.3125                26.0573

 - Thermochemistry -
 -------------------
 Temperature   298.150 Kelvin.  Pressure   1.00000 Atm.
 Atom     1 has atomic number  8 and mass  15.99491

 Molecular mass:   126.06808 amu.
 Principal axes and moments of inertia in atomic units:
                           1         2         3
     Eigenvalues --   712.64387 956.165211249.48664
           X            0.99784   0.06572  -0.00060
           Y           -0.06570   0.99732  -0.03216
           Z           -0.00151   0.03213   0.99948
 This molecule is an asymmetric top.
 Rotational symmetry number  1.
 Warning -- assumption of classical behavior for rotation
           may cause significant error
 Rotational temperatures (Kelvin)      0.12154     0.09058     0.06932
 Rotational constants (GHZ):           2.53246     1.88748     1.44439
 Zero-point vibrational energy     423008.3 (Joules/Mol)
                                  101.10142 (Kcal/Mol)
 Warning -- explicit consideration of   9 degrees of freedom as
           vibrations may cause significant error
 Vibrational temperatures:    274.54   321.79   405.87   490.35   588.11
          (Kelvin)            618.78   749.95   782.20   870.66   906.78
                             1004.42  1096.24  1137.87  1186.10  1239.61
                             1254.07  1270.30  1326.21  1385.72  1409.14
                             1490.26  1495.28  1584.23  1598.42  1646.15
                             1667.32  1693.25  1731.27  1748.87  1753.61
                             1767.67  1790.53  1823.45  1850.25  1879.18
                             1889.87  1977.38  2088.71  2128.77  2136.79
                             2152.62  4404.52  4410.32  4416.09  4432.54
                             4447.90  4488.78  4496.76  4508.46  4522.67
                             5411.64

 Zero-point correction=                           0.161115 (Hartree/Particle)
 Thermal correction to Energy=                    0.168141
 Thermal correction to Enthalpy=                  0.169085
 Thermal correction to Gibbs Free Energy=         0.130183
 Sum of electronic and zero-point Energies=           -422.956830
 Sum of electronic and thermal Energies=              -422.949805
 Sum of electronic and thermal Enthalpies=            -422.948860
 Sum of electronic and thermal Free Energies=         -422.987763

                     E (Thermal)             CV                S
                      KCal/Mol        Cal/Mol-Kelvin    Cal/Mol-Kelvin
 Total                  105.510             29.782             81.877
 Electronic               0.000              0.000              0.000
 Translational            0.889              2.981             40.409
 Rotational               0.889              2.981             28.234
 Vibrational            103.733             23.821             13.235
 Vibration     1          0.634              1.853              2.220
 Vibration     2          0.649              1.805              1.929
 Vibration     3          0.681              1.707              1.521
 Vibration     4          0.720              1.594              1.208
 Vibration     5          0.773              1.451              0.931
 Vibration     6          0.791              1.405              0.858
 Vibration     7          0.876              1.203              0.607
 Vibration     8          0.899              1.154              0.557
 Vibration     9          0.964              1.021              0.441

 Optimization completed.
    -- Stationary point found.
 Normal termination of Gaussian 09 at Mon Jan 27 23:58:26 2020.
