 Gaussian 09, Revision D.01,
 Gaussian 09:  ES64L-G09RevD.01 24-Apr-2013

 -----------------------------
 # b3lyp 6-31G(2df,p) opt Freq
 -----------------------------

 -----
 titel
 -----
 Symbolic Z-matrix:
 Charge =  0 Multiplicity = 1

 SCF Done:  E(RB3LYP) =  -423.151665899     A.U. after   14 cycles
 Optimization completed.
    -- Stationary point found.
 Normal termination of Gaussian 09 at Tue Jan 28 08:18:07 2020.

 ----------------------------------------------------------------------
 #N Geom=AllCheck Guess=TCheck SCRF=Check GenChk RB3LYP/6-31G(2df,p) Fr
 eq
 ----------------------------------------------------------------------

 Structure from the checkpoint file:  "/scratch/puck/g09_0dfbaa4d-8124-4659-9c77-f8b124a636e0/Gau-8479.chk"
 -----
 titel
 -----
 Charge =  0 Multiplicity = 1

                         Standard orientation:
 ---------------------------------------------------------------------
 Center     Atomic      Atomic             Coordinates (Angstroms)
 Number     Number       Type             X           Y           Z
 ---------------------------------------------------------------------
      1          8           0       -0.053540    2.682772   -0.400544
      2          6           0       -0.716353    1.576561    0.190133
      3          6           0        0.085978    0.314516   -0.129965
      4          6           0       -0.642649   -0.942417    0.379917
      5          6           0       -1.909562   -1.231826   -0.390440
      6          8           0       -2.999053   -1.391546    0.097107
      7          6           0        1.517067    0.424984    0.449086
      8          6           0        2.386852   -0.672139    0.047407
      9          6           0        3.081728   -1.589844   -0.300586
     10          1           0       -0.529748    3.484565   -0.166747
     11          1           0       -0.796175    1.692009    1.284097
     12          1           0       -1.740297    1.471836   -0.200907
     13          1           0        0.176453    0.250757   -1.222207
     14          1           0        0.026513   -1.803108    0.242384
     15          1           0       -0.885417   -0.866594    1.445213
     16          1           0       -1.762813   -1.295666   -1.495251
     17          1           0        1.941839    1.379620    0.123224
     18          1           0        1.459340    0.466952    1.545619
     19          1           0        3.712682   -2.389193   -0.601230
 ---------------------------------------------------------------------

 SCF Done:  E(RB3LYP) =  -423.151665899     A.U. after    1 cycles

 The electronic state is 1-A.
 Alpha  occ. eigenvalues --  -19.14832 -19.14041 -10.27288 -10.24000 -10.21047
 Alpha  occ. eigenvalues --  -10.21011 -10.19653 -10.18524 -10.17435  -1.04720
 Alpha  occ. eigenvalues --   -1.02969  -0.83438  -0.76513  -0.71959  -0.68991
 Alpha  occ. eigenvalues --   -0.59829  -0.57825  -0.53300  -0.52595  -0.48754
 Alpha  occ. eigenvalues --   -0.48159  -0.45012  -0.44568  -0.42843  -0.41823
 Alpha  occ. eigenvalues --   -0.39637  -0.38265  -0.36707  -0.35309  -0.33464
 Alpha  occ. eigenvalues --   -0.28385  -0.26851  -0.26537  -0.25157
 Alpha virt. eigenvalues --   -0.02319   0.04924   0.05523   0.06674   0.10502
 Alpha virt. eigenvalues --    0.10727   0.12524   0.13409   0.14667   0.15368
 Alpha virt. eigenvalues --    0.16090   0.16748   0.18069   0.19463   0.22694

 Mulliken charges:
               1
     1  O   -0.421570
     2  C   -0.092829
     3  C    0.007421
     4  C   -0.292402
     5  C    0.158521
     6  O   -0.244255
     7  C   -0.366776
     8  C    0.293677
     9  C   -0.439257
    10  H    0.292952
    11  H    0.092817
    12  H    0.102783
    13  H    0.101721
    14  H    0.138697
    15  H    0.116301
    16  H    0.074782
    17  H    0.155462
    18  H    0.125124
    19  H    0.196830
 Sum of Mulliken charges =   0.00000

 Dipole moment (field-independent basis, Debye):
    X=              1.0631    Y=              1.4193    Z=              0.2406  Tot=              1.7895
 Quadrupole moment (field-independent basis, Debye-Ang):
   XX=            -63.5859   YY=            -47.1020   ZZ=            -53.0348
   XY=             -9.0547   XZ=              0.9435   YZ=              3.9839

  Exact polarizability:  91.817  -9.628  82.159  -4.836   4.829  62.640
 Approx polarizability: 127.423 -16.696 119.346 -13.928   9.175  98.683

                      1                      2                      3
                      A                      A                      A
 Frequencies --     54.7859                68.5078                80.4380
 Red. masses --      6.1111                 3.3351                 3.4800
 Frc consts  --      0.0108                 0.0092                 0.0133
 IR Inten    --      6.1417                 3.5544                 1.9062

                      4                      5                      6
                      A                      A                      A
 Frequencies --    121.7524               146.2856               213.0890
 Red. masses --      3.0570                 3.3369                 2.2637
 Frc consts  --      0.0267                 0.0421                 0.0606
 IR Inten    --      4.0398                 3.4262                 6.1158

                      7                      8                      9
                      A                      A                      A
 Frequencies --    239.5840               259.9453               331.3206
 Red. masses --      3.6130                 1.1420                 4.1635
 Frc consts  --      0.1222                 0.0455                 0.2693
 IR Inten    --      3.0672                92.5269                 7.4456

                     10                     11                     12
                      A                      A                      A
 Frequencies --    350.5935               405.4131               463.7020
 Red. masses --      2.9801                 2.4442                 3.1556
 Frc consts  --      0.2158                 0.2367                 0.3998
 IR Inten    --      3.1292                 1.5913                 8.0651

                     13                     14                     15
                      A                      A                      A
 Frequencies --    536.9890               546.5623               617.5236
 Red. masses --      3.8300                 3.7842                 1.2039
 Frc consts  --      0.6507                 0.6661                 0.2705
 IR Inten    --     16.4316                 7.1421                44.8159

                     16                     17                     18
                      A                      A                      A
 Frequencies --    644.3114               765.9080               874.7399
 Red. masses --      1.2206                 1.7809                 2.0017
 Frc consts  --      0.2986                 0.6155                 0.9024
 IR Inten    --     42.4173                 1.4126                 0.9388

                     19                     20                     21
                      A                      A                      A
 Frequencies --    898.4254               941.1225               989.3593
 Red. masses --      1.5815                 2.0212                 2.5436
 Frc consts  --      0.7521                 1.0548                 1.4669
 IR Inten    --      2.4761                 2.9739                 6.9997

                     22                     23                     24
                      A                      A                      A
 Frequencies --   1015.7728              1068.3386              1101.8557
 Red. masses --      2.4907                 4.1633                 2.1193
 Frc consts  --      1.5141                 2.7997                 1.5160
 IR Inten    --     22.1013                72.8272                 1.9294

                     25                     26                     27
                      A                      A                      A
 Frequencies --   1109.8500              1122.1870              1193.2900
 Red. masses --      2.5783                 2.3851                 1.2917
 Frc consts  --      1.8712                 1.7697                 1.0837
 IR Inten    --     18.6934                 6.3085                31.5875

                     28                     29                     30
                      A                      A                      A
 Frequencies --   1212.7876              1259.3057              1276.8453
 Red. masses --      1.2126                 1.1583                 1.2453
 Frc consts  --      1.0509                 1.0823                 1.1962
 IR Inten    --     15.4066                20.6339                14.9206

                     31                     32                     33
                      A                      A                      A
 Frequencies --   1298.7318              1320.3673              1366.6570
 Red. masses --      1.2877                 1.2542                 1.4625
 Frc consts  --      1.2797                 1.2882                 1.6094
 IR Inten    --      5.1831                11.2024                 0.8406

                     34                     35                     36
                      A                      A                      A
 Frequencies --   1381.5353              1429.4896              1456.5275
 Red. masses --      1.4088                 1.1934                 1.2717
 Frc consts  --      1.5843                 1.4368                 1.5896
 IR Inten    --      6.0086                 3.9716                 3.6618

                     37                     38                     39
                      A                      A                      A
 Frequencies --   1466.5513              1477.3047              1517.4022
 Red. masses --      1.2227                 1.0905                 1.0839
 Frc consts  --      1.5494                 1.4023                 1.4704
 IR Inten    --      7.6564                 3.6533                 3.5831

                     40                     41                     42
                      A                      A                      A
 Frequencies --   1833.5885              2235.8067              2848.5710
 Red. masses --     10.1050                 5.9413                 1.0815
 Frc consts  --     20.0166                17.4983                 5.1706
 IR Inten    --    183.2490                 2.4756                99.1391

                     43                     44                     45
                      A                      A                      A
 Frequencies --   2963.0333              2997.5694              3014.5570
 Red. masses --      1.0585                 1.1002                 1.0691
 Frc consts  --      5.4755                 5.8246                 5.7240
 IR Inten    --     43.6429                41.8138                 5.1932

                     46                     47                     48
                      A                      A                      A
 Frequencies --   3021.7022              3035.3971              3082.9528
 Red. masses --      1.0609                 1.0824                 1.0925
 Frc consts  --      5.7071                 5.8757                 6.1181
 IR Inten    --      8.0720                32.8343                 3.1074

                     49                     50                     51
                      A                      A                      A
 Frequencies --   3087.9481              3505.6802              3835.8915
 Red. masses --      1.0998                 1.1618                 1.0665
 Frc consts  --      6.1786                 8.4124                 9.2458
 IR Inten    --     18.7834                68.9063                32.6537

 - Thermochemistry -
 -------------------
 Temperature   298.150 Kelvin.  Pressure   1.00000 Atm.
 Atom     1 has atomic number  8 and mass  15.99491

 Molecular mass:   126.06808 amu.
 Principal axes and moments of inertia in atomic units:
                           1         2         3
     Eigenvalues --  1054.553821634.830862540.62163
           X            0.99875  -0.04999   0.00172
           Y            0.04996   0.99865   0.01392
           Z           -0.00242  -0.01381   0.99990
 This molecule is an asymmetric top.
 Rotational symmetry number  1.
 Warning -- assumption of classical behavior for rotation
           may cause significant error
 Rotational temperatures (Kelvin)      0.08213     0.05298     0.03409
 Rotational constants (GHZ):           1.71138     1.10393     0.71035
 Zero-point vibrational energy     407255.8 (Joules/Mol)
                                   97.33648 (Kcal/Mol)
 Warning -- explicit consideration of  15 degrees of freedom as
           vibrations may cause significant error
 Vibrational temperatures:     78.82    98.57   115.73   175.17   210.47
          (Kelvin)            306.59   344.71   374.00   476.70   504.43
                              583.30   667.16   772.61   786.38   888.48
                              927.02  1101.97  1258.55  1292.63  1354.06
                             1423.47  1461.47  1537.10  1585.32  1596.82
                             1614.57  1716.88  1744.93  1811.86  1837.09
                             1868.58  1899.71  1966.31  1987.72  2056.71
                             2095.62  2110.04  2125.51  2183.20  2638.12
                             3216.82  4098.45  4263.14  4312.83  4337.27
                             4347.55  4367.25  4435.68  4442.86  5043.89
                             5518.99

 Zero-point correction=                           0.155116 (Hartree/Particle)
 Thermal correction to Energy=                    0.165726
 Thermal correction to Enthalpy=                  0.166670
 Thermal correction to Gibbs Free Energy=         0.118353
 Sum of electronic and zero-point Energies=           -422.996550
 Sum of electronic and thermal Energies=              -422.985940
 Sum of electronic and thermal Enthalpies=            -422.984996
 Sum of electronic and thermal Free Energies=         -423.033313

                     E (Thermal)             CV                S
                      KCal/Mol        Cal/Mol-Kelvin    Cal/Mol-Kelvin
 Total                  103.994             37.041            101.692
 Electronic               0.000              0.000              0.000
 Translational            0.889              2.981             40.409
 Rotational               0.889              2.981             29.861
 Vibrational            102.217             31.080             31.422
 Vibration     1          0.596              1.976              4.637
 Vibration     2          0.598              1.969              4.196
 Vibration     3          0.600              1.962              3.880
 Vibration     4          0.609              1.931              3.072
 Vibration     5          0.617              1.907              2.720
 Vibration     6          0.644              1.821              2.017
 Vibration     7          0.657              1.780              1.806
 Vibration     8          0.668              1.746              1.662
 Vibration     9          0.714              1.613              1.254
 Vibration    10          0.727              1.574              1.164
 Vibration    11          0.770              1.458              0.943
 Vibration    12          0.821              1.331              0.755
 Vibration    13          0.892              1.168              0.572
 Vibration    14          0.902              1.147              0.551
 Vibration    15          0.977              0.995              0.420

 Optimization completed.
    -- Stationary point found.
 Normal termination of Gaussian 09 at Tue Jan 28 08:59:03 2020.
