 Gaussian 09, Revision D.01,
 Gaussian 09:  ES64L-G09RevD.01 24-Apr-2013

 -----------------------------
 # b3lyp 6-31G(2df,p) opt Freq
 -----------------------------

 -----
 titel
 -----
 Symbolic Z-matrix:
 Charge =  0 Multiplicity = 1

 SCF Done:  E(RB3LYP) =  -423.165651681     A.U. after   14 cycles
 Optimization completed.
    -- Stationary point found.
 Normal termination of Gaussian 09 at Mon Jan 27 15:50:01 2020.

 ----------------------------------------------------------------------
 #N Geom=AllCheck Guess=TCheck SCRF=Check GenChk RB3LYP/6-31G(2df,p) Fr
 eq
 ----------------------------------------------------------------------

 Structure from the checkpoint file:  "/scratch/puck/g09_22682e59-b370-421f-b8c2-b8ed30546495/Gau-175784.chk"
 -----
 titel
 -----
 Charge =  0 Multiplicity = 1

                         Standard orientation:
 ---------------------------------------------------------------------
 Center     Atomic      Atomic             Coordinates (Angstroms)
 Number     Number       Type             X           Y           Z
 ---------------------------------------------------------------------
      1          6           0        3.550636    0.412686    0.235908
      2          6           0        2.241311   -0.297632   -0.061396
      3          8           0        2.210944   -1.393753   -0.572983
      4          6           0        0.972336    0.455202    0.315805
      5          6           0       -0.301981   -0.370665    0.157948
      6          6           0       -1.569599    0.490257    0.314252
      7          8           0       -1.594672    1.570630   -0.619636
      8          6           0       -2.780664   -0.329324    0.219420
      9          6           0       -3.761184   -1.013760    0.095806
     10          1           0        3.684932    0.506501    1.319971
     11          1           0        4.383881   -0.152967   -0.182573
     12          1           0        3.544633    1.429412   -0.171417
     13          1           0        1.080080    0.834807    1.341306
     14          1           0        0.912228    1.352016   -0.315377
     15          1           0       -0.311018   -0.849846   -0.826416
     16          1           0       -0.327887   -1.183528    0.890996
     17          1           0       -1.549319    0.979733    1.296636
     18          1           0       -1.818291    1.199277   -1.480703
     19          1           0       -4.634550   -1.610996    0.002071
 ---------------------------------------------------------------------

 SCF Done:  E(RB3LYP) =  -423.165651681     A.U. after    1 cycles

 The electronic state is 1-A.
 Alpha  occ. eigenvalues --  -19.14757 -19.12852 -10.27098 -10.26078 -10.19301
 Alpha  occ. eigenvalues --  -10.18966 -10.18927 -10.18611 -10.18193  -1.03919
 Alpha  occ. eigenvalues --   -1.02989  -0.80474  -0.76739  -0.73991  -0.69436
 Alpha  occ. eigenvalues --   -0.62155  -0.55884  -0.52392  -0.50260  -0.48629
 Alpha  occ. eigenvalues --   -0.47514  -0.45240  -0.43862  -0.42728  -0.41100
 Alpha  occ. eigenvalues --   -0.38575  -0.37701  -0.35896  -0.34815  -0.34077
 Alpha  occ. eigenvalues --   -0.29491  -0.27608  -0.26860  -0.24533
 Alpha virt. eigenvalues --   -0.00989   0.03009   0.04930   0.08606   0.09537
 Alpha virt. eigenvalues --    0.11597   0.12377   0.14520   0.15192   0.15673
 Alpha virt. eigenvalues --    0.16173   0.17196   0.18629   0.20763   0.23567

 Mulliken charges:
               1
     1  C   -0.473223
     2  C    0.372666
     3  O   -0.292255
     4  C   -0.308850
     5  C   -0.188042
     6  C   -0.070848
     7  O   -0.417252
     8  C    0.294348
     9  C   -0.432238
    10  H    0.140609
    11  H    0.142472
    12  H    0.136485
    13  H    0.113383
    14  H    0.140953
    15  H    0.120351
    16  H    0.118108
    17  H    0.115734
    18  H    0.286914
    19  H    0.200685
 Sum of Mulliken charges =   0.00000

 Dipole moment (field-independent basis, Debye):
    X=              0.0725    Y=              1.0960    Z=              0.6437  Tot=              1.2732
 Quadrupole moment (field-independent basis, Debye-Ang):
   XX=            -48.7638   YY=            -58.9263   ZZ=            -50.1385
   XY=              9.5249   XZ=              4.3829   YZ=             -1.4314

  Exact polarizability: 102.955  12.840  72.840   1.949   3.117  60.251
 Approx polarizability: 125.704  22.079 120.881   4.069   8.834  94.848

                      1                      2                      3
                      A                      A                      A
 Frequencies --     27.1973                61.7118                87.4899
 Red. masses --      3.4776                 3.4213                 3.6763
 Frc consts  --      0.0015                 0.0077                 0.0166
 IR Inten    --      5.1300                 0.3838                 2.4385

                      4                      5                      6
                      A                      A                      A
 Frequencies --    106.0564               128.7817               189.0366
 Red. masses --      1.3169                 1.8015                 3.7939
 Frc consts  --      0.0087                 0.0176                 0.0799
 IR Inten    --      1.4258                 2.4700                 2.4231

                      7                      8                      9
                      A                      A                      A
 Frequencies --    229.4255               266.2866               312.5143
 Red. masses --      3.5797                 4.1720                 1.1887
 Frc consts  --      0.1110                 0.1743                 0.0684
 IR Inten    --      7.1169                 4.7533                95.6319

                     10                     11                     12
                      A                      A                      A
 Frequencies --    364.3588               444.9285               483.8854
 Red. masses --      3.6608                 3.1549                 1.9846
 Frc consts  --      0.2863                 0.3680                 0.2738
 IR Inten    --      4.7974                10.1649                 0.1272

                     13                     14                     15
                      A                      A                      A
 Frequencies --    534.3675               569.9113               608.0094
 Red. masses --      4.2873                 4.6201                 3.8152
 Frc consts  --      0.7213                 0.8841                 0.8310
 IR Inten    --     34.2786                 9.1459                 1.7354

                     16                     17                     18
                      A                      A                      A
 Frequencies --    633.3261               674.4145               740.9005
 Red. masses --      1.2292                 1.2482                 1.3820
 Frc consts  --      0.2905                 0.3345                 0.4470
 IR Inten    --     43.7718                34.8946                 1.1614

                     19                     20                     21
                      A                      A                      A
 Frequencies --    817.0548               872.2586               933.7832
 Red. masses --      3.6758                 2.1535                 1.7129
 Frc consts  --      1.4458                 0.9653                 0.8800
 IR Inten    --      4.3558                11.0074                23.3838

                     22                     23                     24
                      A                      A                      A
 Frequencies --    951.3714              1000.2139              1068.2543
 Red. masses --      2.5242                 1.9775                 2.6285
 Frc consts  --      1.3461                 1.1656                 1.7673
 IR Inten    --     11.0891                13.5840                25.0095

                     25                     26                     27
                      A                      A                      A
 Frequencies --   1086.3764              1099.6244              1169.9019
 Red. masses --      4.4802                 2.4128                 1.5030
 Frc consts  --      3.1153                 1.7190                 1.2120
 IR Inten    --     42.7197                24.8990                38.6477

                     28                     29                     30
                      A                      A                      A
 Frequencies --   1177.0353              1267.2897              1268.8781
 Red. masses --      1.6333                 1.3257                 1.3565
 Frc consts  --      1.3332                 1.2544                 1.2868
 IR Inten    --     32.1924                 7.6054                27.5883

                     31                     32                     33
                      A                      A                      A
 Frequencies --   1323.9405              1347.2029              1381.1194
 Red. masses --      1.2006                 1.4185                 1.3110
 Frc consts  --      1.2399                 1.5169                 1.4734
 IR Inten    --      1.1531                32.8842                14.2725

                     34                     35                     36
                      A                      A                      A
 Frequencies --   1388.9917              1419.6257              1453.0445
 Red. masses --      1.6780                 1.2402                 1.0795
 Frc consts  --      1.9075                 1.4726                 1.3429
 IR Inten    --     40.2816                57.7972                 2.8682

                     37                     38                     39
                      A                      A                      A
 Frequencies --   1465.1885              1477.5757              1480.0289
 Red. masses --      1.0629                 1.0497                 1.0908
 Frc consts  --      1.3444                 1.3503                 1.4078
 IR Inten    --     14.2577                 7.4146                 7.6104

                     40                     41                     42
                      A                      A                      A
 Frequencies --   1810.5579              2233.5052              3019.7382
 Red. masses --     10.4829                 5.9048                 1.0608
 Frc consts  --     20.2469                17.3553                 5.6994
 IR Inten    --    127.0318                 0.9638                10.8620

                     43                     44                     45
                      A                      A                      A
 Frequencies --   3027.6685              3037.1365              3051.3553
 Red. masses --      1.0822                 1.0384                 1.0912
 Frc consts  --      5.8449                 5.6437                 5.9861
 IR Inten    --     16.2215                 6.9747                 5.0528

                     46                     47                     48
                      A                      A                      A
 Frequencies --   3056.4595              3097.0406              3099.0577
 Red. masses --      1.0650                 1.0989                 1.1021
 Frc consts  --      5.8621                 6.2101                 6.2366
 IR Inten    --     12.8134                 1.3516                27.8936

                     49                     50                     51
                      A                      A                      A
 Frequencies --   3152.1853              3503.0450              3802.5723
 Red. masses --      1.1020                 1.1626                 1.0661
 Frc consts  --      6.4512                 8.4056                 9.0827
 IR Inten    --     10.3928                66.0798                24.1760

 - Thermochemistry -
 -------------------
 Temperature   298.150 Kelvin.  Pressure   1.00000 Atm.
 Atom     1 has atomic number  6 and mass  12.00000

 Molecular mass:   126.06808 amu.
 Principal axes and moments of inertia in atomic units:
                           1         2         3
     Eigenvalues --   466.233812624.581722915.62212
           X            0.99975   0.02111   0.00780
           Y           -0.02116   0.99976   0.00510
           Z           -0.00769  -0.00526   0.99996
 This molecule is an asymmetric top.
 Rotational symmetry number  1.
 Warning -- assumption of classical behavior for rotation
           may cause significant error
 Rotational temperatures (Kelvin)      0.18577     0.03300     0.02971
 Rotational constants (GHZ):           3.87089     0.68763     0.61899
 Zero-point vibrational energy     405544.1 (Joules/Mol)
                                   96.92737 (Kcal/Mol)
 Warning -- explicit consideration of  15 degrees of freedom as
           vibrations may cause significant error
 Vibrational temperatures:     39.13    88.79   125.88   152.59   185.29
          (Kelvin)            271.98   330.09   383.13   449.64   524.23
                              640.15   696.20   768.83   819.97   874.79
                              911.21   970.33  1065.99  1175.56  1254.98
                             1343.50  1368.81  1439.08  1536.98  1563.05
                             1582.11  1683.23  1693.49  1823.35  1825.63
                             1904.85  1938.32  1987.12  1998.45  2042.52
                             2090.60  2108.08  2125.90  2129.43  2604.99
                             3213.51  4344.72  4356.13  4369.76  4390.21
                             4397.56  4455.95  4458.85  4535.29  5040.09
                             5471.05

 Zero-point correction=                           0.154464 (Hartree/Particle)
 Thermal correction to Energy=                    0.165333
 Thermal correction to Enthalpy=                  0.166277
 Thermal correction to Gibbs Free Energy=         0.116901
 Sum of electronic and zero-point Energies=           -423.011188
 Sum of electronic and thermal Energies=              -423.000319
 Sum of electronic and thermal Enthalpies=            -422.999375
 Sum of electronic and thermal Free Energies=         -423.048751

                     E (Thermal)             CV                S
                      KCal/Mol        Cal/Mol-Kelvin    Cal/Mol-Kelvin
 Total                  103.748             37.896            103.921
 Electronic               0.000              0.000              0.000
 Translational            0.889              2.981             40.409
 Rotational               0.889              2.981             29.657
 Vibrational            101.970             31.935             33.855
 Vibration     1          0.593              1.984              6.024
 Vibration     2          0.597              1.973              4.402
 Vibration     3          0.601              1.958              3.715
 Vibration     4          0.605              1.944              3.340
 Vibration     5          0.611              1.924              2.964
 Vibration     6          0.633              1.855              2.237
 Vibration     7          0.652              1.796              1.883
 Vibration     8          0.672              1.735              1.620
 Vibration     9          0.701              1.650              1.349
 Vibration    10          0.738              1.546              1.103
 Vibration    11          0.804              1.372              0.811
 Vibration    12          0.840              1.286              0.700
 Vibration    13          0.889              1.174              0.578
 Vibration    14          0.926              1.096              0.504
 Vibration    15          0.967              1.015              0.436

 Optimization completed.
    -- Stationary point found.
 Normal termination of Gaussian 09 at Mon Jan 27 16:23:32 2020.
