 Gaussian 09, Revision D.01,
 Gaussian 09:  ES64L-G09RevD.01 24-Apr-2013

 -----------------------------
 # b3lyp 6-31G(2df,p) opt Freq
 -----------------------------

 -----
 titel
 -----
 Symbolic Z-matrix:
 Charge =  0 Multiplicity = 1

 SCF Done:  E(RB3LYP) =  -423.156310450     A.U. after   14 cycles
 Optimization completed.
    -- Stationary point found.
 Normal termination of Gaussian 09 at Tue Jan 28 14:08:54 2020.

 ----------------------------------------------------------------------
 #N Geom=AllCheck Guess=TCheck SCRF=Check GenChk RB3LYP/6-31G(2df,p) Fr
 eq
 ----------------------------------------------------------------------

 Structure from the checkpoint file:  "/scratch/puck/g09_82f0a2c1-85a1-492c-8b23-e2aa8b919a63/Gau-91400.chk"
 -----
 titel
 -----
 Charge =  0 Multiplicity = 1

                         Standard orientation:
 ---------------------------------------------------------------------
 Center     Atomic      Atomic             Coordinates (Angstroms)
 Number     Number       Type             X           Y           Z
 ---------------------------------------------------------------------
      1          6           0       -2.809431   -0.812647   -0.076505
      2          8           0       -1.918586    0.253672    0.180978
      3          6           0       -0.630274    0.032707   -0.307251
      4          6           0        0.348095   -0.838507    0.560007
      5          6           0        1.378607   -1.652901   -0.255916
      6          6           0        2.305449   -0.402508   -0.333796
      7          6           0        1.355634    0.373579    0.641441
      8          6           0        0.308521    1.246580   -0.045863
      9          8           0        0.173665    2.423864   -0.201299
     10          1           0       -2.491698   -1.743591    0.415451
     11          1           0       -3.784264   -0.519023    0.319092
     12          1           0       -2.902132   -1.004953   -1.156376
     13          1           0       -0.653567   -0.280927   -1.365597
     14          1           0       -0.113818   -1.278965    1.443010
     15          1           0        1.827248   -2.468524    0.316187
     16          1           0        1.022392   -2.060658   -1.207001
     17          1           0        3.306945   -0.554856    0.071893
     18          1           0        2.408320    0.049148   -1.323807
     19          1           0        1.800338    0.764248    1.557017
 ---------------------------------------------------------------------

 SCF Done:  E(RB3LYP) =  -423.156310450     A.U. after    1 cycles

 The electronic state is 1-A.
 Alpha  occ. eigenvalues --  -19.15209 -19.13766 -10.26496 -10.23868 -10.23125
 Alpha  occ. eigenvalues --  -10.19916 -10.19689 -10.19554 -10.19351  -1.05283
 Alpha  occ. eigenvalues --   -1.03792  -0.87659  -0.75369  -0.69590  -0.67571
 Alpha  occ. eigenvalues --   -0.61847  -0.57046  -0.52653  -0.51279  -0.48800
 Alpha  occ. eigenvalues --   -0.46956  -0.45531  -0.44275  -0.43225  -0.40712
 Alpha  occ. eigenvalues --   -0.39778  -0.37383  -0.35618  -0.34656  -0.32802
 Alpha  occ. eigenvalues --   -0.31565  -0.30202  -0.25850  -0.23863
 Alpha virt. eigenvalues --   -0.02817   0.08059   0.08779   0.09668   0.10952
 Alpha virt. eigenvalues --    0.13280   0.13967   0.14655   0.15238   0.16137
 Alpha virt. eigenvalues --    0.17123   0.18303   0.19033   0.20436   0.21572

 Mulliken charges:
               1
     1  C   -0.237215
     2  O   -0.237201
     3  C    0.016638
     4  C   -0.066372
     5  C   -0.228274
     6  C   -0.236897
     7  C   -0.154941
     8  C    0.384223
     9  O   -0.292269
    10  H    0.108990
    11  H    0.134660
    12  H    0.109762
    13  H    0.080482
    14  H    0.083469
    15  H    0.108126
    16  H    0.099997
    17  H    0.118023
    18  H    0.115072
    19  H    0.093727
 Sum of Mulliken charges =   0.00000

 Dipole moment (field-independent basis, Debye):
    X=              0.6158    Y=             -3.7261    Z=             -0.0328  Tot=              3.7768
 Quadrupole moment (field-independent basis, Debye-Ang):
   XX=            -48.7135   YY=            -60.8659   ZZ=            -51.5177
   XY=              2.1957   XZ=              1.1766   YZ=              0.5816

  Exact polarizability:  87.820   0.059  78.551   1.291   0.032  63.037
 Approx polarizability: 111.292  -1.939 120.252   1.485  -1.111  97.567

                      1                      2                      3
                      A                      A                      A
 Frequencies --     49.6777                96.1397               147.0359
 Red. masses --      2.8223                 2.8279                 4.4098
 Frc consts  --      0.0041                 0.0154                 0.0562
 IR Inten    --      1.2488                 1.9768                 0.5499

                      4                      5                      6
                      A                      A                      A
 Frequencies --    183.2349               188.3978               281.5880
 Red. masses --      1.3476                 1.8202                 3.0978
 Frc consts  --      0.0267                 0.0381                 0.1447
 IR Inten    --      0.5833                 0.2436                 4.4246

                      7                      8                      9
                      A                      A                      A
 Frequencies --    309.5169               401.8841               455.3220
 Red. masses --      4.0117                 4.4000                 4.1327
 Frc consts  --      0.2264                 0.4187                 0.5048
 IR Inten    --      2.1065                 2.7525                 2.9388

                     10                     11                     12
                      A                      A                      A
 Frequencies --    605.3245               686.3081               756.4764
 Red. masses --      4.1090                 2.2173                 1.6640
 Frc consts  --      0.8871                 0.6153                 0.5610
 IR Inten    --      2.9259                 1.3865                 2.6957

                     13                     14                     15
                      A                      A                      A
 Frequencies --    783.4077               832.5544               837.7655
 Red. masses --      2.7426                 2.1939                 3.2601
 Frc consts  --      0.9917                 0.8960                 1.3481
 IR Inten    --     11.9805                 1.6640                 1.6675

                     16                     17                     18
                      A                      A                      A
 Frequencies --    871.8570               926.6610               957.1896
 Red. masses --      2.2297                 1.9611                 2.7799
 Frc consts  --      0.9986                 0.9922                 1.5006
 IR Inten    --      5.0651                21.8159                 0.5834

                     19                     20                     21
                      A                      A                      A
 Frequencies --    985.8696              1015.2451              1048.0585
 Red. masses --      2.5392                 2.8178                 3.4834
 Frc consts  --      1.4540                 1.7112                 2.2544
 IR Inten    --     13.6833                14.0558                43.6140

                     22                     23                     24
                      A                      A                      A
 Frequencies --   1084.1943              1090.4699              1149.7128
 Red. masses --      1.8954                 1.7149                 2.2561
 Frc consts  --      1.3127                 1.2015                 1.7570
 IR Inten    --      7.6015                13.0524                78.0392

                     25                     26                     27
                      A                      A                      A
 Frequencies --   1168.9997              1180.2640              1193.1951
 Red. masses --      1.8901                 1.3089                 1.4438
 Frc consts  --      1.5218                 1.0743                 1.2111
 IR Inten    --     45.1739                 4.6830                 1.8738

                     28                     29                     30
                      A                      A                      A
 Frequencies --   1215.5017              1223.3275              1244.7929
 Red. masses --      1.4279                 1.8449                 1.4543
 Frc consts  --      1.2430                 1.6267                 1.3277
 IR Inten    --      5.6876                44.8276                 1.5642

                     31                     32                     33
                      A                      A                      A
 Frequencies --   1245.5792              1265.4009              1281.0538
 Red. masses --      1.5175                 1.5708                 1.5163
 Frc consts  --      1.3872                 1.4819                 1.4661
 IR Inten    --     16.1603                 0.6840                 0.4966

                     34                     35                     36
                      A                      A                      A
 Frequencies --   1289.0936              1372.5702              1478.4836
 Red. masses --      1.4658                 1.3960                 1.1244
 Frc consts  --      1.4352                 1.5496                 1.4482
 IR Inten    --      4.0184                16.9520                 1.1173

                     37                     38                     39
                      A                      A                      A
 Frequencies --   1478.9404              1487.2988              1495.1346
 Red. masses --      1.0854                 1.0744                 1.1068
 Frc consts  --      1.3988                 1.4002                 1.4578
 IR Inten    --      1.2727                 3.8307                 1.9653

                     40                     41                     42
                      A                      A                      A
 Frequencies --   1506.4553              1890.7176              2948.8000
 Red. masses --      1.0571                12.7102                 1.0808
 Frc consts  --      1.4135                26.7705                 5.5369
 IR Inten    --      7.3909               253.1955                33.3928

                     43                     44                     45
                      A                      A                      A
 Frequencies --   2980.6837              3030.7345              3050.8359
 Red. masses --      1.0369                 1.1032                 1.0601
 Frc consts  --      5.4280                 5.9701                 5.8135
 IR Inten    --     53.1712                47.4035                40.2544

                     46                     47                     48
                      A                      A                      A
 Frequencies --   3067.6124              3097.7551              3110.5511
 Red. masses --      1.0607                 1.1045                 1.0908
 Frc consts  --      5.8807                 6.2446                 6.2186
 IR Inten    --     36.0827                 6.9140                11.7612

                     49                     50                     51
                      A                      A                      A
 Frequencies --   3119.6589              3121.4591              3127.7602
 Red. masses --      1.0945                 1.0970                 1.1003
 Frc consts  --      6.2761                 6.2977                 6.3420
 IR Inten    --     24.2524                20.1906                35.9282

 - Thermochemistry -
 -------------------
 Temperature   298.150 Kelvin.  Pressure   1.00000 Atm.
 Atom     1 has atomic number  6 and mass  12.00000

 Molecular mass:   126.06808 amu.
 Principal axes and moments of inertia in atomic units:
                           1         2         3
     Eigenvalues --   741.854061245.879131812.16406
           X            0.99983   0.01797   0.00351
           Y           -0.01800   0.99978   0.01048
           Z           -0.00332  -0.01054   0.99994
 This molecule is an asymmetric top.
 Rotational symmetry number  1.
 Warning -- assumption of classical behavior for rotation
           may cause significant error
 Rotational temperatures (Kelvin)      0.11675     0.06952     0.04780
 Rotational constants (GHZ):           2.43274     1.44857     0.99590
 Zero-point vibrational energy     415203.2 (Joules/Mol)
                                   99.23594 (Kcal/Mol)
 Warning -- explicit consideration of  10 degrees of freedom as
           vibrations may cause significant error
 Vibrational temperatures:     71.48   138.32   211.55   263.63   271.06
          (Kelvin)            405.14   445.33   578.22   655.11   870.93
                              987.44  1088.40  1127.15  1197.86  1205.36
                             1254.41  1333.26  1377.18  1418.44  1460.71
                             1507.92  1559.91  1568.94  1654.18  1681.93
                             1698.13  1716.74  1748.83  1760.09  1790.98
                             1792.11  1820.63  1843.15  1854.72  1974.82
                             2127.21  2127.86  2139.89  2151.16  2167.45
                             2720.32  4242.66  4288.53  4360.55  4389.47
                             4413.60  4456.97  4475.38  4488.49  4491.08
                             4500.14

 Zero-point correction=                           0.158143 (Hartree/Particle)
 Thermal correction to Energy=                    0.166889
 Thermal correction to Enthalpy=                  0.167834
 Thermal correction to Gibbs Free Energy=         0.123916
 Sum of electronic and zero-point Energies=           -422.998168
 Sum of electronic and thermal Energies=              -422.989421
 Sum of electronic and thermal Enthalpies=            -422.988477
 Sum of electronic and thermal Free Energies=         -423.032395

                     E (Thermal)             CV                S
                      KCal/Mol        Cal/Mol-Kelvin    Cal/Mol-Kelvin
 Total                  104.725             31.892             92.433
 Electronic               0.000              0.000              0.000
 Translational            0.889              2.981             40.409
 Rotational               0.889              2.981             28.906
 Vibrational            102.947             25.930             23.118
 Vibration     1          0.595              1.978              4.830
 Vibration     2          0.603              1.952              3.531
 Vibration     3          0.617              1.906              2.710
 Vibration     4          0.631              1.863              2.295
 Vibration     5          0.633              1.856              2.244
 Vibration     6          0.681              1.708              1.524
 Vibration     7          0.699              1.656              1.365
 Vibration     8          0.767              1.466              0.956
 Vibration     9          0.814              1.349              0.780
 Vibration    10          0.964              1.021              0.441

 Normal termination of Gaussian 09 at Tue Jan 28 14:53:05 2020.
