 Gaussian 09, Revision D.01,
 Gaussian 09:  ES64L-G09RevD.01 24-Apr-2013

 -----------------------------
 # b3lyp 6-31G(2df,p) opt Freq
 -----------------------------

 -----
 titel
 -----
 Symbolic Z-matrix:
 Charge =  0 Multiplicity = 1

 SCF Done:  E(RB3LYP) =  -423.164021091     A.U. after   15 cycles
 Optimization completed.
    -- Stationary point found.
 Normal termination of Gaussian 09 at Tue Jan 28 08:10:02 2020.

 ----------------------------------------------------------------------
 #N Geom=AllCheck Guess=TCheck SCRF=Check GenChk RB3LYP/6-31G(2df,p) Fr
 eq
 ----------------------------------------------------------------------

 Structure from the checkpoint file:  "/scratch/puck/g09_37031aee-0a14-4ad1-ad3b-95a33b616ca8/Gau-128031.chk"
 -----
 titel
 -----
 Charge =  0 Multiplicity = 1

                         Standard orientation:
 ---------------------------------------------------------------------
 Center     Atomic      Atomic             Coordinates (Angstroms)
 Number     Number       Type             X           Y           Z
 ---------------------------------------------------------------------
      1          6           0       -2.227161   -0.975816   -0.669567
      2          6           0       -0.780269   -0.496160   -0.517015
      3          6           0        0.096422   -1.622246    0.104778
      4          6           0        1.508321   -1.280941    0.248989
      5          6           0        2.670380   -0.989746    0.371558
      6          6           0       -0.712934    0.732143    0.399703
      7          8           0       -1.378904    0.808373    1.406430
      8          6           0        0.232510    1.878667    0.016321
      9          8           0        1.122799    1.611287   -1.040788
     10          1           0       -2.270935   -1.896251   -1.260001
     11          1           0       -2.672503   -1.161278    0.311224
     12          1           0       -2.836016   -0.221279   -1.175768
     13          1           0       -0.354500   -0.228651   -1.487124
     14          1           0       -0.315494   -1.875486    1.089510
     15          1           0        0.004112   -2.519645   -0.518530
     16          1           0        3.702336   -0.769932    0.497696
     17          1           0       -0.401727    2.714893   -0.304253
     18          1           0        0.738659    2.203544    0.936856
     19          1           0        1.731301    0.921392   -0.743342
 ---------------------------------------------------------------------

 SCF Done:  E(RB3LYP) =  -423.164021091     A.U. after    1 cycles

 The electronic state is 1-A.
 Alpha  occ. eigenvalues --  -19.14049 -19.13339 -10.26847 -10.23498 -10.22569
 Alpha  occ. eigenvalues --  -10.20579 -10.20551 -10.19308 -10.18391  -1.04610
 Alpha  occ. eigenvalues --   -1.02227  -0.82981  -0.76700  -0.71571  -0.70476
 Alpha  occ. eigenvalues --   -0.63708  -0.55117  -0.53525  -0.51479  -0.49162
 Alpha  occ. eigenvalues --   -0.47320  -0.45114  -0.43918  -0.43179  -0.41794
 Alpha  occ. eigenvalues --   -0.38293  -0.37667  -0.36537  -0.35400  -0.33846
 Alpha  occ. eigenvalues --   -0.29501  -0.28627  -0.28455  -0.23785
 Alpha virt. eigenvalues --   -0.02358   0.02785   0.04082   0.09000   0.10332
 Alpha virt. eigenvalues --    0.11385   0.13027   0.13544   0.14957   0.16467
 Alpha virt. eigenvalues --    0.17341   0.18203   0.19220   0.20611   0.22314

 Mulliken charges:
               1
     1  C   -0.400836
     2  C   -0.093164
     3  C   -0.351371
     4  C    0.298676
     5  C   -0.448284
     6  C    0.342274
     7  O   -0.316600
     8  C   -0.162140
     9  O   -0.409718
    10  H    0.112356
    11  H    0.141238
    12  H    0.122645
    13  H    0.110653
    14  H    0.153221
    15  H    0.138074
    16  H    0.208281
    17  H    0.139770
    18  H    0.124168
    19  H    0.290758
 Sum of Mulliken charges =   0.00000

 Dipole moment (field-independent basis, Debye):
    X=              0.9922    Y=             -1.4721    Z=             -0.8004  Tot=              1.9474
 Quadrupole moment (field-independent basis, Debye-Ang):
   XX=            -49.7968   YY=            -52.5992   ZZ=            -58.5687
   XY=              0.7812   XZ=              5.4959   YZ=              0.9799

  Exact polarizability:  94.195   3.831  74.724   1.941   1.796  62.317
 Approx polarizability: 140.075   8.947 102.258  -2.882   1.905 101.147

                      1                      2                      3
                      A                      A                      A
 Frequencies --     52.9032                73.5604               115.1055
 Red. masses --      4.5759                 2.6850                 2.8707
 Frc consts  --      0.0075                 0.0086                 0.0224
 IR Inten    --      5.5639                 1.9999                 1.2284

                      4                      5                      6
                      A                      A                      A
 Frequencies --    150.9127               198.2343               214.2197
 Red. masses --      4.3071                 2.6425                 1.4340
 Frc consts  --      0.0578                 0.0612                 0.0388
 IR Inten    --      1.5793                 1.0217                 1.5109

                      7                      8                      9
                      A                      A                      A
 Frequencies --    236.7006               283.5394               351.5017
 Red. masses --      2.8457                 3.2086                 2.9978
 Frc consts  --      0.0939                 0.1520                 0.2182
 IR Inten    --      0.6891                 4.6451                 4.0862

                     10                     11                     12
                      A                      A                      A
 Frequencies --    361.6524               475.1581               514.0412
 Red. masses --      3.6590                 3.2118                 6.3208
 Frc consts  --      0.2820                 0.4272                 0.9840
 IR Inten    --      8.0814                18.1127                 4.1051

                     13                     14                     15
                      A                      A                      A
 Frequencies --    521.9239               571.3690               621.0912
 Red. masses --      1.3341                 2.6929                 1.4346
 Frc consts  --      0.2141                 0.5180                 0.3260
 IR Inten    --     59.9191                26.5362                38.8365

                     16                     17                     18
                      A                      A                      A
 Frequencies --    624.2718               658.2941               716.9244
 Red. masses --      2.1731                 1.2107                 2.8270
 Frc consts  --      0.4990                 0.3091                 0.8561
 IR Inten    --      9.1949                66.3078                 1.3649

                     19                     20                     21
                      A                      A                      A
 Frequencies --    878.6280               912.9610               957.6633
 Red. masses --      1.9115                 1.7298                 1.9783
 Frc consts  --      0.8695                 0.8495                 1.0690
 IR Inten    --      2.9083                 1.8032                10.0382

                     22                     23                     24
                      A                      A                      A
 Frequencies --    972.6887              1054.2334              1085.6103
 Red. masses --      3.4825                 2.6530                 2.1691
 Frc consts  --      1.9413                 1.7372                 1.5062
 IR Inten    --      0.6181                16.4846                 2.3114

                     25                     26                     27
                      A                      A                      A
 Frequencies --   1105.1966              1116.4649              1150.1377
 Red. masses --      5.1558                 1.8266                 2.3202
 Frc consts  --      3.7104                 1.3415                 1.8083
 IR Inten    --     52.2322                 8.6466                41.5236

                     28                     29                     30
                      A                      A                      A
 Frequencies --   1209.6954              1227.8479              1304.7279
 Red. masses --      1.2057                 1.2037                 1.3003
 Frc consts  --      1.0396                 1.0692                 1.3041
 IR Inten    --     20.1608                10.3712                 4.4157

                     31                     32                     33
                      A                      A                      A
 Frequencies --   1349.7691              1357.9726              1378.5854
 Red. masses --      1.3021                 1.2831                 1.5890
 Frc consts  --      1.3977                 1.3940                 1.7792
 IR Inten    --      9.0297                 3.2469                20.0071

                     34                     35                     36
                      A                      A                      A
 Frequencies --   1406.7517              1423.8319              1458.0575
 Red. masses --      1.2195                 1.1960                 1.0697
 Frc consts  --      1.4219                 1.4286                 1.3399
 IR Inten    --      6.7495                26.5850                 6.5797

                     37                     38                     39
                      A                      A                      A
 Frequencies --   1468.0169              1491.0748              1502.0104
 Red. masses --      1.0900                 1.0453                 1.0535
 Frc consts  --      1.3839                 1.3693                 1.4003
 IR Inten    --      2.1826                 6.2499                 7.5971

                     40                     41                     42
                      A                      A                      A
 Frequencies --   1807.2068              2223.6504              3006.5351
 Red. masses --     11.5144                 5.9519                 1.0626
 Frc consts  --     22.1567                17.3395                 5.6591
 IR Inten    --    109.6573                 3.8952                27.7254

                     43                     44                     45
                      A                      A                      A
 Frequencies --   3028.2544              3042.6394              3059.0955
 Red. masses --      1.0575                 1.0353                 1.0981
 Frc consts  --      5.7134                 5.6471                 6.0546
 IR Inten    --      9.4038                24.7915                12.7088

                     46                     47                     48
                      A                      A                      A
 Frequencies --   3064.4460              3089.6809              3111.0818
 Red. masses --      1.1000                 1.0868                 1.1017
 Frc consts  --      6.0863                 6.1128                 6.2828
 IR Inten    --      2.8926                 3.6516                20.8557

                     49                     50                     51
                      A                      A                      A
 Frequencies --   3128.2755              3497.7042              3742.0108
 Red. masses --      1.1009                 1.1611                 1.0661
 Frc consts  --      6.3475                 8.3692                 8.7956
 IR Inten    --     14.5812                78.9301               135.4568

 - Thermochemistry -
 -------------------
 Temperature   298.150 Kelvin.  Pressure   1.00000 Atm.
 Atom     1 has atomic number  6 and mass  12.00000

 Molecular mass:   126.06808 amu.
 Principal axes and moments of inertia in atomic units:
                           1         2         3
     Eigenvalues --   986.690881238.218881723.18717
           X            0.99308   0.11231   0.03430
           Y           -0.11295   0.99345   0.01737
           Z           -0.03212  -0.02112   0.99926
 This molecule is an asymmetric top.
 Rotational symmetry number  1.
 Warning -- assumption of classical behavior for rotation
           may cause significant error
 Rotational temperatures (Kelvin)      0.08778     0.06995     0.05026
 Rotational constants (GHZ):           1.82908     1.45753     1.04733
 Zero-point vibrational energy     408847.2 (Joules/Mol)
                                   97.71682 (Kcal/Mol)
 Warning -- explicit consideration of  14 degrees of freedom as
           vibrations may cause significant error
 Vibrational temperatures:     76.12   105.84   165.61   217.13   285.21
          (Kelvin)            308.21   340.56   407.95   505.73   520.34
                              683.65   739.59   750.93   822.07   893.61
                              898.19   947.14  1031.49  1264.15  1313.55
                             1377.86  1399.48  1516.80  1561.95  1590.13
                             1606.34  1654.79  1740.48  1766.60  1877.21
                             1942.01  1953.82  1983.47  2024.00  2048.57
                             2097.82  2112.15  2145.32  2161.06  2600.16
                             3199.33  4325.73  4356.98  4377.67  4401.35
                             4409.05  4445.36  4476.15  4500.89  5032.41
                             5383.91

 Zero-point correction=                           0.155722 (Hartree/Particle)
 Thermal correction to Energy=                    0.166073
 Thermal correction to Enthalpy=                  0.167017
 Thermal correction to Gibbs Free Energy=         0.120022
 Sum of electronic and zero-point Energies=           -423.008299
 Sum of electronic and thermal Energies=              -422.997948
 Sum of electronic and thermal Enthalpies=            -422.997004
 Sum of electronic and thermal Free Energies=         -423.043999

                     E (Thermal)             CV                S
                      KCal/Mol        Cal/Mol-Kelvin    Cal/Mol-Kelvin
 Total                  104.212             37.201             98.908
 Electronic               0.000              0.000              0.000
 Translational            0.889              2.981             40.409
 Rotational               0.889              2.981             29.133
 Vibrational            102.435             31.240             29.366
 Vibration     1          0.596              1.976              4.706
 Vibration     2          0.599              1.966              4.056
 Vibration     3          0.608              1.937              3.181
 Vibration     4          0.618              1.902              2.661
 Vibration     5          0.637              1.842              2.149
 Vibration     6          0.644              1.819              2.007
 Vibration     7          0.656              1.785              1.828
 Vibration     8          0.682              1.704              1.512
 Vibration     9          0.728              1.572              1.159
 Vibration    10          0.736              1.551              1.115
 Vibration    11          0.832              1.305              0.723
 Vibration    12          0.869              1.219              0.624
 Vibration    13          0.877              1.201              0.606
 Vibration    14          0.928              1.093              0.502

 Optimization completed.
    -- Stationary point found.
 Normal termination of Gaussian 09 at Tue Jan 28 08:50:41 2020.
