 Gaussian 09, Revision D.01,
 Gaussian 09:  ES64L-G09RevD.01 24-Apr-2013

 -----------------------------
 # b3lyp 6-31G(2df,p) opt Freq
 -----------------------------

 -----
 titel
 -----
 Symbolic Z-matrix:
 Charge =  0 Multiplicity = 1

 SCF Done:  E(RB3LYP) =  -423.203861940     A.U. after   13 cycles
 Optimization completed.
    -- Stationary point found.
 Normal termination of Gaussian 09 at Mon Jan 27 12:23:14 2020.

 ----------------------------------------------------------------------
 #N Geom=AllCheck Guess=TCheck SCRF=Check GenChk RB3LYP/6-31G(2df,p) Fr
 eq
 ----------------------------------------------------------------------

 Structure from the checkpoint file:  "/scratch/puck/g09_ab7ad0f6-d02a-4c3a-94b0-303caeff5d6a/Gau-52480.chk"
 -----
 titel
 -----
 Charge =  0 Multiplicity = 1

                         Standard orientation:
 ---------------------------------------------------------------------
 Center     Atomic      Atomic             Coordinates (Angstroms)
 Number     Number       Type             X           Y           Z
 ---------------------------------------------------------------------
      1          6           0       -1.334952    0.649758   -0.925262
      2          8           0       -1.251590   -0.767423   -0.871175
      3          6           0       -0.690997   -1.139284    0.378063
      4          6           0        0.747693   -1.625057    0.208344
      5          6           0        1.749812   -0.640152   -0.338093
      6          6           0        1.744443    0.693879   -0.313560
      7          6           0        0.728065    1.641505    0.273385
      8          6           0       -0.708775    1.132847    0.399783
      9          8           0       -0.802703   -0.022117    1.230675
     10          1           0       -0.791692    1.022320   -1.800961
     11          1           0       -2.387099    0.949500   -1.006762
     12          1           0       -1.301262   -1.942963    0.809795
     13          1           0        1.096808   -1.993234    1.184610
     14          1           0        0.714502   -2.504309   -0.446834
     15          1           0        2.621912   -1.113109   -0.786397
     16          1           0        2.612990    1.192158   -0.740662
     17          1           0        1.068404    1.952999    1.271743
     18          1           0        0.705947    2.561385   -0.326796
     19          1           0       -1.317893    1.910604    0.870288
 ---------------------------------------------------------------------

 SCF Done:  E(RB3LYP) =  -423.203861940     A.U. after    1 cycles

 The electronic state is 1-A.
 Alpha  occ. eigenvalues --  -19.14393 -19.13783 -10.27354 -10.23741 -10.22804
 Alpha  occ. eigenvalues --  -10.18929 -10.18379 -10.18347 -10.18272  -1.08370
 Alpha  occ. eigenvalues --   -0.98936  -0.80466  -0.79582  -0.70012  -0.69011
 Alpha  occ. eigenvalues --   -0.62301  -0.58470  -0.52526  -0.52233  -0.48806
 Alpha  occ. eigenvalues --   -0.46268  -0.45363  -0.43120  -0.42631  -0.40209
 Alpha  occ. eigenvalues --   -0.39271  -0.38328  -0.37395  -0.33920  -0.32929
 Alpha  occ. eigenvalues --   -0.31999  -0.26512  -0.24988  -0.24160
 Alpha virt. eigenvalues --    0.02147   0.08126   0.11420   0.11718   0.12699
 Alpha virt. eigenvalues --    0.13459   0.14457   0.15925   0.16453   0.17644
 Alpha virt. eigenvalues --    0.18112   0.18513   0.19548   0.20610   0.22877

 Mulliken charges:
               1
     1  C   -0.095431
     2  O   -0.269958
     3  C    0.198760
     4  C   -0.275324
     5  C   -0.044213
     6  C   -0.057426
     7  C   -0.267644
     8  C    0.062645
     9  O   -0.258272
    10  H    0.107165
    11  H    0.101255
    12  H    0.084940
    13  H    0.116504
    14  H    0.113710
    15  H    0.087381
    16  H    0.085247
    17  H    0.121316
    18  H    0.103636
    19  H    0.085709
 Sum of Mulliken charges =   0.00000

 Dipole moment (field-independent basis, Debye):
    X=              0.7323    Y=              1.0054    Z=             -0.1687  Tot=              1.2552
 Quadrupole moment (field-independent basis, Debye-Ang):
   XX=            -53.1139   YY=            -48.1036   ZZ=            -56.3252
   XY=             -2.0179   XZ=             -0.5452   YZ=             -1.8492

  Exact polarizability:  74.545  -1.907  90.390  -2.527  -2.175  61.081
 Approx polarizability:  98.849  -1.359 137.422  -3.447  -2.156  96.121

                      1                      2                      3
                      A                      A                      A
 Frequencies --    101.9311               124.7246               277.8949
 Red. masses --      3.3313                 2.2611                 4.3360
 Frc consts  --      0.0204                 0.0207                 0.1973
 IR Inten    --      3.1320                 0.8712                 2.7374

                      4                      5                      6
                      A                      A                      A
 Frequencies --    314.0376               363.9199               394.0023
 Red. masses --      2.3254                 2.9135                 2.6195
 Frc consts  --      0.1351                 0.2273                 0.2396
 IR Inten    --      1.5724                 2.0275                 0.1627

                      7                      8                      9
                      A                      A                      A
 Frequencies --    451.9918               595.5634               689.0209
 Red. masses --      3.6173                 2.9875                 1.4813
 Frc consts  --      0.4354                 0.6243                 0.4143
 IR Inten    --      0.2197                 5.3057                21.6265

                     10                     11                     12
                      A                      A                      A
 Frequencies --    731.4014               767.3537               817.2574
 Red. masses --      5.4949                 3.5941                 3.7983
 Frc consts  --      1.7319                 1.2469                 1.4947
 IR Inten    --      1.5154                 4.9205                 0.8423

                     13                     14                     15
                      A                      A                      A
 Frequencies --    833.0593               861.5450               887.5870
 Red. masses --      4.5560                 3.1813                 2.6435
 Frc consts  --      1.8629                 1.3913                 1.2270
 IR Inten    --      7.2257                24.5564                24.5835

                     16                     17                     18
                      A                      A                      A
 Frequencies --    916.8081               943.5180               993.3881
 Red. masses --      2.4637                 3.2302                 1.7536
 Frc consts  --      1.2201                 1.6943                 1.0196
 IR Inten    --      9.1035                17.0820                11.0967

                     19                     20                     21
                      A                      A                      A
 Frequencies --    997.0790              1021.3775              1043.6288
 Red. masses --      1.7043                 1.6448                 2.9446
 Frc consts  --      0.9983                 1.0110                 1.8896
 IR Inten    --     13.2060                 0.2144                46.4236

                     22                     23                     24
                      A                      A                      A
 Frequencies --   1061.8662              1080.2789              1112.0182
 Red. masses --      2.7581                 2.3569                 2.0372
 Frc consts  --      1.8323                 1.6206                 1.4843
 IR Inten    --     24.6314                10.8633                 8.5950

                     25                     26                     27
                      A                      A                      A
 Frequencies --   1170.0120              1214.0704              1232.4771
 Red. masses --      3.7815                 1.1258                 1.1053
 Frc consts  --      3.0500                 0.9777                 0.9892
 IR Inten    --    121.6958                11.3574                10.6757

                     28                     29                     30
                      A                      A                      A
 Frequencies --   1239.1005              1256.6271              1319.6750
 Red. masses --      1.1572                 1.1222                 1.2457
 Frc consts  --      1.0468                 1.0441                 1.2782
 IR Inten    --     25.7289                 5.6686                 0.1111

                     31                     32                     33
                      A                      A                      A
 Frequencies --   1350.6344              1358.1874              1372.1564
 Red. masses --      1.6620                 1.3899                 1.6262
 Frc consts  --      1.7863                 1.5106                 1.8040
 IR Inten    --      1.7461                 4.2048                18.6424

                     34                     35                     36
                      A                      A                      A
 Frequencies --   1384.6638              1399.4162              1420.5893
 Red. masses --      1.3891                 1.3409                 1.3845
 Frc consts  --      1.5692                 1.5472                 1.6462
 IR Inten    --      4.9595                 5.9732                 4.7691

                     37                     38                     39
                      A                      A                      A
 Frequencies --   1440.9978              1454.5871              1461.9875
 Red. masses --      1.3843                 1.1054                 1.0906
 Frc consts  --      1.6936                 1.3780                 1.3734
 IR Inten    --      5.4230                 5.6265                 3.8859

                     40                     41                     42
                      A                      A                      A
 Frequencies --   1526.6358              1733.3613              3003.4991
 Red. masses --      1.0914                 6.9805                 1.0665
 Frc consts  --      1.4987                12.3571                 5.6686
 IR Inten    --      1.0145                 2.0765                 8.6295

                     43                     44                     45
                      A                      A                      A
 Frequencies --   3004.0317              3017.5434              3029.8019
 Red. masses --      1.0625                 1.0609                 1.0867
 Frc consts  --      5.6494                 5.6914                 5.8777
 IR Inten    --     20.6638                65.6506                69.2328

                     46                     47                     48
                      A                      A                      A
 Frequencies --   3035.4022              3053.2438              3059.3534
 Red. masses --      1.0982                 1.0928                 1.0958
 Frc consts  --      5.9617                 6.0023                 6.0428
 IR Inten    --     20.5055                24.4754                21.1718

                     49                     50                     51
                      A                      A                      A
 Frequencies --   3069.2219              3125.8688              3150.2010
 Red. masses --      1.0964                 1.0828                 1.0937
 Frc consts  --      6.0852                 6.2334                 6.3946
 IR Inten    --     61.5422                 5.8660                37.5537

 - Thermochemistry -
 -------------------
 Temperature   298.150 Kelvin.  Pressure   1.00000 Atm.
 Atom     1 has atomic number  6 and mass  12.00000

 Molecular mass:   126.06808 amu.
 Principal axes and moments of inertia in atomic units:
                           1         2         3
     Eigenvalues --   775.82847 880.219071195.97711
           X            0.99508  -0.09901  -0.00176
           Y            0.09894   0.99476  -0.02594
           Z            0.00432   0.02563   0.99966
 This molecule is an asymmetric top.
 Rotational symmetry number  1.
 Warning -- assumption of classical behavior for rotation
           may cause significant error
 Rotational temperatures (Kelvin)      0.11164     0.09840     0.07242
 Rotational constants (GHZ):           2.32621     2.05033     1.50901
 Zero-point vibrational energy     426257.0 (Joules/Mol)
                                  101.87786 (Kcal/Mol)
 Warning -- explicit consideration of   8 degrees of freedom as
           vibrations may cause significant error
 Vibrational temperatures:    146.66   179.45   399.83   451.83   523.60
          (Kelvin)            566.88   650.31   856.88   991.35  1052.32
                             1104.05  1175.85  1198.59  1239.57  1277.04
                             1319.08  1357.51  1429.26  1434.57  1469.53
                             1501.55  1527.79  1554.28  1599.94  1683.38
                             1746.77  1773.26  1782.79  1808.00  1898.72
                             1943.26  1954.13  1974.22  1992.22  2013.45
                             2043.91  2073.27  2092.82  2103.47  2196.49
                             2493.92  4321.36  4322.13  4341.57  4359.20
                             4367.26  4392.93  4401.72  4415.92  4497.42
                             4532.43

 Zero-point correction=                           0.162353 (Hartree/Particle)
 Thermal correction to Energy=                    0.169586
 Thermal correction to Enthalpy=                  0.170531
 Thermal correction to Gibbs Free Energy=         0.130632
 Sum of electronic and zero-point Energies=           -423.041509
 Sum of electronic and thermal Energies=              -423.034276
 Sum of electronic and thermal Enthalpies=            -423.033331
 Sum of electronic and thermal Free Energies=         -423.073230

                     E (Thermal)             CV                S
                      KCal/Mol        Cal/Mol-Kelvin    Cal/Mol-Kelvin
 Total                  106.417             28.641             83.973
 Electronic               0.000              0.000              0.000
 Translational            0.889              2.981             40.409
 Rotational               0.889              2.981             28.192
 Vibrational            104.640             22.680             15.372
 Vibration     1          0.604              1.948              3.417
 Vibration     2          0.610              1.928              3.026
 Vibration     3          0.679              1.714              1.547
 Vibration     4          0.702              1.647              1.341
 Vibration     5          0.737              1.547              1.105
 Vibration     6          0.761              1.483              0.985
 Vibration     7          0.811              1.356              0.790
 Vibration     8          0.953              1.041              0.457

 Optimization completed.
    -- Stationary point found.
 Normal termination of Gaussian 09 at Mon Jan 27 13:14:52 2020.
