 Gaussian 09, Revision D.01,
 Gaussian 09:  ES64L-G09RevD.01 24-Apr-2013

 -----------------------------
 # b3lyp 6-31G(2df,p) opt Freq
 -----------------------------

 -----
 titel
 -----
 Symbolic Z-matrix:
 Charge =  0 Multiplicity = 1

 SCF Done:  E(RB3LYP) =  -423.198630183     A.U. after   13 cycles
 Optimization completed.
    -- Stationary point found.
 Normal termination of Gaussian 09 at Tue Jan 28 00:32:19 2020.

 ----------------------------------------------------------------------
 #N Geom=AllCheck Guess=TCheck SCRF=Check GenChk RB3LYP/6-31G(2df,p) Fr
 eq
 ----------------------------------------------------------------------

 Structure from the checkpoint file:  "/scratch/puck/g09_b684c780-67ad-452f-8b7b-af736cf3c3a2/Gau-188427.chk"
 -----
 titel
 -----
 Charge =  0 Multiplicity = 1

                         Standard orientation:
 ---------------------------------------------------------------------
 Center     Atomic      Atomic             Coordinates (Angstroms)
 Number     Number       Type             X           Y           Z
 ---------------------------------------------------------------------
      1          8           0       -2.563374   -0.784276    0.245838
      2          6           0       -1.330556   -0.393518   -0.357170
      3          6           0       -1.279278    1.080840   -0.665332
      4          6           0       -0.284930    1.698877   -0.031509
      5          6           0        0.584601    0.761288    0.765804
      6          6           0        2.002578    0.565178    0.167654
      7          8           0        1.889770   -0.515707   -0.739356
      8          6           0        1.040714   -1.459001   -0.101014
      9          6           0       -0.085994   -0.636950    0.550995
     10          1           0       -2.750078   -0.150279    0.947456
     11          1           0       -1.276342   -1.003678   -1.266339
     12          1           0       -2.012695    1.550628   -1.311551
     13          1           0       -0.074165    2.762554   -0.087891
     14          1           0        0.656401    1.065523    1.815584
     15          1           0        2.372142    1.434340   -0.383001
     16          1           0        2.721807    0.326886    0.969085
     17          1           0        0.692658   -2.166150   -0.858550
     18          1           0        1.599966   -2.020463    0.666025
     19          1           0       -0.423671   -1.099781    1.480753
 ---------------------------------------------------------------------

 SCF Done:  E(RB3LYP) =  -423.198630183     A.U. after    1 cycles

 The electronic state is 1-A.
 Alpha  occ. eigenvalues --  -19.13694 -19.13304 -10.23132 -10.22701 -10.22474
 Alpha  occ. eigenvalues --  -10.19496 -10.18921 -10.18657 -10.18149  -1.03719
 Alpha  occ. eigenvalues --   -1.01428  -0.83916  -0.74726  -0.73143  -0.67105
 Alpha  occ. eigenvalues --   -0.60221  -0.57543  -0.55048  -0.51042  -0.49523
 Alpha  occ. eigenvalues --   -0.47240  -0.45221  -0.44161  -0.42492  -0.39402
 Alpha  occ. eigenvalues --   -0.37476  -0.36581  -0.35000  -0.33788  -0.32080
 Alpha  occ. eigenvalues --   -0.31707  -0.27062  -0.26081  -0.24499
 Alpha virt. eigenvalues --    0.00795   0.08738   0.09773   0.10996   0.12189
 Alpha virt. eigenvalues --    0.13084   0.14350   0.14901   0.16235   0.16903
 Alpha virt. eigenvalues --    0.17461   0.18184   0.20702   0.21060   0.22529

 Mulliken charges:
               1
     1  O   -0.434627
     2  C    0.092576
     3  C   -0.114574
     4  C   -0.071177
     5  C   -0.087510
     6  C   -0.087715
     7  O   -0.239256
     8  C   -0.098866
     9  C   -0.066422
    10  H    0.273094
    11  H    0.091733
    12  H    0.100116
    13  H    0.098758
    14  H    0.076916
    15  H    0.108081
    16  H    0.084324
    17  H    0.110876
    18  H    0.085073
    19  H    0.078602
 Sum of Mulliken charges =   0.00000

 Dipole moment (field-independent basis, Debye):
    X=              0.1587    Y=              1.4546    Z=              1.6279  Tot=              2.1889
 Quadrupole moment (field-independent basis, Debye-Ang):
   XX=            -57.9395   YY=            -51.1990   ZZ=            -52.1494
   XY=             -1.9889   XZ=              1.7082   YZ=              0.0472

  Exact polarizability:  84.324   3.836  78.461   7.441   0.304  64.375
 Approx polarizability: 120.250  12.479 114.325  11.886   4.715 104.206

                      1                      2                      3
                      A                      A                      A
 Frequencies --     43.3360               172.0566               219.7993
 Red. masses --      3.6750                 3.9089                 3.4576
 Frc consts  --      0.0041                 0.0682                 0.0984
 IR Inten    --      0.9159                 2.1714                 2.1971

                      4                      5                      6
                      A                      A                      A
 Frequencies --    319.1600               352.8702               356.1646
 Red. masses --      1.5751                 2.2227                 1.8812
 Frc consts  --      0.0945                 0.1631                 0.1406
 IR Inten    --     29.8721                47.2945                 0.9365

                      7                      8                      9
                      A                      A                      A
 Frequencies --    409.0785               527.9838               602.8285
 Red. masses --      2.3889                 3.5107                 3.8147
 Frc consts  --      0.2355                 0.5766                 0.8168
 IR Inten    --     12.8580                 0.7029                 0.7472

                     10                     11                     12
                      A                      A                      A
 Frequencies --    700.4207               749.8190               783.0892
 Red. masses --      4.9411                 4.6104                 1.8597
 Frc consts  --      1.4282                 1.5272                 0.6719
 IR Inten    --      5.0941                 3.3071                28.6525

                     13                     14                     15
                      A                      A                      A
 Frequencies --    833.8057               850.7404               871.5557
 Red. masses --      2.8527                 2.3558                 3.0371
 Frc consts  --      1.1685                 1.0046                 1.3592
 IR Inten    --      7.2536                 5.7996                 8.7679

                     16                     17                     18
                      A                      A                      A
 Frequencies --    925.8122               954.7673               983.5587
 Red. masses --      2.0505                 3.6685                 1.3259
 Frc consts  --      1.0355                 1.9703                 0.7557
 IR Inten    --      4.9505                38.0354                 4.2426

                     19                     20                     21
                      A                      A                      A
 Frequencies --    991.1263              1010.7467              1020.0968
 Red. masses --      2.3531                 2.3383                 1.9533
 Frc consts  --      1.3619                 1.4075                 1.1976
 IR Inten    --      8.4980                 2.1645                 4.5024

                     22                     23                     24
                      A                      A                      A
 Frequencies --   1049.9364              1086.6523              1115.3198
 Red. masses --      2.7985                 2.1298                 2.3853
 Frc consts  --      1.8176                 1.4817                 1.7482
 IR Inten    --     88.8162                45.8137                50.3094

                     25                     26                     27
                      A                      A                      A
 Frequencies --   1123.3876              1137.1041              1196.8986
 Red. masses --      2.1683                 1.2891                 1.7657
 Frc consts  --      1.6122                 0.9821                 1.4904
 IR Inten    --     16.2934                 6.9975                 1.4432

                     28                     29                     30
                      A                      A                      A
 Frequencies --   1213.9315              1246.0725              1275.7258
 Red. masses --      1.1215                 1.2819                 1.3750
 Frc consts  --      0.9737                 1.1727                 1.3185
 IR Inten    --     12.4475                15.2560                 0.6514

                     31                     32                     33
                      A                      A                      A
 Frequencies --   1285.5168              1297.1754              1314.7912
 Red. masses --      1.3192                 1.2950                 1.4561
 Frc consts  --      1.2845                 1.2838                 1.4830
 IR Inten    --      3.0042                 1.6140                 1.9666

                     34                     35                     36
                      A                      A                      A
 Frequencies --   1334.9466              1349.8184              1374.8067
 Red. masses --      1.6272                 1.2784                 1.5602
 Frc consts  --      1.7085                 1.3724                 1.7375
 IR Inten    --      4.0738                 2.5242                 2.7437

                     37                     38                     39
                      A                      A                      A
 Frequencies --   1406.1111              1427.3103              1504.6610
 Red. masses --      1.3902                 1.2269                 1.0823
 Frc consts  --      1.6195                 1.4726                 1.4438
 IR Inten    --     15.2960                61.3250                 0.2558

                     40                     41                     42
                      A                      A                      A
 Frequencies --   1519.3556              1685.6243              2959.9382
 Red. masses --      1.1049                 6.5925                 1.0709
 Frc consts  --      1.5027                11.0362                 5.5280
 IR Inten    --      2.0724                 3.5287                39.8757

                     43                     44                     45
                      A                      A                      A
 Frequencies --   2965.8465              3041.8714              3045.4559
 Red. masses --      1.0721                 1.0843                 1.0847
 Frc consts  --      5.5563                 5.9112                 5.9273
 IR Inten    --    114.9163                29.1596                33.0367

                     46                     47                     48
                      A                      A                      A
 Frequencies --   3088.3949              3090.4816              3092.2147
 Red. masses --      1.0878                 1.0896                 1.0933
 Frc consts  --      6.1133                 6.1315                 6.1595
 IR Inten    --     39.9890                19.0139                18.1797

                     49                     50                     51
                      A                      A                      A
 Frequencies --   3173.5518              3203.9273              3795.7218
 Red. masses --      1.0856                 1.1028                 1.0660
 Frc consts  --      6.4418                 6.6699                 9.0491
 IR Inten    --      9.5210                17.3171                14.0649

 - Thermochemistry -
 -------------------
 Temperature   298.150 Kelvin.  Pressure   1.00000 Atm.
 Atom     1 has atomic number  8 and mass  15.99491

 Molecular mass:   126.06808 amu.
 Principal axes and moments of inertia in atomic units:
                           1         2         3
     Eigenvalues --   607.133261211.645801535.41075
           X            0.99984  -0.00508   0.01695
           Y            0.00518   0.99997  -0.00617
           Z           -0.01692   0.00626   0.99984
 This molecule is an asymmetric top.
 Rotational symmetry number  1.
 Warning -- assumption of classical behavior for rotation
           may cause significant error
 Rotational temperatures (Kelvin)      0.14266     0.07148     0.05641
 Rotational constants (GHZ):           2.97256     1.48950     1.17541
 Zero-point vibrational energy     425161.0 (Joules/Mol)
                                  101.61591 (Kcal/Mol)
 Warning -- explicit consideration of   9 degrees of freedom as
           vibrations may cause significant error
 Vibrational temperatures:     62.35   247.55   316.24   459.20   507.70
          (Kelvin)            512.44   588.57   759.65   867.33  1007.75
                             1078.82  1126.69  1199.66  1224.02  1253.97
                             1332.04  1373.70  1415.12  1426.01  1454.24
                             1467.69  1510.62  1563.45  1604.69  1616.30
                             1636.04  1722.07  1746.57  1792.82  1835.48
                             1849.57  1866.34  1891.69  1920.69  1942.09
                             1978.04  2023.08  2053.58  2164.87  2186.01
                             2425.23  4258.69  4267.19  4376.57  4381.73
                             4443.51  4446.51  4449.00  4566.03  4609.73
                             5461.19

 Zero-point correction=                           0.161935 (Hartree/Particle)
 Thermal correction to Energy=                    0.169519
 Thermal correction to Enthalpy=                  0.170464
 Thermal correction to Gibbs Free Energy=         0.129348
 Sum of electronic and zero-point Energies=           -423.036695
 Sum of electronic and thermal Energies=              -423.029111
 Sum of electronic and thermal Enthalpies=            -423.028167
 Sum of electronic and thermal Free Energies=         -423.069282

                     E (Thermal)             CV                S
                      KCal/Mol        Cal/Mol-Kelvin    Cal/Mol-Kelvin
 Total                  106.375             29.750             86.534
 Electronic               0.000              0.000              0.000
 Translational            0.889              2.981             40.409
 Rotational               0.889              2.981             28.515
 Vibrational            104.598             23.788             17.611
 Vibration     1          0.595              1.980              5.100
 Vibration     2          0.626              1.877              2.413
 Vibration     3          0.647              1.811              1.961
 Vibration     4          0.705              1.637              1.314
 Vibration     5          0.729              1.569              1.153
 Vibration     6          0.732              1.563              1.139
 Vibration     7          0.773              1.451              0.930
 Vibration     8          0.883              1.188              0.592
 Vibration     9          0.961              1.026              0.445

 Optimization completed.
    -- Stationary point found.
 Normal termination of Gaussian 09 at Tue Jan 28 01:16:16 2020.
