 Gaussian 09, Revision D.01,
 Gaussian 09:  ES64L-G09RevD.01 24-Apr-2013

 -----------------------------
 # b3lyp 6-31G(2df,p) opt Freq
 -----------------------------

 -----
 titel
 -----
 Symbolic Z-matrix:
 Charge =  0 Multiplicity = 1

 SCF Done:  E(RB3LYP) =  -423.216976272     A.U. after   14 cycles
 Optimization completed.
    -- Stationary point found.
 Normal termination of Gaussian 09 at Tue Jan 28 08:13:30 2020.

 ----------------------------------------------------------------------
 #N Geom=AllCheck Guess=TCheck SCRF=Check GenChk RB3LYP/6-31G(2df,p) Fr
 eq
 ----------------------------------------------------------------------

 Structure from the checkpoint file:  "/scratch/puck/g09_39c106ed-c714-48ed-a9ab-238bc35d924e/Gau-43481.chk"
 -----
 titel
 -----
 Charge =  0 Multiplicity = 1

                         Standard orientation:
 ---------------------------------------------------------------------
 Center     Atomic      Atomic             Coordinates (Angstroms)
 Number     Number       Type             X           Y           Z
 ---------------------------------------------------------------------
      1          6           0        1.031431    1.914870    0.597080
      2          6           0        0.942218    0.732939   -0.365680
      3          8           0        2.143072   -0.054372   -0.285250
      4          6           0        1.842831   -1.406862    0.016509
      5          6           0        0.353003   -1.460139    0.158337
      6          6           0       -0.171119   -0.252154   -0.067788
      7          6           0       -1.600391    0.129009   -0.098331
      8          6           0       -2.635860   -0.932880    0.230878
      9          8           0       -1.929211    1.263429   -0.390913
     10          1           0        1.094571    1.564608    1.632156
     11          1           0        1.927662    2.501020    0.376046
     12          1           0        0.151131    2.551642    0.486955
     13          1           0        0.842005    1.119053   -1.391345
     14          1           0        2.196795   -2.072533   -0.788730
     15          1           0        2.362100   -1.720315    0.936783
     16          1           0       -0.185753   -2.369359    0.394447
     17          1           0       -2.472076   -1.336802    1.235462
     18          1           0       -3.629945   -0.488636    0.173740
     19          1           0       -2.570053   -1.769836   -0.472235
 ---------------------------------------------------------------------

 SCF Done:  E(RB3LYP) =  -423.216976272     A.U. after    1 cycles

 The electronic state is 1-A.
 Alpha  occ. eigenvalues --  -19.13679 -19.13157 -10.27550 -10.24122 -10.23624
 Alpha  occ. eigenvalues --  -10.21159 -10.19976 -10.19214 -10.16755  -1.04196
 Alpha  occ. eigenvalues --   -1.03551  -0.81524  -0.76860  -0.74403  -0.68072
 Alpha  occ. eigenvalues --   -0.61237  -0.58943  -0.53983  -0.49432  -0.47904
 Alpha  occ. eigenvalues --   -0.44646  -0.44517  -0.44379  -0.42182  -0.41780
 Alpha  occ. eigenvalues --   -0.39442  -0.38222  -0.37873  -0.36033  -0.34749
 Alpha  occ. eigenvalues --   -0.32258  -0.28620  -0.25241  -0.24105
 Alpha virt. eigenvalues --   -0.05746   0.06087   0.08972   0.11213   0.12069
 Alpha virt. eigenvalues --    0.13524   0.14689   0.14958   0.15608   0.15967
 Alpha virt. eigenvalues --    0.17320   0.17830   0.18996   0.19729   0.22504

 Mulliken charges:
               1
     1  C   -0.399533
     2  C    0.051969
     3  O   -0.282849
     4  C   -0.111301
     5  C   -0.219533
     6  C    0.217070
     7  C    0.307489
     8  C   -0.492213
     9  O   -0.306076
    10  H    0.108630
    11  H    0.122780
    12  H    0.143520
    13  H    0.094703
    14  H    0.112213
    15  H    0.113509
    16  H    0.114966
    17  H    0.139701
    18  H    0.144748
    19  H    0.140209
 Sum of Mulliken charges =   0.00000

 Dipole moment (field-independent basis, Debye):
    X=             -0.2930    Y=             -3.1241    Z=              0.8584  Tot=              3.2531
 Quadrupole moment (field-independent basis, Debye-Ang):
   XX=            -57.4964   YY=            -51.1126   ZZ=            -52.7448
   XY=              3.3837   XZ=             -0.6183   YZ=              0.1996

  Exact polarizability:  89.894  -8.791  92.395   1.071  -4.130  57.037
 Approx polarizability: 121.719 -26.769 151.802   4.512 -13.319  88.508

                      1                      2                      3
                      A                      A                      A
 Frequencies --     63.9279                71.7293               127.7139
 Red. masses --      3.4302                 3.3694                 1.0969
 Frc consts  --      0.0083                 0.0102                 0.0105
 IR Inten    --      0.1590                 7.6388                 0.0081

                      4                      5                      6
                      A                      A                      A
 Frequencies --    163.0793               183.4076               246.5781
 Red. masses --      2.9381                 3.9420                 1.0699
 Frc consts  --      0.0460                 0.0781                 0.0383
 IR Inten    --      0.2466                 4.7485                 0.2531

                      7                      8                      9
                      A                      A                      A
 Frequencies --    274.1690               340.8151               398.4609
 Red. masses --      2.3652                 3.3879                 3.3750
 Frc consts  --      0.1048                 0.2319                 0.3157
 IR Inten    --      0.1325                 1.5174                 2.3696

                     10                     11                     12
                      A                      A                      A
 Frequencies --    473.4558               520.6205               609.4017
 Red. masses --      3.9034                 3.2816                 3.7605
 Frc consts  --      0.5155                 0.5241                 0.8228
 IR Inten    --      0.6284                 0.2907                24.8055

                     13                     14                     15
                      A                      A                      A
 Frequencies --    651.9107               762.9305               807.8087
 Red. masses --      2.6431                 4.3409                 3.2405
 Frc consts  --      0.6618                 1.4887                 1.2459
 IR Inten    --      4.9060                 2.7703                 1.6159

                     16                     17                     18
                      A                      A                      A
 Frequencies --    835.2883               868.9570               917.2644
 Red. masses --      1.1711                 3.0711                 2.6315
 Frc consts  --      0.4814                 1.3663                 1.3045
 IR Inten    --      7.1996                21.1595                 7.9768

                     19                     20                     21
                      A                      A                      A
 Frequencies --    970.9776              1023.7673              1041.2584
 Red. masses --      2.0405                 2.2166                 1.7224
 Frc consts  --      1.1335                 1.3688                 1.1003
 IR Inten    --     12.5735                 0.9765                10.3080

                     22                     23                     24
                      A                      A                      A
 Frequencies --   1045.4892              1065.2655              1098.5028
 Red. masses --      1.8600                 1.8999                 2.0474
 Frc consts  --      1.1979                 1.2703                 1.4557
 IR Inten    --      1.5630                13.1550                15.8383

                     25                     26                     27
                      A                      A                      A
 Frequencies --   1119.3883              1136.4777              1198.6938
 Red. masses --      2.9929                 2.6632                 1.1045
 Frc consts  --      2.2096                 2.0266                 0.9350
 IR Inten    --     37.1594                41.2687                 1.3918

                     28                     29                     30
                      A                      A                      A
 Frequencies --   1261.1058              1292.0659              1357.6266
 Red. masses --      1.9580                 1.5183                 1.7213
 Frc consts  --      1.8347                 1.4934                 1.8692
 IR Inten    --     64.9345                37.7675                27.3634

                     31                     32                     33
                      A                      A                      A
 Frequencies --   1371.7109              1378.6981              1390.5641
 Red. masses --      1.3978                 1.4231                 1.5713
 Frc consts  --      1.5496                 1.5938                 1.7902
 IR Inten    --      6.8012                21.6961                44.5945

                     34                     35                     36
                      A                      A                      A
 Frequencies --   1396.7462              1468.2094              1476.9915
 Red. masses --      1.4179                 1.0539                 1.0478
 Frc consts  --      1.6298                 1.3385                 1.3468
 IR Inten    --     19.0104                 6.7024                 7.7743

                     37                     38                     39
                      A                      A                      A
 Frequencies --   1491.7627              1496.4686              1512.2016
 Red. masses --      1.0473                 1.0612                 1.0849
 Frc consts  --      1.3732                 1.4002                 1.4618
 IR Inten    --      6.7056                 0.8614                 1.2010

                     40                     41                     42
                      A                      A                      A
 Frequencies --   1688.3846              1762.2554              2962.5858
 Red. masses --      7.8233                10.9119                 1.0613
 Frc consts  --     13.1396                19.9659                 5.4884
 IR Inten    --     28.9382               173.1434                74.1685

                     43                     44                     45
                      A                      A                      A
 Frequencies --   2979.1324              2988.9619              3041.7735
 Red. masses --      1.0984                 1.0831                 1.0367
 Frc consts  --      5.7437                 5.7009                 5.6514
 IR Inten    --     40.6263                34.1666                 2.7005

                     46                     47                     48
                      A                      A                      A
 Frequencies --   3044.2409              3104.9727              3116.8584
 Red. masses --      1.0352                 1.0989                 1.1020
 Frc consts  --      5.6526                 6.2421                 6.3074
 IR Inten    --     17.5757                 7.2264                25.1605

                     49                     50                     51
                      A                      A                      A
 Frequencies --   3141.2254              3154.8640              3217.0248
 Red. masses --      1.1013                 1.1016                 1.0948
 Frc consts  --      6.4025                 6.4601                 6.6756
 IR Inten    --      7.2808                 8.9333                 4.6606

 - Thermochemistry -
 -------------------
 Temperature   298.150 Kelvin.  Pressure   1.00000 Atm.
 Atom     1 has atomic number  6 and mass  12.00000

 Molecular mass:   126.06808 amu.
 Principal axes and moments of inertia in atomic units:
                           1         2         3
     Eigenvalues --   679.236131339.314541881.72141
           X            0.99875   0.05003  -0.00170
           Y           -0.05001   0.99871   0.00852
           Z            0.00213  -0.00843   0.99996
 This molecule is an asymmetric top.
 Rotational symmetry number  1.
 Warning -- assumption of classical behavior for rotation
           may cause significant error
 Rotational temperatures (Kelvin)      0.12752     0.06467     0.04603
 Rotational constants (GHZ):           2.65702     1.34751     0.95909
 Zero-point vibrational energy     413392.1 (Joules/Mol)
                                   98.80309 (Kcal/Mol)
 Warning -- explicit consideration of  12 degrees of freedom as
           vibrations may cause significant error
 Vibrational temperatures:     91.98   103.20   183.75   234.63   263.88
          (Kelvin)            354.77   394.47   490.36   573.30   681.20
                              749.06   876.79   937.95  1097.69  1162.26
                             1201.79  1250.23  1319.74  1397.02  1472.97
                             1498.14  1504.22  1532.68  1580.50  1610.55
                             1635.14  1724.65  1814.45  1858.99  1953.32
                             1973.58  1983.64  2000.71  2009.60  2112.42
                             2125.06  2146.31  2153.08  2175.72  2429.21
                             2535.49  4262.49  4286.30  4300.44  4376.43
                             4379.98  4467.36  4484.46  4519.52  4539.14
                             4628.58

 Zero-point correction=                           0.157453 (Hartree/Particle)
 Thermal correction to Energy=                    0.166835
 Thermal correction to Enthalpy=                  0.167779
 Thermal correction to Gibbs Free Energy=         0.122654
 Sum of electronic and zero-point Energies=           -423.059524
 Sum of electronic and thermal Energies=              -423.050141
 Sum of electronic and thermal Enthalpies=            -423.049197
 Sum of electronic and thermal Free Energies=         -423.094323

                     E (Thermal)             CV                S
                      KCal/Mol        Cal/Mol-Kelvin    Cal/Mol-Kelvin
 Total                  104.691             33.635             94.975
 Electronic               0.000              0.000              0.000
 Translational            0.889              2.981             40.409
 Rotational               0.889              2.981             28.928
 Vibrational            102.913             27.673             25.638
 Vibration     1          0.597              1.972              4.332
 Vibration     2          0.598              1.967              4.105
 Vibration     3          0.611              1.925              2.980
 Vibration     4          0.623              1.888              2.514
 Vibration     5          0.631              1.862              2.293
 Vibration     6          0.661              1.768              1.755
 Vibration     7          0.676              1.721              1.570
 Vibration     8          0.720              1.594              1.208
 Vibration     9          0.765              1.473              0.968
 Vibration    10          0.830              1.309              0.728
 Vibration    11          0.876              1.204              0.609
 Vibration    12          0.968              1.012              0.434

 Optimization completed.
    -- Stationary point found.
 Normal termination of Gaussian 09 at Tue Jan 28 08:56:56 2020.
