 Gaussian 09, Revision D.01,
 Gaussian 09:  ES64L-G09RevD.01 24-Apr-2013

 -----------------------------
 # b3lyp 6-31G(2df,p) opt Freq
 -----------------------------

 -----
 titel
 -----
 Symbolic Z-matrix:
 Charge =  0 Multiplicity = 1

 SCF Done:  E(RB3LYP) =  -423.229424321     A.U. after   14 cycles
 Optimization completed.
    -- Stationary point found.
 Normal termination of Gaussian 09 at Tue Jan 28 12:09:01 2020.

 ----------------------------------------------------------------------
 #N Geom=AllCheck Guess=TCheck SCRF=Check GenChk RB3LYP/6-31G(2df,p) Fr
 eq
 ----------------------------------------------------------------------

 Structure from the checkpoint file:  "/scratch/puck/g09_212270a1-51b6-40f1-931f-7d1931054f3e/Gau-128763.chk"
 -----
 titel
 -----
 Charge =  0 Multiplicity = 1

                         Standard orientation:
 ---------------------------------------------------------------------
 Center     Atomic      Atomic             Coordinates (Angstroms)
 Number     Number       Type             X           Y           Z
 ---------------------------------------------------------------------
      1          6           0       -3.140034   -0.356380   -0.702325
      2          6           0       -2.383993    0.369498    0.426388
      3          6           0       -0.895553    0.274963    0.297656
      4          6           0       -0.038609    1.299814    0.121884
      5          6           0        1.333529    0.792800    0.009929
      6          8           0        2.338624    1.342596   -0.389835
      7          6           0        1.305492   -0.682798    0.440325
      8          8           0        2.169142   -1.466742   -0.341677
      9          6           0       -0.178657   -1.063978    0.329813
     10          1           0       -2.902716   -1.423943   -0.722320
     11          1           0       -4.219689   -0.255621   -0.561625
     12          1           0       -2.883353    0.065045   -1.678855
     13          1           0       -2.683769    1.421977    0.457498
     14          1           0       -2.677857   -0.074159    1.388227
     15          1           0       -0.303214    2.344569    0.015212
     16          1           0        1.602861   -0.709371    1.503964
     17          1           0        2.867174   -0.861471   -0.633597
     18          1           0       -0.338873   -1.615560   -0.603948
     19          1           0       -0.535742   -1.701807    1.145515
 ---------------------------------------------------------------------

 SCF Done:  E(RB3LYP) =  -423.229424321     A.U. after    1 cycles

 The electronic state is 1-A.
 Alpha  occ. eigenvalues --  -19.13356 -19.12826 -10.26087 -10.23528 -10.22507
 Alpha  occ. eigenvalues --  -10.20721 -10.19916 -10.19417 -10.19202  -1.04374
 Alpha  occ. eigenvalues --   -1.01137  -0.86214  -0.78309  -0.72170  -0.68179
 Alpha  occ. eigenvalues --   -0.63130  -0.55578  -0.55084  -0.50084  -0.48367
 Alpha  occ. eigenvalues --   -0.47346  -0.45008  -0.43385  -0.40408  -0.39994
 Alpha  occ. eigenvalues --   -0.39454  -0.38948  -0.37723  -0.36471  -0.35313
 Alpha  occ. eigenvalues --   -0.33939  -0.27473  -0.26998  -0.24125
 Alpha virt. eigenvalues --   -0.04822   0.04836   0.08225   0.11089   0.11241
 Alpha virt. eigenvalues --    0.12065   0.13753   0.14583   0.15369   0.16575
 Alpha virt. eigenvalues --    0.17271   0.18069   0.19428   0.20501   0.23135

 Mulliken charges:
               1
     1  C   -0.379854
     2  C   -0.286942
     3  C    0.330218
     4  C   -0.300264
     5  C    0.354659
     6  O   -0.358929
     7  C    0.052050
     8  O   -0.441445
     9  C   -0.336763
    10  H    0.129618
    11  H    0.124728
    12  H    0.130443
    13  H    0.113726
    14  H    0.118153
    15  H    0.113232
    16  H    0.092212
    17  H    0.291260
    18  H    0.140564
    19  H    0.113332
 Sum of Mulliken charges =   0.00000

 Dipole moment (field-independent basis, Debye):
    X=             -3.7128    Y=             -0.2450    Z=              1.0493  Tot=              3.8660
 Quadrupole moment (field-independent basis, Debye-Ang):
   XX=            -54.9247   YY=            -57.1357   ZZ=            -52.4352
   XY=             -1.8383   XZ=              1.1072   YZ=             -0.0008

  Exact polarizability: 104.769   7.039  78.001  -4.229  -2.455  58.231
 Approx polarizability: 149.131  22.187 123.551 -13.406  -6.739  90.979

                      1                      2                      3
                      A                      A                      A
 Frequencies --     56.1770                83.7108               134.1521
 Red. masses --      2.6985                 3.3827                 3.5170
 Frc consts  --      0.0050                 0.0140                 0.0373
 IR Inten    --      0.1618                 1.3238                 1.6469

                      4                      5                      6
                      A                      A                      A
 Frequencies --    197.7695               235.3077               279.2129
 Red. masses --      1.3986                 2.2962                 4.5323
 Frc consts  --      0.0322                 0.0749                 0.2082
 IR Inten    --      0.4450                 5.6751                18.8275

                      7                      8                      9
                      A                      A                      A
 Frequencies --    326.9511               406.8786               433.5594
 Red. masses --      2.5473                 2.0204                 1.5504
 Frc consts  --      0.1604                 0.1971                 0.1717
 IR Inten    --      0.7829                52.0774                25.8722

                     10                     11                     12
                      A                      A                      A
 Frequencies --    482.8820               513.4158               607.2682
 Red. masses --      2.3126                 3.2611                 2.9580
 Frc consts  --      0.3177                 0.5065                 0.6427
 IR Inten    --      5.2353                13.0723                 9.3652

                     13                     14                     15
                      A                      A                      A
 Frequencies --    620.5359               726.4194               790.9443
 Red. masses --      5.9888                 3.4068                 1.2069
 Frc consts  --      1.3587                 1.0592                 0.4448
 IR Inten    --      6.4341                 3.1637                 1.7957

                     16                     17                     18
                      A                      A                      A
 Frequencies --    820.8315               862.4827               890.2846
 Red. masses --      2.8174                 3.5601                 1.5085
 Frc consts  --      1.1184                 1.5603                 0.7044
 IR Inten    --     10.5493                 3.8238                15.0218

                     19                     20                     21
                      A                      A                      A
 Frequencies --    961.8921               967.1344              1024.6833
 Red. masses --      1.9823                 2.1169                 2.5117
 Frc consts  --      1.0806                 1.1666                 1.5538
 IR Inten    --      0.2777                 4.3034                 3.1275

                     22                     23                     24
                      A                      A                      A
 Frequencies --   1066.2298              1082.9155              1129.9338
 Red. masses --      1.9280                 1.5557                 2.5109
 Frc consts  --      1.2914                 1.0749                 1.8888
 IR Inten    --      9.0148                17.1069                83.8723

                     25                     26                     27
                      A                      A                      A
 Frequencies --   1158.4633              1177.1958              1202.9166
 Red. masses --      1.8216                 1.9447                 1.7741
 Frc consts  --      1.4403                 1.5878                 1.5125
 IR Inten    --      2.2979                71.7494                 8.5559

                     28                     29                     30
                      A                      A                      A
 Frequencies --   1233.6011              1267.2122              1295.5217
 Red. masses --      1.2313                 1.4775                 1.2946
 Frc consts  --      1.1040                 1.3979                 1.2802
 IR Inten    --     36.3374                14.6035                11.8612

                     31                     32                     33
                      A                      A                      A
 Frequencies --   1344.8433              1353.5818              1367.0201
 Red. masses --      2.1480                 1.5305                 1.5684
 Frc consts  --      2.2890                 1.6522                 1.7269
 IR Inten    --      1.7713                12.6758                25.0942

                     34                     35                     36
                      A                      A                      A
 Frequencies --   1408.9045              1417.1346              1472.5549
 Red. masses --      1.2401                 1.4794                 1.1036
 Frc consts  --      1.4503                 1.7505                 1.4100
 IR Inten    --      9.6765                37.0493                 7.3146

                     37                     38                     39
                      A                      A                      A
 Frequencies --   1479.2786              1498.0979              1506.8981
 Red. masses --      1.0753                 1.0398                 1.0686
 Frc consts  --      1.3863                 1.3749                 1.4297
 IR Inten    --      2.6665                 5.3557                 2.8865

                     40                     41                     42
                      A                      A                      A
 Frequencies --   1657.4027              1804.6031              2942.8501
 Red. masses --      6.9836                12.3294                 1.0805
 Frc consts  --     11.3028                23.6568                 5.5131
 IR Inten    --     81.1245               305.4380                38.2465

                     43                     44                     45
                      A                      A                      A
 Frequencies --   3012.7405              3040.9928              3044.2979
 Red. masses --      1.0655                 1.0561                 1.0376
 Frc consts  --      5.6980                 5.7540                 5.6658
 IR Inten    --     15.6227                 8.3552                29.0767

                     46                     47                     48
                      A                      A                      A
 Frequencies --   3073.1652              3079.4258              3117.6905
 Red. masses --      1.0954                 1.1029                 1.1028
 Frc consts  --      6.0956                 6.1621                 6.3156
 IR Inten    --     10.1257                15.3285                23.1534

                     49                     50                     51
                      A                      A                      A
 Frequencies --   3119.1285              3212.0125              3721.6124
 Red. masses --      1.1017                 1.0955                 1.0652
 Frc consts  --      6.3154                 6.6591                 8.6925
 IR Inten    --     29.4191                 4.4730                34.1636

 - Thermochemistry -
 -------------------
 Temperature   298.150 Kelvin.  Pressure   1.00000 Atm.
 Atom     1 has atomic number  6 and mass  12.00000

 Molecular mass:   126.06808 amu.
 Principal axes and moments of inertia in atomic units:
                           1         2         3
     Eigenvalues --   564.877281743.040222111.94828
           X            0.99994  -0.00358   0.01031
           Y            0.00357   0.99999   0.00127
           Z           -0.01032  -0.00123   0.99995
 This molecule is an asymmetric top.
 Rotational symmetry number  1.
 Warning -- assumption of classical behavior for rotation
           may cause significant error
 Rotational temperatures (Kelvin)      0.15333     0.04969     0.04101
 Rotational constants (GHZ):           3.19493     1.03540     0.85454
 Zero-point vibrational energy     416962.7 (Joules/Mol)
                                   99.65648 (Kcal/Mol)
 Warning -- explicit consideration of  13 degrees of freedom as
           vibrations may cause significant error
 Vibrational temperatures:     80.83   120.44   193.01   284.55   338.55
          (Kelvin)            401.72   470.41   585.41   623.79   694.76
                              738.69   873.72   892.81  1045.15  1137.99
                             1180.99  1240.92  1280.92  1383.95  1391.49
                             1474.29  1534.06  1558.07  1625.72  1666.77
                             1693.72  1730.73  1774.87  1823.23  1863.96
                             1934.93  1947.50  1966.83  2027.10  2038.94
                             2118.68  2128.35  2155.43  2168.09  2384.63
                             2596.42  4234.10  4334.66  4375.30  4380.06
                             4421.59  4430.60  4485.66  4487.72  4621.36
                             5354.56

 Zero-point correction=                           0.158813 (Hartree/Particle)
 Thermal correction to Energy=                    0.167877
 Thermal correction to Enthalpy=                  0.168821
 Thermal correction to Gibbs Free Energy=         0.124421
 Sum of electronic and zero-point Energies=           -423.070612
 Sum of electronic and thermal Energies=              -423.061548
 Sum of electronic and thermal Enthalpies=            -423.060603
 Sum of electronic and thermal Free Energies=         -423.105003

                     E (Thermal)             CV                S
                      KCal/Mol        Cal/Mol-Kelvin    Cal/Mol-Kelvin
 Total                  105.344             33.430             93.447
 Electronic               0.000              0.000              0.000
 Translational            0.889              2.981             40.409
 Rotational               0.889              2.981             29.121
 Vibrational            103.567             27.468             23.917
 Vibration     1          0.596              1.975              4.587
 Vibration     2          0.601              1.960              3.802
 Vibration     3          0.613              1.919              2.886
 Vibration     4          0.637              1.843              2.154
 Vibration     5          0.655              1.787              1.838
 Vibration     6          0.680              1.712              1.538
 Vibration     7          0.711              1.622              1.275
 Vibration     8          0.772              1.455              0.938
 Vibration     9          0.794              1.397              0.847
 Vibration    10          0.839              1.288              0.702
 Vibration    11          0.868              1.220              0.625
 Vibration    12          0.966              1.016              0.437
 Vibration    13          0.981              0.989              0.416

 Normal termination of Gaussian 09 at Tue Jan 28 12:56:35 2020.
