 Gaussian 09, Revision D.01,
 Gaussian 09:  ES64L-G09RevD.01 24-Apr-2013

 -----------------------------
 # b3lyp 6-31G(2df,p) opt Freq
 -----------------------------

 -----
 titel
 -----
 Symbolic Z-matrix:
 Charge =  0 Multiplicity = 1

 SCF Done:  E(RB3LYP) =  -423.164108439     A.U. after   14 cycles
 Optimization completed.
    -- Stationary point found.
 Normal termination of Gaussian 09 at Tue Jan 28 02:50:51 2020.

 ----------------------------------------------------------------------
 #N Geom=AllCheck Guess=TCheck SCRF=Check GenChk RB3LYP/6-31G(2df,p) Fr
 eq
 ----------------------------------------------------------------------

 Structure from the checkpoint file:  "/scratch/puck/g09_a4c4e2d4-c9d6-40f3-862b-337b6e4e7c8c/Gau-113524.chk"
 -----
 titel
 -----
 Charge =  0 Multiplicity = 1

                         Standard orientation:
 ---------------------------------------------------------------------
 Center     Atomic      Atomic             Coordinates (Angstroms)
 Number     Number       Type             X           Y           Z
 ---------------------------------------------------------------------
      1          8           0        1.975358   -0.840570    0.963357
      2          6           0        1.784844   -0.274547   -0.315717
      3          6           0        1.551398    1.283757   -0.291958
      4          6           0        0.072373    0.967829   -0.284114
      5          6           0       -1.033577    1.377839    0.316446
      6          6           0       -2.209494    0.432576    0.388545
      7          8           0       -1.998881   -0.814548   -0.253598
      8          6           0       -0.697767   -1.375913   -0.073500
      9          6           0        0.296844   -0.449131   -0.761904
     10          1           0        2.826526   -0.542734    1.299278
     11          1           0        2.542796   -0.631394   -1.025486
     12          1           0        1.966523    1.828633    0.561513
     13          1           0        1.894885    1.755065   -1.219901
     14          1           0       -1.111736    2.321724    0.849748
     15          1           0       -2.464103    0.276934    1.453418
     16          1           0       -3.100987    0.859969   -0.087472
     17          1           0       -0.445694   -1.472866    0.990483
     18          1           0       -0.745547   -2.374612   -0.515675
     19          1           0        0.237796   -0.554242   -1.850761
 ---------------------------------------------------------------------

 SCF Done:  E(RB3LYP) =  -423.164108439     A.U. after    1 cycles

 The electronic state is 1-A.
 Alpha  occ. eigenvalues --  -19.14273 -19.12975 -10.23992 -10.22471 -10.21720
 Alpha  occ. eigenvalues --  -10.18849 -10.18116 -10.18081 -10.17317  -1.02723
 Alpha  occ. eigenvalues --   -1.01987  -0.84674  -0.76030  -0.71342  -0.66055
 Alpha  occ. eigenvalues --   -0.60624  -0.58934  -0.53312  -0.49327  -0.48569
 Alpha  occ. eigenvalues --   -0.47021  -0.44879  -0.43906  -0.42972  -0.39145
 Alpha  occ. eigenvalues --   -0.37951  -0.36745  -0.36245  -0.33496  -0.31305
 Alpha  occ. eigenvalues --   -0.28945  -0.26613  -0.24277  -0.23404
 Alpha virt. eigenvalues --    0.02184   0.07125   0.10829   0.12018   0.12444
 Alpha virt. eigenvalues --    0.14181   0.15384   0.15634   0.15680   0.17388
 Alpha virt. eigenvalues --    0.17962   0.18206   0.19682   0.20279   0.22973

 Mulliken charges:
               1
     1  O   -0.427431
     2  C    0.088789
     3  C   -0.358480
     4  C    0.340539
     5  C   -0.262805
     6  C   -0.095219
     7  O   -0.259248
     8  C   -0.114854
     9  C   -0.064518
    10  H    0.285889
    11  H    0.064945
    12  H    0.102962
    13  H    0.108288
    14  H    0.087065
    15  H    0.095698
    16  H    0.115010
    17  H    0.109506
    18  H    0.101965
    19  H    0.081898
 Sum of Mulliken charges =   0.00000

 Dipole moment (field-independent basis, Debye):
    X=              2.2188    Y=              1.2380    Z=              0.2327  Tot=              2.5514
 Quadrupole moment (field-independent basis, Debye-Ang):
   XX=            -48.7483   YY=            -53.6786   ZZ=            -52.2952
   XY=             -1.2358   XZ=             -1.0662   YZ=              1.6971

  Exact polarizability:  94.692  -2.752  75.061  -7.767   4.739  65.592
 Approx polarizability: 131.866  -5.948 107.655 -13.294   8.275 104.174

                      1                      2                      3
                      A                      A                      A
 Frequencies --     92.1869               194.6920               244.2556
 Red. masses --      3.3234                 4.9123                 2.3197
 Frc consts  --      0.0166                 0.1097                 0.0815
 IR Inten    --      0.8667                 1.9264                 2.7320

                      4                      5                      6
                      A                      A                      A
 Frequencies --    276.3903               288.0708               332.1795
 Red. masses --      1.3049                 1.9274                 2.4651
 Frc consts  --      0.0587                 0.0942                 0.1603
 IR Inten    --     77.0620                34.2737                 5.9149

                      7                      8                      9
                      A                      A                      A
 Frequencies --    403.1723               440.7214               518.9290
 Red. masses --      2.4810                 4.8365                 4.7352
 Frc consts  --      0.2376                 0.5535                 0.7513
 IR Inten    --      3.6583                 2.6596                 8.1452

                     10                     11                     12
                      A                      A                      A
 Frequencies --    525.2085               664.6211               766.1143
 Red. masses --      3.7955                 2.9331                 2.0217
 Frc consts  --      0.6169                 0.7634                 0.6991
 IR Inten    --      3.1380                 5.8574                12.3437

                     13                     14                     15
                      A                      A                      A
 Frequencies --    792.9931               837.0009               850.0969
 Red. masses --      2.5675                 1.5468                 3.7743
 Frc consts  --      0.9513                 0.6385                 1.6070
 IR Inten    --      5.9548                 4.8841                11.2672

                     16                     17                     18
                      A                      A                      A
 Frequencies --    878.4725               923.1019               968.1822
 Red. masses --      3.0729                 2.2109                 2.4043
 Frc consts  --      1.3972                 1.1100                 1.3279
 IR Inten    --      7.3177                 0.8286                 3.1760

                     19                     20                     21
                      A                      A                      A
 Frequencies --    969.8765              1018.3068              1044.2900
 Red. masses --      2.7021                 1.7570                 1.5974
 Frc consts  --      1.4975                 1.0734                 1.0263
 IR Inten    --      5.5002                20.9818                 8.6635

                     22                     23                     24
                      A                      A                      A
 Frequencies --   1076.1318              1091.8981              1127.2220
 Red. masses --      1.7665                 3.7605                 2.1736
 Frc consts  --      1.2053                 2.6415                 1.6272
 IR Inten    --     35.0549                10.8856                59.5358

                     25                     26                     27
                      A                      A                      A
 Frequencies --   1149.6510              1151.1929              1190.3240
 Red. masses --      2.5543                 2.6467                 1.5135
 Frc consts  --      1.9891                 2.0666                 1.2635
 IR Inten    --     13.3946                31.1344                13.9198

                     28                     29                     30
                      A                      A                      A
 Frequencies --   1228.3598              1236.4986              1256.7183
 Red. masses --      1.3496                 1.3279                 1.2595
 Frc consts  --      1.1998                 1.1962                 1.1720
 IR Inten    --     18.7265                19.2555                 8.3217

                     31                     32                     33
                      A                      A                      A
 Frequencies --   1289.1336              1310.7130              1312.6442
 Red. masses --      1.2861                 1.4320                 1.2445
 Frc consts  --      1.2593                 1.4494                 1.2634
 IR Inten    --      2.2406                 6.5295                31.0117

                     34                     35                     36
                      A                      A                      A
 Frequencies --   1358.7627              1370.5950              1403.4210
 Red. masses --      1.6700                 1.3375                 1.4139
 Frc consts  --      1.8166                 1.4803                 1.6408
 IR Inten    --      7.8391                 1.7269                20.4858

                     37                     38                     39
                      A                      A                      A
 Frequencies --   1415.9702              1459.6092              1487.5549
 Red. masses --      1.3812                 1.1301                 1.0830
 Frc consts  --      1.6317                 1.4186                 1.4119
 IR Inten    --      4.5604                 1.8170                 0.5382

                     40                     41                     42
                      A                      A                      A
 Frequencies --   1503.9732              1778.5605              2933.5729
 Red. masses --      1.0911                 8.5244                 1.0729
 Frc consts  --      1.4541                15.8873                 5.4401
 IR Inten    --      2.6932                 3.5795                72.6982

                     43                     44                     45
                      A                      A                      A
 Frequencies --   3005.7866              3024.4432              3035.0295
 Red. masses --      1.0849                 1.0630                 1.0611
 Frc consts  --      5.7752                 5.7290                 5.7590
 IR Inten    --     64.3891                38.9938                36.2988

                     46                     47                     48
                      A                      A                      A
 Frequencies --   3038.1398              3046.8130              3090.5443
 Red. masses --      1.0865                 1.0815                 1.1057
 Frc consts  --      5.9089                 5.9152                 6.2225
 IR Inten    --     33.6311                48.5947                19.8396

                     49                     50                     51
                      A                      A                      A
 Frequencies --   3094.2514              3161.1419              3818.0104
 Red. masses --      1.1029                 1.0913                 1.0662
 Frc consts  --      6.2215                 6.4254                 9.1572
 IR Inten    --     47.1120                16.3354                22.4905

 - Thermochemistry -
 -------------------
 Temperature   298.150 Kelvin.  Pressure   1.00000 Atm.
 Atom     1 has atomic number  8 and mass  15.99491

 Molecular mass:   126.06808 amu.
 Principal axes and moments of inertia in atomic units:
                           1         2         3
     Eigenvalues --   595.506001260.391781562.17427
           X            0.99984   0.00147  -0.01786
           Y           -0.00106   0.99975   0.02253
           Z            0.01789  -0.02251   0.99959
 This molecule is an asymmetric top.
 Rotational symmetry number  1.
 Warning -- assumption of classical behavior for rotation
           may cause significant error
 Rotational temperatures (Kelvin)      0.14545     0.06872     0.05544
 Rotational constants (GHZ):           3.03060     1.43189     1.15528
 Zero-point vibrational energy     421537.3 (Joules/Mol)
                                  100.74983 (Kcal/Mol)
 Warning -- explicit consideration of  10 degrees of freedom as
           vibrations may cause significant error
 Vibrational temperatures:    132.64   280.12   351.43   397.66   414.47
          (Kelvin)            477.93   580.07   634.10   746.62   755.66
                              956.24  1102.27  1140.94  1204.26  1223.10
                             1263.92  1328.14  1393.00  1395.43  1465.11
                             1502.50  1548.31  1571.00  1621.82  1654.09
                             1656.31  1712.61  1767.33  1779.04  1808.14
                             1854.77  1885.82  1888.60  1954.95  1971.98
                             2019.21  2037.26  2100.05  2140.26  2163.88
                             2558.95  4220.75  4324.65  4351.49  4366.72
                             4371.20  4383.68  4446.60  4451.93  4548.17
                             5493.26

 Zero-point correction=                           0.160555 (Hartree/Particle)
 Thermal correction to Energy=                    0.168408
 Thermal correction to Enthalpy=                  0.169352
 Thermal correction to Gibbs Free Energy=         0.128373
 Sum of electronic and zero-point Energies=           -423.003553
 Sum of electronic and thermal Energies=              -422.995700
 Sum of electronic and thermal Enthalpies=            -422.994756
 Sum of electronic and thermal Free Energies=         -423.035735

                     E (Thermal)             CV                S
                      KCal/Mol        Cal/Mol-Kelvin    Cal/Mol-Kelvin
 Total                  105.678             30.977             86.248
 Electronic               0.000              0.000              0.000
 Translational            0.889              2.981             40.409
 Rotational               0.889              2.981             28.552
 Vibrational            103.900             25.016             17.287
 Vibration     1          0.602              1.955              3.613
 Vibration     2          0.635              1.847              2.183
 Vibration     3          0.660              1.772              1.772
 Vibration     4          0.678              1.717              1.556
 Vibration     5          0.685              1.696              1.485
 Vibration     6          0.714              1.611              1.249
 Vibration     7          0.769              1.463              0.951
 Vibration     8          0.801              1.381              0.824
 Vibration     9          0.874              1.208              0.612
 Vibration    10          0.880              1.194              0.598

 Normal termination of Gaussian 09 at Tue Jan 28 03:33:09 2020.
