 Gaussian 09, Revision D.01,
 Gaussian 09:  ES64L-G09RevD.01 24-Apr-2013

 -----------------------------
 # b3lyp 6-31G(2df,p) opt Freq
 -----------------------------

 -----
 titel
 -----
 Symbolic Z-matrix:
 Charge =  0 Multiplicity = 1

 SCF Done:  E(RB3LYP) =  -423.124230361     A.U. after   13 cycles
 Optimization completed.
    -- Stationary point found.
 Normal termination of Gaussian 09 at Tue Jan 28 00:02:15 2020.

 ----------------------------------------------------------------------
 #N Geom=AllCheck Guess=TCheck SCRF=Check GenChk RB3LYP/6-31G(2df,p) Fr
 eq
 ----------------------------------------------------------------------

 Structure from the checkpoint file:  "/scratch/puck/g09_85722de9-5ff4-4bee-a35a-da4f52f195e5/Gau-104168.chk"
 -----
 titel
 -----
 Charge =  0 Multiplicity = 1

                         Standard orientation:
 ---------------------------------------------------------------------
 Center     Atomic      Atomic             Coordinates (Angstroms)
 Number     Number       Type             X           Y           Z
 ---------------------------------------------------------------------
      1          8           0        2.048023   -1.426638   -0.191665
      2          6           0        0.797428   -1.048382    0.321503
      3          6           0        0.598401    0.388170    0.888875
      4          6           0        1.235824    1.562235    0.076234
      5          6           0       -0.157317    1.920567   -0.531650
      6          6           0       -0.680562    0.590629    0.000185
      7          6           0       -2.054728    0.023788    0.329566
      8          8           0       -1.656171   -1.292464   -0.135277
      9          6           0       -0.399499   -0.792438   -0.646656
     10          1           0        2.354683   -0.742744   -0.795745
     11          1           0        0.519213   -1.819402    1.045064
     12          1           0        0.605235    0.521807    1.971999
     13          1           0        1.698962    2.340563    0.684577
     14          1           0        1.975270    1.252651   -0.670210
     15          1           0       -0.608418    2.777198   -0.020565
     16          1           0       -0.218391    2.093013   -1.610462
     17          1           0       -2.362294    0.020877    1.382473
     18          1           0       -2.873048    0.428097   -0.282891
     19          1           0       -0.263306   -0.986657   -1.717037
 ---------------------------------------------------------------------

 SCF Done:  E(RB3LYP) =  -423.124230361     A.U. after    1 cycles

 The electronic state is 1-A.
 Alpha  occ. eigenvalues --  -19.14068 -19.13435 -10.23005 -10.22910 -10.22697
 Alpha  occ. eigenvalues --  -10.19802 -10.19634 -10.19291 -10.19033  -1.04020
 Alpha  occ. eigenvalues --   -1.02112  -0.86396  -0.74623  -0.70504  -0.66565
 Alpha  occ. eigenvalues --   -0.61770  -0.59440  -0.52059  -0.51526  -0.50531
 Alpha  occ. eigenvalues --   -0.48018  -0.44152  -0.43325  -0.41759  -0.39462
 Alpha  occ. eigenvalues --   -0.38268  -0.37184  -0.35992  -0.34498  -0.30783
 Alpha  occ. eigenvalues --   -0.29246  -0.27296  -0.27052  -0.23549
 Alpha virt. eigenvalues --    0.04894   0.07646   0.08449   0.10328   0.11703
 Alpha virt. eigenvalues --    0.12973   0.13580   0.15162   0.16154   0.16341
 Alpha virt. eigenvalues --    0.18298   0.18507   0.20779   0.20889   0.21715

 Mulliken charges:
               1
     1  O   -0.422647
     2  C    0.113100
     3  C   -0.115214
     4  C   -0.243128
     5  C   -0.328982
     6  C    0.320784
     7  C   -0.182616
     8  O   -0.289432
     9  C    0.006593
    10  H    0.281235
    11  H    0.105465
    12  H    0.068125
    13  H    0.114646
    14  H    0.086512
    15  H    0.108788
    16  H    0.101816
    17  H    0.103441
    18  H    0.101299
    19  H    0.070215
 Sum of Mulliken charges =   0.00000

 Dipole moment (field-independent basis, Debye):
    X=              0.2235    Y=              2.9694    Z=             -0.2541  Tot=              2.9886
 Quadrupole moment (field-independent basis, Debye-Ang):
   XX=            -55.2508   YY=            -57.5553   ZZ=            -50.4109
   XY=              0.2095   XZ=             -2.4594   YZ=              0.0278

  Exact polarizability:  80.334  -0.454  75.661  -1.709  -0.425  67.330
 Approx polarizability: 111.577  -1.413 108.746  -3.399   0.393 103.371

                      1                      2                      3
                      A                      A                      A
 Frequencies --     84.4324               203.5981               222.5083
 Red. masses --      2.7642                 1.7951                 1.2933
 Frc consts  --      0.0116                 0.0438                 0.0377
 IR Inten    --      3.2363                10.2459                44.5519

                      4                      5                      6
                      A                      A                      A
 Frequencies --    246.2841               289.1242               336.3874
 Red. masses --      3.9023                 2.4391                 2.8276
 Frc consts  --      0.1395                 0.1201                 0.1885
 IR Inten    --      4.0842                20.3939                13.2461

                      7                      8                      9
                      A                      A                      A
 Frequencies --    365.4630               494.5777               547.1892
 Red. masses --      4.5381                 4.2895                 3.6247
 Frc consts  --      0.3571                 0.6182                 0.6394
 IR Inten    --      4.7263                 0.5071                 3.8378

                     10                     11                     12
                      A                      A                      A
 Frequencies --    645.8624               704.8599               784.4172
 Red. masses --      2.9764                 1.6932                 2.3639
 Frc consts  --      0.7315                 0.4956                 0.8570
 IR Inten    --      5.4375                 3.9991                 5.9624

                     13                     14                     15
                      A                      A                      A
 Frequencies --    804.2495               843.5460               888.8876
 Red. masses --      1.9555                 2.5087                 1.9178
 Frc consts  --      0.7452                 1.0518                 0.8928
 IR Inten    --      5.2821                 4.8677                 9.3492

                     16                     17                     18
                      A                      A                      A
 Frequencies --    938.1867               945.3456               973.0972
 Red. masses --      2.7625                 2.0395                 2.9447
 Frc consts  --      1.4326                 1.0739                 1.6429
 IR Inten    --      0.5647                10.2992                 1.4806

                     19                     20                     21
                      A                      A                      A
 Frequencies --    993.6459              1008.2855              1031.1199
 Red. masses --      3.3289                 5.7583                 2.0782
 Frc consts  --      1.9365                 3.4492                 1.3019
 IR Inten    --      4.9001               107.5913                 5.9279

                     22                     23                     24
                      A                      A                      A
 Frequencies --   1070.7112              1089.8025              1123.9050
 Red. masses --      1.9581                 2.4449                 1.6376
 Frc consts  --      1.3226                 1.7108                 1.2188
 IR Inten    --      0.1452                60.8859                 4.3219

                     25                     26                     27
                      A                      A                      A
 Frequencies --   1139.2636              1171.4883              1174.9619
 Red. masses --      1.6837                 1.9859                 1.4895
 Frc consts  --      1.2875                 1.6058                 1.2116
 IR Inten    --     42.4287                25.8170                 5.4553

                     28                     29                     30
                      A                      A                      A
 Frequencies --   1212.6528              1219.9381              1233.0982
 Red. masses --      1.3777                 1.4045                 1.3542
 Frc consts  --      1.1937                 1.2315                 1.2132
 IR Inten    --     10.1179                 4.5229                 0.3400

                     31                     32                     33
                      A                      A                      A
 Frequencies --   1239.9644              1261.1710              1270.8996
 Red. masses --      1.5633                 1.5637                 1.7862
 Frc consts  --      1.4162                 1.4654                 1.6998
 IR Inten    --      2.2088                 1.5998                 1.3262

                     34                     35                     36
                      A                      A                      A
 Frequencies --   1296.7905              1307.7159              1317.8380
 Red. masses --      1.6014                 1.5534                 1.6710
 Frc consts  --      1.5867                 1.5652                 1.7098
 IR Inten    --      2.3418                 4.4563                 3.7186

                     37                     38                     39
                      A                      A                      A
 Frequencies --   1373.6070              1420.7787              1479.3075
 Red. masses --      2.0670                 1.2550                 1.0839
 Frc consts  --      2.2979                 1.4926                 1.3975
 IR Inten    --      1.1914                61.3982                 3.8935

                     40                     41                     42
                      A                      A                      A
 Frequencies --   1495.8738              1517.0744              2998.3088
 Red. masses --      1.1298                 1.1004                 1.0584
 Frc consts  --      1.4895                 1.4921                 5.6060
 IR Inten    --      2.3362                 0.7936                81.2813

                     43                     44                     45
                      A                      A                      A
 Frequencies --   3040.0322              3042.7195              3046.0912
 Red. masses --      1.0856                 1.0609                 1.0673
 Frc consts  --      5.9112                 5.7872                 5.8347
 IR Inten    --     39.5525                49.7213                48.2751

                     46                     47                     48
                      A                      A                      A
 Frequencies --   3049.5466              3078.8236              3089.1505
 Red. masses --      1.1060                 1.0865                 1.1016
 Frc consts  --      6.0599                 6.0678                 6.1940
 IR Inten    --     38.1361                 9.9002                35.9630

                     49                     50                     51
                      A                      A                      A
 Frequencies --   3093.9665              3116.8424              3810.5649
 Red. masses --      1.0931                 1.0992                 1.0655
 Frc consts  --      6.1649                 6.2918                 9.1158
 IR Inten    --     10.1085                43.4858                 8.6304

 - Thermochemistry -
 -------------------
 Temperature   298.150 Kelvin.  Pressure   1.00000 Atm.
 Atom     1 has atomic number  8 and mass  15.99491

 Molecular mass:   126.06808 amu.
 Principal axes and moments of inertia in atomic units:
                           1         2         3
     Eigenvalues --   783.57938 938.175561468.00314
           X            0.99973   0.02117  -0.01007
           Y           -0.02126   0.99973  -0.00904
           Z            0.00987   0.00925   0.99991
 This molecule is an asymmetric top.
 Rotational symmetry number  1.
 Warning -- assumption of classical behavior for rotation
           may cause significant error
 Rotational temperatures (Kelvin)      0.11054     0.09232     0.05900
 Rotational constants (GHZ):           2.30320     1.92367     1.22939
 Zero-point vibrational energy     419494.2 (Joules/Mol)
                                  100.26152 (Kcal/Mol)
 Warning -- explicit consideration of   9 degrees of freedom as
           vibrations may cause significant error
 Vibrational temperatures:    121.48   292.93   320.14   354.35   415.98
          (Kelvin)            483.99   525.82   711.59   787.28   929.25
                             1014.13  1128.60  1157.13  1213.67  1278.91
                             1349.84  1360.14  1400.07  1429.63  1450.70
                             1483.55  1540.51  1567.98  1617.05  1639.14
                             1685.51  1690.51  1744.73  1755.22  1774.15
                             1784.03  1814.54  1828.54  1865.79  1881.51
                             1896.07  1976.31  2044.18  2128.39  2152.23
                             2182.73  4313.89  4373.92  4377.79  4382.64
                             4387.61  4429.73  4444.59  4451.52  4484.44
                             5482.55

 Zero-point correction=                           0.159777 (Hartree/Particle)
 Thermal correction to Energy=                    0.167576
 Thermal correction to Enthalpy=                  0.168520
 Thermal correction to Gibbs Free Energy=         0.127554
 Sum of electronic and zero-point Energies=           -422.964453
 Sum of electronic and thermal Energies=              -422.956655
 Sum of electronic and thermal Enthalpies=            -422.955711
 Sum of electronic and thermal Free Energies=         -422.996677

                     E (Thermal)             CV                S
                      KCal/Mol        Cal/Mol-Kelvin    Cal/Mol-Kelvin
 Total                  105.155             30.659             86.220
 Electronic               0.000              0.000              0.000
 Translational            0.889              2.981             40.409
 Rotational               0.889              2.981             28.469
 Vibrational            103.378             24.698             17.342
 Vibration     1          0.601              1.960              3.785
 Vibration     2          0.639              1.835              2.100
 Vibration     3          0.648              1.807              1.939
 Vibration     4          0.661              1.769              1.757
 Vibration     5          0.686              1.694              1.479
 Vibration     6          0.717              1.603              1.229
 Vibration     7          0.739              1.543              1.099
 Vibration     8          0.850              1.262              0.672
 Vibration     9          0.902              1.146              0.550

 Optimization completed.
    -- Stationary point found.
 Normal termination of Gaussian 09 at Tue Jan 28 00:51:38 2020.
