 Gaussian 09, Revision D.01,
 Gaussian 09:  ES64L-G09RevD.01 24-Apr-2013

 -----------------------------
 # b3lyp 6-31G(2df,p) opt Freq
 -----------------------------

 -----
 titel
 -----
 Symbolic Z-matrix:
 Charge =  0 Multiplicity = 1

 SCF Done:  E(RB3LYP) =  -423.154604720     A.U. after   14 cycles
 Optimization completed.
    -- Stationary point found.
 Normal termination of Gaussian 09 at Tue Jan 28 08:51:19 2020.

 ----------------------------------------------------------------------
 #N Geom=AllCheck Guess=TCheck SCRF=Check GenChk RB3LYP/6-31G(2df,p) Fr
 eq
 ----------------------------------------------------------------------

 Structure from the checkpoint file:  "/scratch/puck/g09_8d6830cb-a1ec-4cf5-9d92-6d0ee56e3eb8/Gau-103547.chk"
 -----
 titel
 -----
 Charge =  0 Multiplicity = 1

                         Standard orientation:
 ---------------------------------------------------------------------
 Center     Atomic      Atomic             Coordinates (Angstroms)
 Number     Number       Type             X           Y           Z
 ---------------------------------------------------------------------
      1          6           0        2.563565   -0.371540   -0.670007
      2          8           0        1.445150    0.492003   -0.710849
      3          6           0        0.387313    0.232394    0.214018
      4          6           0        0.868755    0.030679    1.656367
      5          6           0       -0.572106    1.409453    0.110113
      6          6           0       -1.763281    1.065173   -0.380206
      7          6           0       -1.800635   -0.399896   -0.665308
      8          8           0       -1.621574   -1.224543    0.518125
      9          6           0       -0.485567   -0.933616   -0.295308
     10          1           0        2.286079   -1.433638   -0.731260
     11          1           0        3.172760   -0.125664   -1.543459
     12          1           0        3.173490   -0.227298    0.231800
     13          1           0        0.002505   -0.112628    2.304866
     14          1           0        1.509598   -0.850197    1.752668
     15          1           0        1.429262    0.905794    1.999471
     16          1           0       -0.279485    2.395467    0.452831
     17          1           0       -2.608758    1.726302   -0.525221
     18          1           0       -2.441508   -0.831690   -1.427448
     19          1           0       -0.020820   -1.782006   -0.790465
 ---------------------------------------------------------------------

 SCF Done:  E(RB3LYP) =  -423.154604720     A.U. after    1 cycles

 The electronic state is 1-A.
 Alpha  occ. eigenvalues --  -19.14836 -19.14096 -10.24489 -10.23591 -10.23040
 Alpha  occ. eigenvalues --  -10.22590 -10.18912 -10.18678 -10.17700  -1.06814
 Alpha  occ. eigenvalues --   -1.02990  -0.82123  -0.74789  -0.69350  -0.66692
 Alpha  occ. eigenvalues --   -0.64451  -0.56797  -0.54766  -0.52952  -0.47607
 Alpha  occ. eigenvalues --   -0.46120  -0.45117  -0.43777  -0.41287  -0.40108
 Alpha  occ. eigenvalues --   -0.39515  -0.38632  -0.37089  -0.35257  -0.32517
 Alpha  occ. eigenvalues --   -0.30143  -0.27549  -0.25669  -0.24238
 Alpha virt. eigenvalues --   -0.00506   0.09066   0.10564   0.11264   0.13129
 Alpha virt. eigenvalues --    0.13401   0.14961   0.15475   0.16295   0.16659
 Alpha virt. eigenvalues --    0.16763   0.17845   0.18767   0.20439   0.22560

 Mulliken charges:
               1
     1  C   -0.246400
     2  O   -0.288305
     3  C    0.330451
     4  C   -0.452740
     5  C   -0.107188
     6  C   -0.097178
     7  C   -0.003033
     8  O   -0.260638
     9  C   -0.016230
    10  H    0.106417
    11  H    0.129064
    12  H    0.113187
    13  H    0.145821
    14  H    0.118534
    15  H    0.119731
    16  H    0.106115
    17  H    0.106746
    18  H    0.099982
    19  H    0.095664
 Sum of Mulliken charges =   0.00000

 Dipole moment (field-independent basis, Debye):
    X=              0.8823    Y=              0.1455    Z=             -0.4589  Tot=              1.0051
 Quadrupole moment (field-independent basis, Debye-Ang):
   XX=            -50.0334   YY=            -52.8754   ZZ=            -53.8122
   XY=             -4.5082   XZ=              3.6446   YZ=              3.4107

  Exact polarizability:  92.305  -2.629  71.254   6.581   3.181  63.849
 Approx polarizability: 131.847   2.113 108.229   9.456   0.843  96.692

                      1                      2                      3
                      A                      A                      A
 Frequencies --    115.4182               145.4224               169.6591
 Red. masses --      2.4067                 3.3707                 1.4352
 Frc consts  --      0.0189                 0.0420                 0.0243
 IR Inten    --      2.3743                 2.7631                 0.2787

                      4                      5                      6
                      A                      A                      A
 Frequencies --    220.0126               252.3694               319.0938
 Red. masses --      1.7969                 1.4456                 1.9392
 Frc consts  --      0.0512                 0.0542                 0.1163
 IR Inten    --      6.0843                 1.8076                 1.6169

                      7                      8                      9
                      A                      A                      A
 Frequencies --    345.1939               396.9809               429.0752
 Red. masses --      4.1366                 3.0270                 3.0850
 Frc consts  --      0.2904                 0.2811                 0.3346
 IR Inten    --      3.1555                 7.6719                 1.9044

                     10                     11                     12
                      A                      A                      A
 Frequencies --    473.8129               592.3939               621.5101
 Red. masses --      3.7934                 4.0296                 4.0382
 Frc consts  --      0.5018                 0.8332                 0.9190
 IR Inten    --      1.5864                 1.2172                 5.0396

                     13                     14                     15
                      A                      A                      A
 Frequencies --    757.4260               770.0878               819.6600
 Red. masses --      3.6127                 2.0545                 3.3556
 Frc consts  --      1.2211                 0.7179                 1.3283
 IR Inten    --      2.5306                10.8174                 3.4929

                     16                     17                     18
                      A                      A                      A
 Frequencies --    848.8888               873.7143               898.6132
 Red. masses --      3.3514                 2.3243                 2.1317
 Frc consts  --      1.4229                 1.0454                 1.0142
 IR Inten    --      7.4927                37.9612                15.8356

                     19                     20                     21
                      A                      A                      A
 Frequencies --    952.9254               957.8971               989.9594
 Red. masses --      1.6675                 1.5733                 2.0977
 Frc consts  --      0.8921                 0.8506                 1.2112
 IR Inten    --      1.5339                 6.6068                13.2653

                     22                     23                     24
                      A                      A                      A
 Frequencies --   1030.1925              1081.8257              1103.3784
 Red. masses --      1.8055                 3.1647                 1.4380
 Frc consts  --      1.1289                 2.1822                 1.0315
 IR Inten    --     15.9076                28.1362                 8.3684

                     25                     26                     27
                      A                      A                      A
 Frequencies --   1106.0515              1133.3871              1177.3861
 Red. masses --      1.2897                 3.0065                 1.3098
 Frc consts  --      0.9295                 2.2754                 1.0698
 IR Inten    --      3.6429                91.8754                 1.1388

                     28                     29                     30
                      A                      A                      A
 Frequencies --   1192.1118              1215.8113              1249.5966
 Red. masses --      2.2618                 1.8548                 1.6886
 Frc consts  --      1.8938                 1.6154                 1.5536
 IR Inten    --     88.2294                16.6677                 6.2061

                     31                     32                     33
                      A                      A                      A
 Frequencies --   1256.9850              1301.5834              1375.9987
 Red. masses --      1.8116                 1.4864                 1.8301
 Frc consts  --      1.6864                 1.4837                 2.0415
 IR Inten    --     11.4323                 3.6132                17.3667

                     34                     35                     36
                      A                      A                      A
 Frequencies --   1394.8785              1416.9840              1476.0296
 Red. masses --      1.3854                 2.6798                 1.1198
 Frc consts  --      1.5882                 3.1702                 1.4374
 IR Inten    --     14.4879                 3.7929                 0.5295

                     37                     38                     39
                      A                      A                      A
 Frequencies --   1486.2806              1493.5975              1503.3103
 Red. masses --      1.0540                 1.0564                 1.0728
 Frc consts  --      1.3719                 1.3884                 1.4284
 IR Inten    --      0.9979                 7.4206                 7.8768

                     40                     41                     42
                      A                      A                      A
 Frequencies --   1513.3665              1667.3534              2992.8217
 Red. masses --      1.0494                 6.6185                 1.0360
 Frc consts  --      1.4161                10.8409                 5.4673
 IR Inten    --      5.5482                 0.7812                46.8788

                     43                     44                     45
                      A                      A                      A
 Frequencies --   3042.7312              3048.0497              3110.5278
 Red. masses --      1.0733                 1.0631                 1.0983
 Frc consts  --      5.8548                 5.8193                 6.2608
 IR Inten    --     12.2583                56.1669                27.6932

                     46                     47                     48
                      A                      A                      A
 Frequencies --   3114.7288              3140.1682              3148.3966
 Red. masses --      1.1013                 1.0998                 1.0887
 Frc consts  --      6.2948                 6.3895                 6.3583
 IR Inten    --     19.1866                 7.8618                19.9798

                     49                     50                     51
                      A                      A                      A
 Frequencies --   3169.7096              3193.4424              3219.7779
 Red. masses --      1.0929                 1.0864                 1.1044
 Frc consts  --      6.4695                 6.5279                 6.7459
 IR Inten    --     26.4589                 7.3738                13.2997

 - Thermochemistry -
 -------------------
 Temperature   298.150 Kelvin.  Pressure   1.00000 Atm.
 Atom     1 has atomic number  6 and mass  12.00000

 Molecular mass:   126.06808 amu.
 Principal axes and moments of inertia in atomic units:
                           1         2         3
     Eigenvalues --   621.733041315.313151385.50742
           X            0.99902  -0.04212   0.01357
           Y            0.03860   0.97936   0.19838
           Z           -0.02164  -0.19766   0.98003
 This molecule is an asymmetric top.
 Rotational symmetry number  1.
 Warning -- assumption of classical behavior for rotation
           may cause significant error
 Rotational temperatures (Kelvin)      0.13931     0.06585     0.06251
 Rotational constants (GHZ):           2.90276     1.37210     1.30259
 Zero-point vibrational energy     414545.4 (Joules/Mol)
                                   99.07872 (Kcal/Mol)
 Warning -- explicit consideration of  11 degrees of freedom as
           vibrations may cause significant error
 Vibrational temperatures:    166.06   209.23   244.10   316.55   363.10
          (Kelvin)            459.10   496.66   571.17   617.34   681.71
                              852.32   894.21  1089.77  1107.98  1179.31
                             1221.36  1257.08  1292.90  1371.05  1378.20
                             1424.33  1482.22  1556.50  1587.51  1591.36
                             1630.69  1693.99  1715.18  1749.28  1797.89
                             1808.52  1872.69  1979.75  2006.92  2038.72
                             2123.67  2138.42  2148.95  2162.93  2177.39
                             2398.95  4306.00  4377.81  4385.46  4475.35
                             4481.39  4518.00  4529.83  4560.50  4594.65
                             4632.54

 Zero-point correction=                           0.157892 (Hartree/Particle)
 Thermal correction to Energy=                    0.166447
 Thermal correction to Enthalpy=                  0.167391
 Thermal correction to Gibbs Free Energy=         0.125098
 Sum of electronic and zero-point Energies=           -422.996713
 Sum of electronic and thermal Energies=              -422.988158
 Sum of electronic and thermal Enthalpies=            -422.987214
 Sum of electronic and thermal Free Energies=         -423.029507

                     E (Thermal)             CV                S
                      KCal/Mol        Cal/Mol-Kelvin    Cal/Mol-Kelvin
 Total                  104.447             32.915             89.013
 Electronic               0.000              0.000              0.000
 Translational            0.889              2.981             40.409
 Rotational               0.889              2.981             28.518
 Vibrational            102.669             26.954             20.087
 Vibration     1          0.608              1.937              3.176
 Vibration     2          0.617              1.908              2.731
 Vibration     3          0.625              1.880              2.439
 Vibration     4          0.647              1.811              1.959
 Vibration     5          0.664              1.759              1.714
 Vibration     6          0.705              1.637              1.315
 Vibration     7          0.724              1.585              1.188
 Vibration     8          0.763              1.477              0.974
 Vibration     9          0.790              1.407              0.862
 Vibration    10          0.831              1.308              0.727
 Vibration    11          0.950              1.048              0.463

 Optimization completed.
    -- Stationary point found.
 Normal termination of Gaussian 09 at Tue Jan 28 09:35:29 2020.
