 Gaussian 09, Revision D.01,
 Gaussian 09:  ES64L-G09RevD.01 24-Apr-2013

 -----------------------------
 # b3lyp 6-31G(2df,p) opt Freq
 -----------------------------

 -----
 titel
 -----
 Symbolic Z-matrix:
 Charge =  0 Multiplicity = 1

 SCF Done:  E(RB3LYP) =  -423.152645649     A.U. after   14 cycles
 Optimization completed.
    -- Stationary point found.
 Normal termination of Gaussian 09 at Mon Jan 27 16:33:06 2020.

 ----------------------------------------------------------------------
 #N Geom=AllCheck Guess=TCheck SCRF=Check GenChk RB3LYP/6-31G(2df,p) Fr
 eq
 ----------------------------------------------------------------------

 Structure from the checkpoint file:  "/scratch/puck/g09_0f0bd97f-2ea4-4e99-bfea-a6206c032f44/Gau-12369.chk"
 -----
 titel
 -----
 Charge =  0 Multiplicity = 1

                         Standard orientation:
 ---------------------------------------------------------------------
 Center     Atomic      Atomic             Coordinates (Angstroms)
 Number     Number       Type             X           Y           Z
 ---------------------------------------------------------------------
      1          6           0       -0.326448    1.775739   -0.726720
      2          6           0        0.130884    0.516272   -0.002177
      3          6           0       -0.938801   -0.014558    0.989063
      4          6           0       -2.188240   -0.410443    0.354767
      5          6           0       -3.225727   -0.725619   -0.163534
      6          6           0        1.484856    0.666869    0.720872
      7          8           0        2.052104   -0.628564    0.614912
      8          6           0        1.690395   -1.060303   -0.673576
      9          8           0        0.418887   -0.510237   -0.965000
     10          1           0       -0.485881    2.594597   -0.016710
     11          1           0        0.426126    2.087398   -1.455720
     12          1           0       -1.266093    1.590578   -1.252122
     13          1           0       -0.503823   -0.868549    1.521374
     14          1           0       -1.138475    0.761074    1.740310
     15          1           0       -4.137991   -1.014252   -0.623475
     16          1           0        2.112176    1.418359    0.216761
     17          1           0        1.399355    0.921178    1.779463
     18          1           0        2.421388   -0.713185   -1.425582
     19          1           0        1.643776   -2.154530   -0.675757
 ---------------------------------------------------------------------

 SCF Done:  E(RB3LYP) =  -423.152645649     A.U. after    1 cycles

 The electronic state is 1-A.
 Alpha  occ. eigenvalues --  -19.15513 -19.14283 -10.27554 -10.25133 -10.23805
 Alpha  occ. eigenvalues --  -10.20705 -10.17982 -10.17854 -10.16733  -1.09189
 Alpha  occ. eigenvalues --   -0.99677  -0.81881  -0.75627  -0.70292  -0.69523
 Alpha  occ. eigenvalues --   -0.64024  -0.58446  -0.53171  -0.50856  -0.50475
 Alpha  occ. eigenvalues --   -0.47219  -0.45583  -0.44961  -0.42608  -0.41121
 Alpha  occ. eigenvalues --   -0.40447  -0.38732  -0.36993  -0.33841  -0.33187
 Alpha  occ. eigenvalues --   -0.28403  -0.26376  -0.26003  -0.25036
 Alpha virt. eigenvalues --    0.04963   0.05903   0.08957   0.10536   0.11884
 Alpha virt. eigenvalues --    0.13104   0.13853   0.14323   0.15156   0.15979
 Alpha virt. eigenvalues --    0.16701   0.17578   0.18531   0.18849   0.21491

 Mulliken charges:
               1
     1  C   -0.436335
     2  C    0.367357
     3  C   -0.392662
     4  C    0.317774
     5  C   -0.444142
     6  C   -0.150650
     7  O   -0.241196
     8  C    0.019882
     9  O   -0.295028
    10  H    0.114636
    11  H    0.120014
    12  H    0.145966
    13  H    0.138892
    14  H    0.124209
    15  H    0.194008
    16  H    0.093034
    17  H    0.118151
    18  H    0.087894
    19  H    0.118195
 Sum of Mulliken charges =   0.00000

 Dipole moment (field-independent basis, Debye):
    X=              0.4052    Y=              1.2628    Z=              0.3128  Tot=              1.3626
 Quadrupole moment (field-independent basis, Debye-Ang):
   XX=            -52.7548   YY=            -51.3516   ZZ=            -53.2504
   XY=              1.3234   XZ=             -0.6860   YZ=              1.8382

  Exact polarizability:  93.003   4.399  70.902   4.291   3.834  65.895
 Approx polarizability: 129.459   8.596 100.559  14.938   8.149 102.100

                      1                      2                      3
                      A                      A                      A
 Frequencies --     53.2505                89.0692               133.7107
 Red. masses --      3.4302                 3.0865                 3.9917
 Frc consts  --      0.0057                 0.0144                 0.0420
 IR Inten    --      0.3836                 1.2463                 0.4790

                      4                      5                      6
                      A                      A                      A
 Frequencies --    213.5951               224.9074               310.0179
 Red. masses --      2.1933                 1.3131                 2.3111
 Frc consts  --      0.0590                 0.0391                 0.1309
 IR Inten    --      4.2855                 2.3041                 3.8595

                      7                      8                      9
                      A                      A                      A
 Frequencies --    316.7231               353.4065               373.9755
 Red. masses --      3.3379                 3.0558                 2.4968
 Frc consts  --      0.1973                 0.2249                 0.2057
 IR Inten    --      1.4850                 1.9221                 0.9792

                     10                     11                     12
                      A                      A                      A
 Frequencies --    405.2377               515.5462               615.3187
 Red. masses --      2.7906                 4.1678                 1.2058
 Frc consts  --      0.2700                 0.6527                 0.2690
 IR Inten    --      0.3770                 6.5937                41.5161

                     13                     14                     15
                      A                      A                      A
 Frequencies --    637.1104               671.5515               734.7168
 Red. masses --      1.2882                 3.6252                 6.7267
 Frc consts  --      0.3081                 0.9633                 2.1394
 IR Inten    --     37.7276                 8.8022                 3.7038

                     16                     17                     18
                      A                      A                      A
 Frequencies --    790.7174               886.9417               895.8317
 Red. masses --      4.5502                 1.9322                 2.4989
 Frc consts  --      1.6762                 0.8956                 1.1816
 IR Inten    --     10.4225                 0.6621                10.0238

                     19                     20                     21
                      A                      A                      A
 Frequencies --    932.7944               981.2083               985.1207
 Red. masses --      1.9809                 3.6354                 2.4054
 Frc consts  --      1.0155                 2.0622                 1.3753
 IR Inten    --      6.2532                56.8895                10.9601

                     22                     23                     24
                      A                      A                      A
 Frequencies --   1012.1422              1050.8985              1118.5356
 Red. masses --      2.0864                 3.6486                 3.3890
 Frc consts  --      1.2593                 2.3741                 2.4981
 IR Inten    --     10.6313                48.2099               116.2103

                     25                     26                     27
                      A                      A                      A
 Frequencies --   1126.1521              1160.9130              1194.1194
 Red. masses --      2.0059                 1.8554                 1.2976
 Frc consts  --      1.4988                 1.4733                 1.0902
 IR Inten    --     39.9939                44.3055                16.9541

                     28                     29                     30
                      A                      A                      A
 Frequencies --   1209.9412              1225.3967              1280.3142
 Red. masses --      2.0979                 1.7107                 1.3158
 Frc consts  --      1.8095                 1.5135                 1.2707
 IR Inten    --     24.1595                25.1391                27.5353

                     31                     32                     33
                      A                      A                      A
 Frequencies --   1283.6624              1340.3824              1369.4190
 Red. masses --      1.5219                 1.4897                 1.4170
 Frc consts  --      1.4776                 1.5769                 1.5657
 IR Inten    --     10.8921                 5.0745                 0.1613

                     34                     35                     36
                      A                      A                      A
 Frequencies --   1410.3509              1433.5994              1464.2982
 Red. masses --      1.3060                 1.2738                 1.0915
 Frc consts  --      1.5305                 1.5424                 1.3789
 IR Inten    --     10.0540                 7.6180                 3.4191

                     37                     38                     39
                      A                      A                      A
 Frequencies --   1485.7039              1496.5975              1509.5076
 Red. masses --      1.0569                 1.0517                 1.0901
 Frc consts  --      1.3746                 1.3879                 1.4635
 IR Inten    --      2.4035                 2.8250                 4.1330

                     40                     41                     42
                      A                      A                      A
 Frequencies --   1549.0520              2239.6739              2942.2893
 Red. masses --      1.1041                 5.9358                 1.0704
 Frc consts  --      1.5609                17.5429                 5.4596
 IR Inten    --      4.3308                 2.0795               117.2419

                     43                     44                     45
                      A                      A                      A
 Frequencies --   2985.8385              3019.9213              3041.7982
 Red. masses --      1.0701                 1.0605                 1.0373
 Frc consts  --      5.6209                 5.6986                 5.6548
 IR Inten    --     56.1066                13.9292                16.7233

                     46                     47                     48
                      A                      A                      A
 Frequencies --   3064.2696              3066.3127              3108.4419
 Red. masses --      1.0992                 1.0944                 1.0952
 Frc consts  --      6.0811                 6.0626                 6.2350
 IR Inten    --      6.3038                51.5415                 8.3583

                     49                     50                     51
                      A                      A                      A
 Frequencies --   3113.2089              3133.3268              3507.5397
 Red. masses --      1.0991                 1.1018                 1.1621
 Frc consts  --      6.2763                 6.3734                 8.4233
 IR Inten    --     29.2400                12.5378                65.3047

 - Thermochemistry -
 -------------------
 Temperature   298.150 Kelvin.  Pressure   1.00000 Atm.
 Atom     1 has atomic number  6 and mass  12.00000

 Molecular mass:   126.06808 amu.
 Principal axes and moments of inertia in atomic units:
                           1         2         3
     Eigenvalues --   608.767441532.064341656.82194
           X            1.00000   0.00157  -0.00273
           Y           -0.00157   1.00000  -0.00075
           Z            0.00272   0.00076   1.00000
 This molecule is an asymmetric top.
 Rotational symmetry number  1.
 Warning -- assumption of classical behavior for rotation
           may cause significant error
 Rotational temperatures (Kelvin)      0.14228     0.05653     0.05228
 Rotational constants (GHZ):           2.96458     1.17798     1.08928
 Zero-point vibrational energy     413096.6 (Joules/Mol)
                                   98.73246 (Kcal/Mol)
 Warning -- explicit consideration of  12 degrees of freedom as
           vibrations may cause significant error
 Vibrational temperatures:     76.62   128.15   192.38   307.32   323.59
          (Kelvin)            446.05   455.69   508.47   538.07   583.05
                              741.76   885.31   916.66   966.21  1057.09
                             1137.66  1276.11  1288.90  1342.08  1411.74
                             1417.37  1456.25  1512.01  1609.32  1620.28
                             1670.29  1718.07  1740.83  1763.07  1842.08
                             1846.90  1928.51  1970.29  2029.18  2062.63
                             2106.80  2137.59  2153.27  2171.84  2228.74
                             3222.39  4233.29  4295.95  4344.99  4376.46
                             4408.79  4411.73  4472.35  4479.21  4508.15
                             5046.56

 Zero-point correction=                           0.157340 (Hartree/Particle)
 Thermal correction to Energy=                    0.166604
 Thermal correction to Enthalpy=                  0.167548
 Thermal correction to Gibbs Free Energy=         0.122985
 Sum of electronic and zero-point Energies=           -422.995305
 Sum of electronic and thermal Energies=              -422.986042
 Sum of electronic and thermal Enthalpies=            -422.985098
 Sum of electronic and thermal Free Energies=         -423.029661

                     E (Thermal)             CV                S
                      KCal/Mol        Cal/Mol-Kelvin    Cal/Mol-Kelvin
 Total                  104.545             34.222             93.791
 Electronic               0.000              0.000              0.000
 Translational            0.889              2.981             40.409
 Rotational               0.889              2.981             28.826
 Vibrational            102.768             28.260             24.556
 Vibration     1          0.596              1.976              4.693
 Vibration     2          0.602              1.957              3.680
 Vibration     3          0.613              1.920              2.892
 Vibration     4          0.644              1.820              2.013
 Vibration     5          0.650              1.803              1.919
 Vibration     6          0.699              1.655              1.362
 Vibration     7          0.704              1.642              1.327
 Vibration     8          0.730              1.568              1.151
 Vibration     9          0.745              1.526              1.063
 Vibration    10          0.770              1.459              0.944
 Vibration    11          0.871              1.216              0.620
 Vibration    12          0.975              0.999              0.424

 Optimization completed.
    -- Stationary point found.
 Normal termination of Gaussian 09 at Mon Jan 27 18:25:18 2020.
