 Gaussian 09, Revision D.01,
 Gaussian 09:  ES64L-G09RevD.01 24-Apr-2013

 -----------------------------
 # b3lyp 6-31G(2df,p) opt Freq
 -----------------------------

 -----
 titel
 -----
 Symbolic Z-matrix:
 Charge =  0 Multiplicity = 1

 SCF Done:  E(RB3LYP) =  -423.121520990     A.U. after   14 cycles
 Optimization completed.
    -- Stationary point found.
 Normal termination of Gaussian 09 at Mon Jan 27 22:01:41 2020.

 ----------------------------------------------------------------------
 #N Geom=AllCheck Guess=TCheck SCRF=Check GenChk RB3LYP/6-31G(2df,p) Fr
 eq
 ----------------------------------------------------------------------

 Structure from the checkpoint file:  "/scratch/puck/g09_546392d6-6b18-49f1-b84a-16871c4646be/Gau-175810.chk"
 -----
 titel
 -----
 Charge =  0 Multiplicity = 1

                         Standard orientation:
 ---------------------------------------------------------------------
 Center     Atomic      Atomic             Coordinates (Angstroms)
 Number     Number       Type             X           Y           Z
 ---------------------------------------------------------------------
      1          6           0       -1.914116    1.318483    0.001821
      2          6           0       -0.604318    0.550702    0.030843
      3          6           0        0.617033    1.468110    0.143888
      4          8           0        1.808628    0.863386   -0.318826
      5          6           0        1.960334   -0.464903    0.146001
      6          6           0        0.653474   -1.235358    0.046661
      7          6           0       -0.446997   -0.693918   -0.909307
      8          8           0       -1.456439   -1.415621   -0.104730
      9          6           0       -0.566306   -0.761551    0.875856
     10          1           0       -1.965251    1.971523   -0.876551
     11          1           0       -2.758581    0.628471   -0.024964
     12          1           0       -2.011131    1.955355    0.889015
     13          1           0        0.476846    2.361850   -0.472871
     14          1           0        0.724028    1.805931    1.190827
     15          1           0        2.730106   -0.920722   -0.484851
     16          1           0        2.331989   -0.482112    1.186068
     17          1           0        0.771491   -2.320174    0.027059
     18          1           0       -0.525370   -0.762420   -1.994986
     19          1           0       -0.786264   -0.909221    1.935127
 ---------------------------------------------------------------------

 SCF Done:  E(RB3LYP) =  -423.121520990     A.U. after    1 cycles

 The electronic state is 1-A.
 Alpha  occ. eigenvalues --  -19.14231 -19.13287 -10.24693 -10.24461 -10.23235
 Alpha  occ. eigenvalues --  -10.23045 -10.20459 -10.19825 -10.17600  -1.06056
 Alpha  occ. eigenvalues --   -1.03510  -0.80842  -0.77344  -0.70434  -0.65463
 Alpha  occ. eigenvalues --   -0.64254  -0.61055  -0.52244  -0.49697  -0.48868
 Alpha  occ. eigenvalues --   -0.48661  -0.45404  -0.43928  -0.41206  -0.39662
 Alpha  occ. eigenvalues --   -0.38787  -0.37737  -0.36246  -0.34580  -0.32158
 Alpha  occ. eigenvalues --   -0.30703  -0.29198  -0.25402  -0.23823
 Alpha virt. eigenvalues --    0.07395   0.10023   0.10752   0.11596   0.12764
 Alpha virt. eigenvalues --    0.12899   0.13621   0.14631   0.15318   0.15977
 Alpha virt. eigenvalues --    0.16990   0.17464   0.18641   0.19548   0.20056

 Mulliken charges:
               1
     1  C   -0.488308
     2  C    0.312656
     3  C   -0.157911
     4  O   -0.244733
     5  C   -0.121371
     6  C   -0.032561
     7  C    0.006422
     8  O   -0.317502
     9  C   -0.000949
    10  H    0.116504
    11  H    0.143747
    12  H    0.114899
    13  H    0.110976
    14  H    0.088399
    15  H    0.114629
    16  H    0.090324
    17  H    0.086146
    18  H    0.092396
    19  H    0.086238
 Sum of Mulliken charges =   0.00000

 Dipole moment (field-independent basis, Debye):
    X=              0.5256    Y=              0.4773    Z=              0.6996  Tot=              0.9968
 Quadrupole moment (field-independent basis, Debye-Ang):
   XX=            -57.8634   YY=            -54.3666   ZZ=            -50.3178
   XY=             -6.1145   XZ=              0.7943   YZ=              0.2594

  Exact polarizability:  77.995  -5.910  77.199   0.618   0.310  68.279
 Approx polarizability: 108.760  -2.079 111.020  -0.568  -0.292 110.036

                      1                      2                      3
                      A                      A                      A
 Frequencies --    186.7263               206.9881               224.9049
 Red. masses --      2.2749                 2.6906                 1.1236
 Frc consts  --      0.0467                 0.0679                 0.0335
 IR Inten    --      1.1140                 6.3973                 0.9150

                      4                      5                      6
                      A                      A                      A
 Frequencies --    316.4700               336.7708               367.4641
 Red. masses --      2.7669                 2.1812                 2.0709
 Frc consts  --      0.1633                 0.1457                 0.1648
 IR Inten    --      0.7379                 0.2646                 0.0933

                      7                      8                      9
                      A                      A                      A
 Frequencies --    444.5644               492.7919               612.2028
 Red. masses --      5.9258                 7.3310                 5.2277
 Frc consts  --      0.6900                 1.0489                 1.1544
 IR Inten    --      5.6553                 1.3643                 1.5070

                     10                     11                     12
                      A                      A                      A
 Frequencies --    664.4072               744.7712               773.5808
 Red. masses --      3.7495                 3.5801                 3.4287
 Frc consts  --      0.9752                 1.1700                 1.2089
 IR Inten    --      0.6516                 5.3805                10.7201

                     13                     14                     15
                      A                      A                      A
 Frequencies --    783.6005               852.3854               880.9408
 Red. masses --      3.2649                 2.9168                 2.9325
 Frc consts  --      1.1812                 1.2486                 1.3409
 IR Inten    --      4.8551                 8.4011                 8.5003

                     16                     17                     18
                      A                      A                      A
 Frequencies --    897.3140               935.1694               958.5505
 Red. masses --      3.4455                 2.0318                 2.0627
 Frc consts  --      1.6345                 1.0469                 1.1167
 IR Inten    --     44.9141                 5.8526                10.0838

                     19                     20                     21
                      A                      A                      A
 Frequencies --    995.3033              1022.1707              1048.3172
 Red. masses --      1.2722                 1.3975                 2.0323
 Frc consts  --      0.7425                 0.8603                 1.3159
 IR Inten    --      4.6786                 3.2217                 7.6976

                     22                     23                     24
                      A                      A                      A
 Frequencies --   1087.4580              1098.0605              1148.8101
 Red. masses --      1.9225                 3.5858                 1.3832
 Frc consts  --      1.3395                 2.5473                 1.0755
 IR Inten    --      3.8920                 0.9046                 9.0265

                     25                     26                     27
                      A                      A                      A
 Frequencies --   1158.3340              1162.1643              1200.3903
 Red. masses --      1.8122                 3.4548                 1.7430
 Frc consts  --      1.4326                 2.7492                 1.4798
 IR Inten    --     18.6476                55.8239                13.6758

                     28                     29                     30
                      A                      A                      A
 Frequencies --   1213.1742              1240.5587              1258.8788
 Red. masses --      2.3748                 2.3038                 1.3881
 Frc consts  --      2.0593                 2.0890                 1.2961
 IR Inten    --      3.8925                11.9803                 2.3083

                     31                     32                     33
                      A                      A                      A
 Frequencies --   1267.3782              1293.8183              1309.9766
 Red. masses --      1.3204                 2.6447                 1.1924
 Frc consts  --      1.2496                 2.6084                 1.2056
 IR Inten    --     20.8473                 0.3107                 0.7421

                     34                     35                     36
                      A                      A                      A
 Frequencies --   1367.2273              1388.6266              1400.2919
 Red. masses --      2.1928                 1.3567                 1.2769
 Frc consts  --      2.4150                 1.5413                 1.4751
 IR Inten    --      0.2551                 0.9812                 6.1343

                     37                     38                     39
                      A                      A                      A
 Frequencies --   1428.5113              1489.2203              1499.0687
 Red. masses --      1.4132                 1.0646                 1.0732
 Frc consts  --      1.6991                 1.3911                 1.4210
 IR Inten    --      6.3434                 3.1355                 0.8519

                     40                     41                     42
                      A                      A                      A
 Frequencies --   1504.4439              1508.1222              2941.0862
 Red. masses --      1.0535                 1.0891                 1.0718
 Frc consts  --      1.4048                 1.4594                 5.4626
 IR Inten    --      6.3435                 1.8456                52.1884

                     43                     44                     45
                      A                      A                      A
 Frequencies --   2950.7727              3030.6929              3068.2511
 Red. masses --      1.0723                 1.0392                 1.0890
 Frc consts  --      5.5011                 5.6238                 6.0404
 IR Inten    --     83.2150                28.0301                33.7791

                     46                     47                     48
                      A                      A                      A
 Frequencies --   3071.7171              3085.8298              3096.2707
 Red. masses --      1.0905                 1.0999                 1.0894
 Frc consts  --      6.0622                 6.1708                 6.1532
 IR Inten    --     21.9789                23.4933                51.6521

                     49                     50                     51
                      A                      A                      A
 Frequencies --   3105.6067              3116.4487              3141.6972
 Red. masses --      1.0872                 1.0947                 1.0973
 Frc consts  --      6.1779                 6.2640                 6.3815
 IR Inten    --     43.5244                25.6960                 7.0257

 - Thermochemistry -
 -------------------
 Temperature   298.150 Kelvin.  Pressure   1.00000 Atm.
 Atom     1 has atomic number  6 and mass  12.00000

 Molecular mass:   126.06808 amu.
 Principal axes and moments of inertia in atomic units:
                           1         2         3
     Eigenvalues --   661.83746 940.403531358.64544
           X            0.98910  -0.14704   0.00803
           Y            0.14700   0.98913   0.00455
           Z           -0.00861  -0.00332   0.99996
 This molecule is an asymmetric top.
 Rotational symmetry number  1.
 Warning -- assumption of classical behavior for rotation
           may cause significant error
 Rotational temperatures (Kelvin)      0.13087     0.09210     0.06375
 Rotational constants (GHZ):           2.72686     1.91911     1.32834
 Zero-point vibrational energy     420955.6 (Joules/Mol)
                                  100.61080 (Kcal/Mol)
 Warning -- explicit consideration of   9 degrees of freedom as
           vibrations may cause significant error
 Vibrational temperatures:    268.66   297.81   323.59   455.33   484.54
          (Kelvin)            528.70   639.63   709.02   880.82   955.93
                             1071.56  1113.01  1127.42  1226.39  1267.48
                             1291.03  1345.50  1379.14  1432.02  1470.67
                             1508.29  1564.61  1579.86  1652.88  1666.58
                             1672.09  1727.09  1745.48  1784.89  1811.24
                             1823.47  1861.51  1884.76  1967.13  1997.92
                             2014.71  2055.31  2142.65  2156.82  2164.56
                             2169.85  4231.56  4245.50  4360.49  4414.52
                             4419.51  4439.82  4454.84  4468.27  4483.87
                             4520.20

 Zero-point correction=                           0.160334 (Hartree/Particle)
 Thermal correction to Energy=                    0.167609
 Thermal correction to Enthalpy=                  0.168554
 Thermal correction to Gibbs Free Energy=         0.129075
 Sum of electronic and zero-point Energies=           -422.961187
 Sum of electronic and thermal Energies=              -422.953912
 Sum of electronic and thermal Enthalpies=            -422.952967
 Sum of electronic and thermal Free Energies=         -422.992446

                     E (Thermal)             CV                S
                      KCal/Mol        Cal/Mol-Kelvin    Cal/Mol-Kelvin
 Total                  105.177             29.658             83.089
 Electronic               0.000              0.000              0.000
 Translational            0.889              2.981             40.409
 Rotational               0.889              2.981             28.227
 Vibrational            103.399             23.697             14.454
 Vibration     1          0.632              1.858              2.260
 Vibration     2          0.641              1.830              2.070
 Vibration     3          0.650              1.803              1.919
 Vibration     4          0.703              1.642              1.328
 Vibration     5          0.717              1.602              1.227
 Vibration     6          0.740              1.539              1.090
 Vibration     7          0.804              1.373              0.812
 Vibration     8          0.848              1.266              0.676
 Vibration     9          0.971              1.006              0.429

 Normal termination of Gaussian 09 at Mon Jan 27 22:55:23 2020.
