 Gaussian 09, Revision D.01,
 Gaussian 09:  ES64L-G09RevD.01 24-Apr-2013

 -----------------------------
 # b3lyp 6-31G(2df,p) opt Freq
 -----------------------------

 -----
 titel
 -----
 Symbolic Z-matrix:
 Charge =  0 Multiplicity = 1

 SCF Done:  E(RB3LYP) =  -423.128451972     A.U. after   13 cycles
 Optimization completed.
    -- Stationary point found.
 Normal termination of Gaussian 09 at Mon Jan 27 23:10:22 2020.

 ----------------------------------------------------------------------
 #N Geom=AllCheck Guess=TCheck SCRF=Check GenChk RB3LYP/6-31G(2df,p) Fr
 eq
 ----------------------------------------------------------------------

 Structure from the checkpoint file:  "/scratch/puck/g09_15a624c5-6634-4959-936d-8d26b5917bb9/Gau-79893.chk"
 -----
 titel
 -----
 Charge =  0 Multiplicity = 1

                         Standard orientation:
 ---------------------------------------------------------------------
 Center     Atomic      Atomic             Coordinates (Angstroms)
 Number     Number       Type             X           Y           Z
 ---------------------------------------------------------------------
      1          6           0        2.511469    0.386519   -0.070056
      2          6           0        1.142635   -0.223494   -0.024723
      3          6           0        0.717499   -1.625026   -0.471055
      4          6           0       -0.604476   -1.350636    0.289924
      5          6           0        0.143418   -0.231062    1.124565
      6          6           0       -0.126751    0.655734   -0.068776
      7          8           0       -0.066736    2.034577   -0.061634
      8          6           0       -1.294071   -0.217769   -0.531846
      9          8           0       -2.548061    0.197473   -0.044662
     10          1           0        2.872774    0.475512   -1.102268
     11          1           0        2.504739    1.388517    0.369698
     12          1           0        3.237306   -0.222099    0.480362
     13          1           0        0.646238   -1.839137   -1.545388
     14          1           0        1.324755   -2.397139    0.012577
     15          1           0       -1.218558   -2.149427    0.699192
     16          1           0        0.262947   -0.020423    2.177540
     17          1           0        0.187052    2.336727   -0.941525
     18          1           0       -1.432010   -0.405022   -1.603520
     19          1           0       -2.405206    0.610497    0.815502
 ---------------------------------------------------------------------

 SCF Done:  E(RB3LYP) =  -423.128451972     A.U. after    1 cycles

 The electronic state is 1-A.
 Alpha  occ. eigenvalues --  -19.15599 -19.13098 -10.23641 -10.22737 -10.19866
 Alpha  occ. eigenvalues --  -10.19138 -10.18822 -10.18375 -10.18066  -1.04398
 Alpha  occ. eigenvalues --   -1.01378  -0.91930  -0.74319  -0.71092  -0.67247
 Alpha  occ. eigenvalues --   -0.61739  -0.56956  -0.54869  -0.51460  -0.47022
 Alpha  occ. eigenvalues --   -0.45671  -0.44768  -0.43487  -0.41935  -0.39442
 Alpha  occ. eigenvalues --   -0.38851  -0.37122  -0.35109  -0.32875  -0.32149
 Alpha  occ. eigenvalues --   -0.31267  -0.26597  -0.24526  -0.23304
 Alpha virt. eigenvalues --    0.06759   0.08772   0.10573   0.12154   0.12490
 Alpha virt. eigenvalues --    0.13426   0.13971   0.14784   0.15962   0.16649
 Alpha virt. eigenvalues --    0.18262   0.18855   0.19516   0.21201   0.23308

 Mulliken charges:
               1
     1  C   -0.512750
     2  C    0.268469
     3  C   -0.292370
     4  C   -0.103634
     5  C   -0.205377
     6  C    0.292696
     7  O   -0.460635
     8  C    0.093958
     9  O   -0.446332
    10  H    0.114831
    11  H    0.130015
    12  H    0.120928
    13  H    0.084543
    14  H    0.097624
    15  H    0.077746
    16  H    0.095352
    17  H    0.288610
    18  H    0.072081
    19  H    0.284244
 Sum of Mulliken charges =   0.00000

 Dipole moment (field-independent basis, Debye):
    X=              1.8345    Y=             -0.1187    Z=             -0.2353  Tot=              1.8534
 Quadrupole moment (field-independent basis, Debye-Ang):
   XX=            -58.1741   YY=            -52.8433   ZZ=            -49.1828
   XY=              0.7131   XZ=             -2.6481   YZ=             -2.4584

  Exact polarizability:  82.019  -0.122  74.937  -1.507   0.081  68.375
 Approx polarizability: 111.737  -2.331 109.686  -2.769  -0.455 110.116

                      1                      2                      3
                      A                      A                      A
 Frequencies --    157.7459               184.8251               210.5473
 Red. masses --      3.9747                 1.0624                 1.9658
 Frc consts  --      0.0583                 0.0214                 0.0513
 IR Inten    --      4.0882                 3.2350                18.2921

                      4                      5                      6
                      A                      A                      A
 Frequencies --    228.4519               285.1481               294.6201
 Red. masses --      2.5331                 1.2012                 2.4454
 Frc consts  --      0.0779                 0.0575                 0.1251
 IR Inten    --      2.5103                66.1549                14.3086

                      7                      8                      9
                      A                      A                      A
 Frequencies --    314.0311               344.1532               422.5271
 Red. masses --      2.1282                 2.0861                 2.8536
 Frc consts  --      0.1237                 0.1456                 0.3002
 IR Inten    --     70.1228                18.7295                 4.9834

                     10                     11                     12
                      A                      A                      A
 Frequencies --    458.9599               500.7748               634.5582
 Red. masses --      3.0263                 3.7802                 3.9549
 Frc consts  --      0.3756                 0.5585                 0.9383
 IR Inten    --      1.7539                 2.9402                 1.3640

                     13                     14                     15
                      A                      A                      A
 Frequencies --    672.1686               758.9655               822.0889
 Red. masses --      4.3355                 3.0921                 2.0156
 Frc consts  --      1.1541                 1.0494                 0.8026
 IR Inten    --      8.3796                 3.5839                 2.3130

                     16                     17                     18
                      A                      A                      A
 Frequencies --    827.4401               888.0226               895.0991
 Red. masses --      3.0572                 1.8952                 1.8276
 Frc consts  --      1.2333                 0.8805                 0.8627
 IR Inten    --     11.9112                10.3013                 4.0479

                     19                     20                     21
                      A                      A                      A
 Frequencies --    924.3021               940.2573               967.8669
 Red. masses --      2.0489                 1.9897                 3.0299
 Frc consts  --      1.0313                 1.0364                 1.6723
 IR Inten    --      2.9078                 3.9087                31.0399

                     22                     23                     24
                      A                      A                      A
 Frequencies --   1006.8602              1046.8520              1067.5313
 Red. masses --      1.5809                 1.3152                 3.0804
 Frc consts  --      0.9443                 0.8492                 2.0683
 IR Inten    --      9.8338                 4.8239                35.2141

                     25                     26                     27
                      A                      A                      A
 Frequencies --   1099.3362              1131.0917              1153.4754
 Red. masses --      1.8277                 2.5612                 1.5532
 Frc consts  --      1.3014                 1.9306                 1.2176
 IR Inten    --      8.2814                66.9360                 6.3384

                     28                     29                     30
                      A                      A                      A
 Frequencies --   1169.2109              1210.3290              1230.7629
 Red. masses --      1.6667                 1.5393                 1.6163
 Frc consts  --      1.3425                 1.3285                 1.4425
 IR Inten    --      6.0520                 0.6948                29.1235

                     31                     32                     33
                      A                      A                      A
 Frequencies --   1240.0129              1271.6489              1291.5801
 Red. masses --      2.3491                 1.7471                 1.7116
 Frc consts  --      2.1282                 1.6646                 1.6823
 IR Inten    --     12.5941                 9.3610                24.4514

                     34                     35                     36
                      A                      A                      A
 Frequencies --   1306.7299              1365.8230              1411.6428
 Red. masses --      1.6609                 2.1100                 1.3802
 Frc consts  --      1.6709                 2.3191                 1.6204
 IR Inten    --     99.9587                 2.9908                26.0645

                     37                     38                     39
                      A                      A                      A
 Frequencies --   1421.5680              1453.4038              1490.4406
 Red. masses --      2.4675                 1.8604                 1.0484
 Frc consts  --      2.9380                 2.3154                 1.3721
 IR Inten    --     19.1025                68.8864                 5.3787

                     40                     41                     42
                      A                      A                      A
 Frequencies --   1498.4878              1506.6467              3015.3955
 Red. masses --      1.0884                 1.1483                 1.0595
 Frc consts  --      1.4400                 1.5358                 5.6757
 IR Inten    --      3.8325                 6.1772                42.7573

                     43                     44                     45
                      A                      A                      A
 Frequencies --   3021.5901              3040.5357              3076.2938
 Red. masses --      1.0394                 1.0842                 1.1032
 Frc consts  --      5.5911                 5.9055                 6.1513
 IR Inten    --     48.1716                65.1525                16.6859

                     46                     47                     48
                      A                      A                      A
 Frequencies --   3078.1779              3106.2393              3145.9246
 Red. masses --      1.0989                 1.0995                 1.0915
 Frc consts  --      6.1350                 6.2507                 6.3647
 IR Inten    --     39.8875                13.7535                27.0115

                     49                     50                     51
                      A                      A                      A
 Frequencies --   3221.2037              3783.6642              3784.8942
 Red. masses --      1.0966                 1.0659                 1.0652
 Frc consts  --      6.7042                 8.9911                 8.9908
 IR Inten    --      4.2319                23.2447                12.3277

 - Thermochemistry -
 -------------------
 Temperature   298.150 Kelvin.  Pressure   1.00000 Atm.
 Atom     1 has atomic number  6 and mass  12.00000

 Molecular mass:   126.06808 amu.
 Principal axes and moments of inertia in atomic units:
                           1         2         3
     Eigenvalues --   668.138271067.385221479.35004
           X            0.99984   0.01613  -0.00793
           Y           -0.01613   0.99987   0.00078
           Z            0.00795  -0.00065   0.99997
 This molecule is an asymmetric top.
 Rotational symmetry number  1.
 Warning -- assumption of classical behavior for rotation
           may cause significant error
 Rotational temperatures (Kelvin)      0.12963     0.08115     0.05855
 Rotational constants (GHZ):           2.70115     1.69081     1.21996
 Zero-point vibrational energy     414984.0 (Joules/Mol)
                                   99.18356 (Kcal/Mol)
 Warning -- explicit consideration of  11 degrees of freedom as
           vibrations may cause significant error
 Vibrational temperatures:    226.96   265.92   302.93   328.69   410.26
          (Kelvin)            423.89   451.82   495.16   607.92   660.34
                              720.50   912.99   967.10  1091.98  1182.80
                             1190.50  1277.66  1287.85  1329.86  1352.82
                             1392.54  1448.65  1506.18  1535.94  1581.70
                             1627.39  1659.59  1682.23  1741.39  1770.79
                             1784.10  1829.62  1858.29  1880.09  1965.11
                             2031.04  2045.32  2091.12  2144.41  2155.99
                             2167.73  4338.48  4347.39  4374.65  4426.10
                             4428.81  4469.18  4526.28  4634.59  5443.84
                             5445.61

 Zero-point correction=                           0.158059 (Hartree/Particle)
 Thermal correction to Energy=                    0.166627
 Thermal correction to Enthalpy=                  0.167571
 Thermal correction to Gibbs Free Energy=         0.125672
 Sum of electronic and zero-point Energies=           -422.970393
 Sum of electronic and thermal Energies=              -422.961825
 Sum of electronic and thermal Enthalpies=            -422.960881
 Sum of electronic and thermal Free Energies=         -423.002780

                     E (Thermal)             CV                S
                      KCal/Mol        Cal/Mol-Kelvin    Cal/Mol-Kelvin
 Total                  104.560             33.769             88.184
 Electronic               0.000              0.000              0.000
 Translational            0.889              2.981             40.409
 Rotational               0.889              2.981             28.447
 Vibrational            102.782             27.807             19.328
 Vibration     1          0.621              1.894              2.577
 Vibration     2          0.631              1.861              2.279
 Vibration     3          0.643              1.825              2.039
 Vibration     4          0.651              1.798              1.891
 Vibration     5          0.683              1.701              1.503
 Vibration     6          0.689              1.684              1.447
 Vibration     7          0.702              1.647              1.341
 Vibration     8          0.723              1.587              1.193
 Vibration     9          0.785              1.421              0.883
 Vibration    10          0.817              1.341              0.769
 Vibration    11          0.856              1.248              0.656

 Normal termination of Gaussian 09 at Mon Jan 27 23:56:33 2020.
