 Gaussian 09, Revision D.01,
 Gaussian 09:  ES64L-G09RevD.01 24-Apr-2013

 -----------------------------
 # b3lyp 6-31G(2df,p) opt Freq
 -----------------------------

 -----
 titel
 -----
 Symbolic Z-matrix:
 Charge =  0 Multiplicity = 1

 SCF Done:  E(RB3LYP) =  -423.136123289     A.U. after   13 cycles
 Optimization completed.
    -- Stationary point found.
 Normal termination of Gaussian 09 at Mon Jan 27 17:27:09 2020.

 ----------------------------------------------------------------------
 #N Geom=AllCheck Guess=TCheck SCRF=Check GenChk RB3LYP/6-31G(2df,p) Fr
 eq
 ----------------------------------------------------------------------

 Structure from the checkpoint file:  "/scratch/puck/g09_d1bf6848-c023-4313-b0e6-f0c3a9943f1f/Gau-79071.chk"
 -----
 titel
 -----
 Charge =  0 Multiplicity = 1

                         Standard orientation:
 ---------------------------------------------------------------------
 Center     Atomic      Atomic             Coordinates (Angstroms)
 Number     Number       Type             X           Y           Z
 ---------------------------------------------------------------------
      1          6           0       -2.426484    0.582716   -0.600000
      2          6           0       -1.084569    0.131251   -0.096653
      3          6           0       -0.835998   -0.456854    1.315039
      4          6           0        0.291822   -1.126537    0.510038
      5          8           0       -0.638763   -1.190050   -0.629818
      6          6           0        1.230477    0.009154    0.047635
      7          8           0        2.357394   -0.324473   -0.689236
      8          6           0        1.156962    1.347581    0.703742
      9          6           0        0.161700    0.994630   -0.394346
     10          1           0       -2.392064    0.756834   -1.680595
     11          1           0       -3.192594   -0.169875   -0.395809
     12          1           0       -2.715917    1.520056   -0.114337
     13          1           0       -0.616781    0.192464    2.162910
     14          1           0       -1.609946   -1.181166    1.570492
     15          1           0        0.745334   -2.082849    0.769778
     16          1           0        2.053235   -0.830517   -1.452865
     17          1           0        0.858617    1.472419    1.738134
     18          1           0        1.934746    2.036317    0.387382
     19          1           0        0.222862    1.510853   -1.345396
 ---------------------------------------------------------------------

 SCF Done:  E(RB3LYP) =  -423.136123289     A.U. after    1 cycles

 The electronic state is 1-A.
 Alpha  occ. eigenvalues --  -19.14483 -19.12593 -10.24714 -10.23721 -10.23657
 Alpha  occ. eigenvalues --  -10.19289 -10.18776 -10.18555 -10.18163  -1.04798
 Alpha  occ. eigenvalues --   -1.02199  -0.85599  -0.75840  -0.73271  -0.64935
 Alpha  occ. eigenvalues --   -0.63426  -0.56726  -0.54287  -0.51726  -0.49138
 Alpha  occ. eigenvalues --   -0.46087  -0.44566  -0.43602  -0.40827  -0.39383
 Alpha  occ. eigenvalues --   -0.38076  -0.37200  -0.36094  -0.34757  -0.32220
 Alpha  occ. eigenvalues --   -0.30626  -0.29384  -0.24455  -0.23821
 Alpha virt. eigenvalues --    0.08528   0.09769   0.09930   0.10234   0.11344
 Alpha virt. eigenvalues --    0.12256   0.13741   0.15229   0.16184   0.17045
 Alpha virt. eigenvalues --    0.17936   0.18837   0.20431   0.20928   0.23116

 Mulliken charges:
               1
     1  C   -0.501273
     2  C    0.422758
     3  C   -0.286657
     4  C   -0.028010
     5  O   -0.347504
     6  C    0.453458
     7  O   -0.468964
     8  C   -0.358948
     9  C   -0.175089
    10  H    0.128851
    11  H    0.127285
    12  H    0.126789
    13  H    0.097672
    14  H    0.110487
    15  H    0.080838
    16  H    0.286819
    17  H    0.114726
    18  H    0.124112
    19  H    0.092647
 Sum of Mulliken charges =   0.00000

 Dipole moment (field-independent basis, Debye):
    X=             -0.9946    Y=              0.7630    Z=              0.5270  Tot=              1.3598
 Quadrupole moment (field-independent basis, Debye-Ang):
   XX=            -56.3418   YY=            -52.7557   ZZ=            -50.2792
   XY=             -1.7197   XZ=             -1.4834   YZ=             -0.9328

  Exact polarizability:  80.902   0.529  72.199   0.798  -0.211  68.960
 Approx polarizability: 111.610  -0.992 110.742   3.044   3.640 106.820

                      1                      2                      3
                      A                      A                      A
 Frequencies --    166.8406               199.9928               260.0003
 Red. masses --      3.8125                 1.0510                 2.9078
 Frc consts  --      0.0625                 0.0248                 0.1158
 IR Inten    --      2.0003                 0.3602                 1.0779

                      4                      5                      6
                      A                      A                      A
 Frequencies --    305.7164               353.1759               390.5526
 Red. masses --      3.3620                 2.2564                 1.4632
 Frc consts  --      0.1851                 0.1658                 0.1315
 IR Inten    --      9.4735                 7.3500                36.2103

                      7                      8                      9
                      A                      A                      A
 Frequencies --    427.1927               466.0317               512.8141
 Red. masses --      2.2826                 2.4462                 2.2258
 Frc consts  --      0.2454                 0.3130                 0.3449
 IR Inten    --     45.0429                 4.9763                 2.9785

                     10                     11                     12
                      A                      A                      A
 Frequencies --    581.5979               618.4309               634.5439
 Red. masses --      3.7570                 3.6550                 4.2669
 Frc consts  --      0.7487                 0.8236                 1.0122
 IR Inten    --     13.9831                 2.1445                 3.6438

                     13                     14                     15
                      A                      A                      A
 Frequencies --    718.0326               758.0428               815.2693
 Red. masses --      4.1470                 3.1275                 2.8899
 Frc consts  --      1.2597                 1.0589                 1.1317
 IR Inten    --     22.9227                14.9451                12.7380

                     16                     17                     18
                      A                      A                      A
 Frequencies --    868.3510               877.3336               918.1006
 Red. masses --      2.3084                 2.6342                 3.3181
 Frc consts  --      1.0256                 1.1946                 1.6479
 IR Inten    --      1.5732                25.4066                24.2823

                     19                     20                     21
                      A                      A                      A
 Frequencies --    939.8085               968.6899               972.2735
 Red. masses --      1.5816                 1.9376                 1.9612
 Frc consts  --      0.8231                 1.0712                 1.0923
 IR Inten    --      5.9000                 7.8310                11.8146

                     22                     23                     24
                      A                      A                      A
 Frequencies --   1006.8398              1017.1285              1036.8440
 Red. masses --      1.8157                 1.5086                 1.6199
 Frc consts  --      1.0845                 0.9195                 1.0261
 IR Inten    --      7.5646                 3.8596                 4.2058

                     25                     26                     27
                      A                      A                      A
 Frequencies --   1075.7063              1092.9837              1123.1420
 Red. masses --      1.2972                 1.4234                 1.9073
 Frc consts  --      0.8844                 1.0019                 1.4176
 IR Inten    --      7.0136                 0.7053                 8.5265

                     28                     29                     30
                      A                      A                      A
 Frequencies --   1191.4285              1210.4916              1219.2302
 Red. masses --      2.1416                 1.8273                 1.6660
 Frc consts  --      1.7911                 1.5776                 1.4591
 IR Inten    --      6.7772                 8.7267                74.9586

                     31                     32                     33
                      A                      A                      A
 Frequencies --   1238.9243              1253.7768              1269.0906
 Red. masses --      1.6791                 1.7430                 1.8744
 Frc consts  --      1.5185                 1.6143                 1.7787
 IR Inten    --      9.2532                24.4286                16.2673

                     34                     35                     36
                      A                      A                      A
 Frequencies --   1335.1700              1347.0478              1411.7705
 Red. masses --      2.1029                 2.2344                 1.5198
 Frc consts  --      2.2088                 2.3887                 1.7847
 IR Inten    --    113.8883                18.5530                 4.3715

                     37                     38                     39
                      A                      A                      A
 Frequencies --   1418.1617              1478.7438              1486.2591
 Red. masses --      1.6339                 1.0668                 1.4600
 Frc consts  --      1.9361                 1.3744                 1.9001
 IR Inten    --     11.1653                 4.2478                 6.3146

                     40                     41                     42
                      A                      A                      A
 Frequencies --   1492.4405              1514.2031              3038.6249
 Red. masses --      1.0815                 1.1658                 1.0353
 Frc consts  --      1.4193                 1.5748                 5.6324
 IR Inten    --      8.3075                 6.9864                16.5703

                     43                     44                     45
                      A                      A                      A
 Frequencies --   3085.1834              3107.6123              3120.0960
 Red. masses --      1.0570                 1.1005                 1.1019
 Frc consts  --      5.9280                 6.2618                 6.3202
 IR Inten    --     26.2571                13.8498                14.7452

                     46                     47                     48
                      A                      A                      A
 Frequencies --   3128.2167              3131.6901              3146.5492
 Red. masses --      1.0875                 1.0595                 1.1081
 Frc consts  --      6.2699                 6.1222                 6.4639
 IR Inten    --     34.5475                15.7051                28.7778

                     49                     50                     51
                      A                      A                      A
 Frequencies --   3182.5941              3213.4055              3776.8083
 Red. masses --      1.0920                 1.1144                 1.0656
 Frc consts  --      6.5166                 6.7801                 8.9552
 IR Inten    --      5.5311                10.1639                20.5737

 - Thermochemistry -
 -------------------
 Temperature   298.150 Kelvin.  Pressure   1.00000 Atm.
 Atom     1 has atomic number  6 and mass  12.00000

 Molecular mass:   126.06808 amu.
 Principal axes and moments of inertia in atomic units:
                           1         2         3
     Eigenvalues --   592.983221170.362491278.34810
           X            0.99994  -0.00843   0.00664
           Y            0.00882   0.99809  -0.06118
           Z           -0.00611   0.06123   0.99810
 This molecule is an asymmetric top.
 Rotational symmetry number  1.
 Warning -- assumption of classical behavior for rotation
           may cause significant error
 Rotational temperatures (Kelvin)      0.14606     0.07401     0.06775
 Rotational constants (GHZ):           3.04349     1.54204     1.41178
 Zero-point vibrational energy     418112.5 (Joules/Mol)
                                   99.93129 (Kcal/Mol)
 Warning -- explicit consideration of  11 degrees of freedom as
           vibrations may cause significant error
 Vibrational temperatures:    240.05   287.74   374.08   439.86   508.14
          (Kelvin)            561.92   614.63   670.51   737.82   836.79
                              889.78   912.97  1033.09  1090.65  1172.99
                             1249.36  1262.29  1320.94  1352.17  1393.73
                             1398.88  1448.62  1463.42  1491.79  1547.70
                             1572.56  1615.95  1714.20  1741.63  1754.20
                             1782.53  1803.90  1825.94  1921.01  1938.10
                             2031.22  2040.42  2127.58  2138.39  2147.29
                             2178.60  4371.90  4438.89  4471.16  4489.12
                             4500.80  4505.80  4527.18  4579.04  4623.37
                             5433.98

 Zero-point correction=                           0.159251 (Hartree/Particle)
 Thermal correction to Energy=                    0.166923
 Thermal correction to Enthalpy=                  0.167867
 Thermal correction to Gibbs Free Energy=         0.127806
 Sum of electronic and zero-point Energies=           -422.976873
 Sum of electronic and thermal Energies=              -422.969200
 Sum of electronic and thermal Enthalpies=            -422.968256
 Sum of electronic and thermal Free Energies=         -423.008317

                     E (Thermal)             CV                S
                      KCal/Mol        Cal/Mol-Kelvin    Cal/Mol-Kelvin
 Total                  104.746             31.901             84.316
 Electronic               0.000              0.000              0.000
 Translational            0.889              2.981             40.409
 Rotational               0.889              2.981             28.275
 Vibrational            102.968             25.939             15.633
 Vibration     1          0.624              1.883              2.471
 Vibration     2          0.638              1.840              2.133
 Vibration     3          0.668              1.746              1.662
 Vibration     4          0.696              1.663              1.385
 Vibration     5          0.729              1.569              1.152
 Vibration     6          0.758              1.490              0.998
 Vibration     7          0.789              1.411              0.868
 Vibration     8          0.823              1.325              0.749
 Vibration     9          0.868              1.222              0.627
 Vibration    10          0.938              1.071              0.482
 Vibration    11          0.978              0.993              0.419

 Optimization completed.
    -- Stationary point found.
 Normal termination of Gaussian 09 at Mon Jan 27 18:22:12 2020.
