 Gaussian 09, Revision D.01,
 Gaussian 09:  ES64L-G09RevD.01 24-Apr-2013

 -----------------------------
 # b3lyp 6-31G(2df,p) opt Freq
 -----------------------------

 -----
 titel
 -----
 Symbolic Z-matrix:
 Charge =  0 Multiplicity = 1

 SCF Done:  E(RB3LYP) =  -423.129780490     A.U. after   14 cycles
 Optimization completed.
    -- Stationary point found.
 Normal termination of Gaussian 09 at Mon Jan 27 12:17:26 2020.

 ----------------------------------------------------------------------
 #N Geom=AllCheck Guess=TCheck SCRF=Check GenChk RB3LYP/6-31G(2df,p) Fr
 eq
 ----------------------------------------------------------------------

 Structure from the checkpoint file:  "/scratch/puck/g09_5bfd0d5f-eafb-4eca-9eee-435b13e190df/Gau-166947.chk"
 -----
 titel
 -----
 Charge =  0 Multiplicity = 1

                         Standard orientation:
 ---------------------------------------------------------------------
 Center     Atomic      Atomic             Coordinates (Angstroms)
 Number     Number       Type             X           Y           Z
 ---------------------------------------------------------------------
      1          6           0        1.939957    0.762770    0.080691
      2          8           0        2.021839   -0.605612   -0.423319
      3          6           0        0.603090   -0.600492   -0.730952
      4          6           0       -0.424600   -1.319379    0.154498
      5          6           0        0.018946   -0.411675    1.326572
      6          6           0        0.427928    0.615672    0.207217
      7          6           0       -0.744473    1.491251   -0.146978
      8          8           0       -1.918742    0.670025   -0.075791
      9          6           0       -1.768846   -0.726258   -0.354284
     10          1           0        2.518870    0.900865    1.000156
     11          1           0        2.274733    1.481526   -0.680559
     12          1           0        0.431867   -0.575447   -1.813662
     13          1           0       -0.468979   -2.408200    0.249967
     14          1           0       -0.752111   -0.094596    2.030223
     15          1           0        0.888074   -0.799462    1.856970
     16          1           0       -0.916542    2.312646    0.558450
     17          1           0       -0.625365    1.921043   -1.154069
     18          1           0       -2.608008   -1.206425    0.158647
     19          1           0       -1.879325   -0.918593   -1.433825
 ---------------------------------------------------------------------

 SCF Done:  E(RB3LYP) =  -423.129780490     A.U. after    1 cycles

 The electronic state is 1-A.
 Alpha  occ. eigenvalues --  -19.14112 -19.13667 -10.23716 -10.23529 -10.23437
 Alpha  occ. eigenvalues --  -10.22844 -10.19939 -10.19659 -10.18405  -1.04405
 Alpha  occ. eigenvalues --   -1.02649  -0.84110  -0.76573  -0.69463  -0.66523
 Alpha  occ. eigenvalues --   -0.63235  -0.59427  -0.52710  -0.51050  -0.48977
 Alpha  occ. eigenvalues --   -0.47112  -0.46456  -0.44670  -0.42180  -0.41175
 Alpha  occ. eigenvalues --   -0.39765  -0.37163  -0.35386  -0.34115  -0.31659
 Alpha  occ. eigenvalues --   -0.29341  -0.26963  -0.25673  -0.24966
 Alpha virt. eigenvalues --    0.06988   0.09127   0.10174   0.11107   0.12703
 Alpha virt. eigenvalues --    0.13322   0.14527   0.14564   0.15596   0.16321
 Alpha virt. eigenvalues --    0.16412   0.17941   0.19069   0.20970   0.21724

 Mulliken charges:
               1
     1  C   -0.185873
     2  O   -0.316539
     3  C    0.138961
     4  C   -0.103994
     5  C   -0.264086
     6  C    0.260965
     7  C   -0.171614
     8  O   -0.271293
     9  C   -0.065809
    10  H    0.108136
    11  H    0.101461
    12  H    0.070029
    13  H    0.068763
    14  H    0.107340
    15  H    0.112405
    16  H    0.108566
    17  H    0.094147
    18  H    0.113731
    19  H    0.094703
 Sum of Mulliken charges =   0.00000

 Dipole moment (field-independent basis, Debye):
    X=             -0.2320    Y=              0.5727    Z=              0.2079  Tot=              0.6520
 Quadrupole moment (field-independent basis, Debye-Ang):
   XX=            -59.3486   YY=            -51.2945   ZZ=            -51.8619
   XY=              5.9072   XZ=              1.6133   YZ=             -0.1703

  Exact polarizability:  78.977   6.739  74.495   1.258  -0.124  68.832
 Approx polarizability: 111.319   5.382 110.242   0.100   2.102 104.849

                      1                      2                      3
                      A                      A                      A
 Frequencies --    185.4064               264.2791               297.0967
 Red. masses --      3.6210                 2.1078                 2.9551
 Frc consts  --      0.0733                 0.0867                 0.1537
 IR Inten    --     10.3029                 0.5887                 1.4373

                      4                      5                      6
                      A                      A                      A
 Frequencies --    329.7925               392.6849               428.6436
 Red. masses --      2.5308                 2.8722                 1.9826
 Frc consts  --      0.1622                 0.2609                 0.2146
 IR Inten    --      1.6124                 3.1039                 1.3328

                      7                      8                      9
                      A                      A                      A
 Frequencies --    477.8966               569.7567               688.9668
 Red. masses --      6.0303                 4.9285                 3.4931
 Frc consts  --      0.8114                 0.9426                 0.9769
 IR Inten    --      0.6143                 0.8304                 0.8426

                     10                     11                     12
                      A                      A                      A
 Frequencies --    764.6004               817.4449               850.2690
 Red. masses --      3.0527                 3.3693                 2.2438
 Frc consts  --      1.0515                 1.3265                 0.9558
 IR Inten    --     18.2022                 3.6028                11.5551

                     13                     14                     15
                      A                      A                      A
 Frequencies --    869.6407               898.2704               908.1894
 Red. masses --      2.3878                 2.5670                 2.7111
 Frc consts  --      1.0640                 1.2203                 1.3175
 IR Inten    --     10.2608                16.0373                11.7021

                     16                     17                     18
                      A                      A                      A
 Frequencies --    944.4278               962.0930               989.7234
 Red. masses --      3.2535                 2.5862                 2.5315
 Frc consts  --      1.7098                 1.4104                 1.4610
 IR Inten    --     26.6347                 5.5448                24.0719

                     19                     20                     21
                      A                      A                      A
 Frequencies --   1013.9822              1026.6647              1045.0145
 Red. masses --      1.7935                 1.8906                 2.5290
 Frc consts  --      1.0864                 1.1741                 1.6272
 IR Inten    --      4.7374                 2.4892                42.7891

                     22                     23                     24
                      A                      A                      A
 Frequencies --   1070.8682              1122.6647              1130.4387
 Red. masses --      1.8579                 1.7433                 2.0227
 Frc consts  --      1.2553                 1.2945                 1.5229
 IR Inten    --     51.3769                16.7037                29.0473

                     25                     26                     27
                      A                      A                      A
 Frequencies --   1154.1262              1177.8149              1193.6529
 Red. masses --      1.8346                 1.8058                 1.8090
 Frc consts  --      1.4398                 1.4759                 1.5186
 IR Inten    --      7.9750                 4.0228                 3.4069

                     28                     29                     30
                      A                      A                      A
 Frequencies --   1233.0570              1253.6148              1258.2916
 Red. masses --      1.4807                 1.5156                 1.2730
 Frc consts  --      1.3264                 1.4033                 1.1875
 IR Inten    --      3.9573                 2.0823                 5.2761

                     31                     32                     33
                      A                      A                      A
 Frequencies --   1281.0861              1285.0290              1307.3723
 Red. masses --      1.4730                 1.5435                 1.5026
 Frc consts  --      1.4243                 1.5017                 1.5132
 IR Inten    --      1.6649                 0.8629                 1.3689

                     34                     35                     36
                      A                      A                      A
 Frequencies --   1338.7781              1362.1757              1388.1983
 Red. masses --      1.4250                 1.3755                 1.6103
 Frc consts  --      1.5048                 1.5037                 1.8283
 IR Inten    --     11.6360                 1.7645                 2.2086

                     37                     38                     39
                      A                      A                      A
 Frequencies --   1413.5855              1482.1850              1507.1613
 Red. masses --      1.5397                 1.1226                 1.0859
 Frc consts  --      1.8127                 1.4531                 1.4533
 IR Inten    --      3.3389                 4.0570                 0.4417

                     40                     41                     42
                      A                      A                      A
 Frequencies --   1514.0544              1517.3016              2972.7577
 Red. masses --      1.1032                 1.1001                 1.0696
 Frc consts  --      1.4900                 1.4922                 5.5689
 IR Inten    --      0.3721                 0.5804                59.4223

                     43                     44                     45
                      A                      A                      A
 Frequencies --   2980.7330              3001.7102              3035.5183
 Red. masses --      1.0681                 1.0612                 1.0851
 Frc consts  --      5.5914                 5.6334                 5.8910
 IR Inten    --     58.2455                91.4850                64.6465

                     46                     47                     48
                      A                      A                      A
 Frequencies --   3052.5535              3064.1949              3070.6399
 Red. masses --      1.0956                 1.0885                 1.1039
 Frc consts  --      6.0151                 6.0213                 6.1326
 IR Inten    --     36.8184                38.6731                36.8643

                     49                     50                     51
                      A                      A                      A
 Frequencies --   3076.1629              3087.2990              3150.3501
 Red. masses --      1.0896                 1.0612                 1.1097
 Frc consts  --      6.0750                 5.9594                 6.4889
 IR Inten    --     44.0916                30.1850                13.2001

 - Thermochemistry -
 -------------------
 Temperature   298.150 Kelvin.  Pressure   1.00000 Atm.
 Atom     1 has atomic number  6 and mass  12.00000

 Molecular mass:   126.06808 amu.
 Principal axes and moments of inertia in atomic units:
                           1         2         3
     Eigenvalues --   553.776891061.021911262.62167
           X            0.99856   0.05219   0.01271
           Y           -0.05196   0.99848  -0.01821
           Z           -0.01364   0.01752   0.99975
 This molecule is an asymmetric top.
 Rotational symmetry number  1.
 Warning -- assumption of classical behavior for rotation
           may cause significant error
 Rotational temperatures (Kelvin)      0.15641     0.08163     0.06860
 Rotational constants (GHZ):           3.25897     1.70095     1.42936
 Zero-point vibrational energy     425919.7 (Joules/Mol)
                                  101.79726 (Kcal/Mol)
 Warning -- explicit consideration of   8 degrees of freedom as
           vibrations may cause significant error
 Vibrational temperatures:    266.76   380.24   427.46   474.50   564.99
          (Kelvin)            616.72   687.59   819.75   991.27  1100.09
                             1176.12  1223.35  1251.22  1292.41  1306.68
                             1358.82  1384.24  1423.99  1458.89  1477.14
                             1503.54  1540.74  1615.26  1626.45  1660.53
                             1694.61  1717.40  1774.09  1803.67  1810.40
                             1843.19  1848.87  1881.01  1926.20  1959.86
                             1997.31  2033.83  2132.53  2168.47  2178.38
                             2183.06  4277.13  4288.60  4318.79  4367.43
                             4391.94  4408.69  4417.96  4425.91  4441.93
                             4532.65

 Zero-point correction=                           0.162224 (Hartree/Particle)
 Thermal correction to Energy=                    0.168928
 Thermal correction to Enthalpy=                  0.169872
 Thermal correction to Gibbs Free Energy=         0.131509
 Sum of electronic and zero-point Energies=           -422.967556
 Sum of electronic and thermal Energies=              -422.960852
 Sum of electronic and thermal Enthalpies=            -422.959908
 Sum of electronic and thermal Free Energies=         -422.998271

                     E (Thermal)             CV                S
                      KCal/Mol        Cal/Mol-Kelvin    Cal/Mol-Kelvin
 Total                  106.004             27.956             80.741
 Electronic               0.000              0.000              0.000
 Translational            0.889              2.981             40.409
 Rotational               0.889              2.981             28.097
 Vibrational            104.226             21.995             12.236
 Vibration     1          0.631              1.860              2.273
 Vibration     2          0.671              1.738              1.633
 Vibration     3          0.691              1.679              1.433
 Vibration     4          0.713              1.616              1.261
 Vibration     5          0.760              1.486              0.990
 Vibration     6          0.790              1.408              0.863
 Vibration     7          0.834              1.299              0.716
 Vibration     8          0.926              1.097              0.505

 Optimization completed.
    -- Stationary point found.
 Normal termination of Gaussian 09 at Mon Jan 27 13:07:05 2020.
