 Gaussian 09, Revision D.01,
 Gaussian 09:  ES64L-G09RevD.01 24-Apr-2013

 -----------------------------
 # b3lyp 6-31G(2df,p) opt Freq
 -----------------------------

 -----
 titel
 -----
 Symbolic Z-matrix:
 Charge =  0 Multiplicity = 1

 SCF Done:  E(RB3LYP) =  -423.151281545     A.U. after   13 cycles
 Optimization completed.
    -- Stationary point found.
 Normal termination of Gaussian 09 at Mon Jan 27 23:50:15 2020.

 ----------------------------------------------------------------------
 #N Geom=AllCheck Guess=TCheck SCRF=Check GenChk RB3LYP/6-31G(2df,p) Fr
 eq
 ----------------------------------------------------------------------

 Structure from the checkpoint file:  "/scratch/puck/g09_af660108-aa70-4ce4-b775-bf13c5bd36da/Gau-193988.chk"
 -----
 titel
 -----
 Charge =  0 Multiplicity = 1

                         Standard orientation:
 ---------------------------------------------------------------------
 Center     Atomic      Atomic             Coordinates (Angstroms)
 Number     Number       Type             X           Y           Z
 ---------------------------------------------------------------------
      1          8           0        2.279880   -0.373137    0.089367
      2          6           0        0.997352   -0.992562    0.181403
      3          6           0        0.109037   -0.506304   -0.983583
      4          6           0       -1.208389   -1.244413   -0.689485
      5          6           0       -1.464031   -0.519642    0.654083
      6          6           0       -1.633689    0.954184    0.181412
      7          6           0       -0.147570    0.835547   -0.134929
      8          8           0        0.619098    1.956506   -0.377886
      9          6           0        0.032030   -0.180306    1.060132
     10          1           0        2.695303   -0.417705    0.957194
     11          1           0        1.101012   -2.076240    0.328813
     12          1           0        0.497521   -0.475119   -2.001061
     13          1           0       -1.998625   -1.053674   -1.420576
     14          1           0       -1.074774   -2.327420   -0.598431
     15          1           0       -2.158152   -0.967250    1.362564
     16          1           0       -2.350160    1.160752   -0.620287
     17          1           0       -1.789289    1.646877    1.013405
     18          1           0        1.534494    1.646411   -0.415492
     19          1           0        0.242406    0.117378    2.087824
 ---------------------------------------------------------------------

 SCF Done:  E(RB3LYP) =  -423.151281545     A.U. after    1 cycles

 The electronic state is 1-A.
 Alpha  occ. eigenvalues --  -19.15113 -19.13049 -10.23353 -10.23300 -10.19415
 Alpha  occ. eigenvalues --  -10.18397 -10.18223 -10.18127 -10.17577  -1.03587
 Alpha  occ. eigenvalues --   -1.01527  -0.90097  -0.74721  -0.70843  -0.65468
 Alpha  occ. eigenvalues --   -0.60543  -0.55944  -0.53380  -0.51278  -0.51193
 Alpha  occ. eigenvalues --   -0.47452  -0.45885  -0.42300  -0.39793  -0.37839
 Alpha  occ. eigenvalues --   -0.36480  -0.35562  -0.33906  -0.32970  -0.32637
 Alpha  occ. eigenvalues --   -0.31981  -0.28449  -0.26030  -0.23212
 Alpha virt. eigenvalues --    0.06503   0.10177   0.10969   0.12790   0.13452
 Alpha virt. eigenvalues --    0.14061   0.14935   0.14998   0.16648   0.17527
 Alpha virt. eigenvalues --    0.17827   0.19301   0.19842   0.21750   0.22457

 Mulliken charges:
               1
     1  O   -0.454464
     2  C    0.114326
     3  C   -0.127919
     4  C   -0.220877
     5  C   -0.062198
     6  C   -0.284187
     7  C    0.459744
     8  O   -0.493144
     9  C   -0.142072
    10  H    0.286363
    11  H    0.059948
    12  H    0.069730
    13  H    0.098240
    14  H    0.092665
    15  H    0.066557
    16  H    0.090862
    17  H    0.102169
    18  H    0.281908
    19  H    0.062350
 Sum of Mulliken charges =   0.00000

 Dipole moment (field-independent basis, Debye):
    X=              0.2160    Y=             -1.7076    Z=              1.3904  Tot=              2.2127
 Quadrupole moment (field-independent basis, Debye-Ang):
   XX=            -50.1059   YY=            -57.0555   ZZ=            -50.9750
   XY=              0.0909   XZ=              3.5115   YZ=              0.2679

  Exact polarizability:  80.545  -0.631  73.511   1.531   1.187  68.443
 Approx polarizability: 113.616   0.544 110.150   1.501  -0.813 106.599

                      1                      2                      3
                      A                      A                      A
 Frequencies --    210.7073               254.1023               334.5282
 Red. masses --      5.3394                 2.6445                 1.9663
 Frc consts  --      0.1397                 0.1006                 0.1296
 IR Inten    --      1.6952                 9.8042                36.9301

                      4                      5                      6
                      A                      A                      A
 Frequencies --    350.1701               371.6444               431.4871
 Red. masses --      1.7135                 3.1417                 2.1452
 Frc consts  --      0.1238                 0.2557                 0.2353
 IR Inten    --     44.4769                16.7660                 4.1694

                      7                      8                      9
                      A                      A                      A
 Frequencies --    462.3506               491.5856               542.2958
 Red. masses --      1.8016                 5.2127                 1.1946
 Frc consts  --      0.2269                 0.7422                 0.2070
 IR Inten    --      0.4979                 6.4296                90.9772

                     10                     11                     12
                      A                      A                      A
 Frequencies --    607.7819               674.7602               735.5400
 Red. masses --      4.5380                 3.8362                 3.9301
 Frc consts  --      0.9877                 1.0291                 1.2527
 IR Inten    --      8.8361                 4.8702                 0.3725

                     13                     14                     15
                      A                      A                      A
 Frequencies --    827.0580               855.6464               873.2376
 Red. masses --      2.5810                 2.4211                 2.4717
 Frc consts  --      1.0402                 1.0444                 1.1105
 IR Inten    --      0.6637                 8.7176                 6.7553

                     16                     17                     18
                      A                      A                      A
 Frequencies --    898.7993               908.6198               939.4675
 Red. masses --      2.3332                 2.3000                 1.8385
 Frc consts  --      1.1105                 1.1188                 0.9560
 IR Inten    --      7.5061                 2.1727                 0.4142

                     19                     20                     21
                      A                      A                      A
 Frequencies --    974.2723               986.4908              1001.2386
 Red. masses --      2.5484                 1.6698                 1.5662
 Frc consts  --      1.4252                 0.9574                 0.9251
 IR Inten    --      1.6292                 0.1190                 3.8250

                     22                     23                     24
                      A                      A                      A
 Frequencies --   1029.5217              1045.0355              1078.5393
 Red. masses --      1.5799                 1.9233                 1.8899
 Frc consts  --      0.9866                 1.2376                 1.2953
 IR Inten    --     23.2151                 3.4555                30.2028

                     25                     26                     27
                      A                      A                      A
 Frequencies --   1090.3402              1113.7325              1142.3117
 Red. masses --      2.5460                 1.7779                 1.2709
 Frc consts  --      1.7833                 1.2993                 0.9770
 IR Inten    --     26.4664                16.3437                 0.7591

                     28                     29                     30
                      A                      A                      A
 Frequencies --   1158.3894              1187.8562              1203.1267
 Red. masses --      1.4352                 1.9271                 1.4739
 Frc consts  --      1.1347                 1.6021                 1.2570
 IR Inten    --      5.5698                 8.0803                47.3579

                     31                     32                     33
                      A                      A                      A
 Frequencies --   1225.4040              1242.4624              1245.5960
 Red. masses --      1.6375                 1.5815                 1.6268
 Frc consts  --      1.4487                 1.4384                 1.4871
 IR Inten    --      0.0359                 0.9945                23.6439

                     34                     35                     36
                      A                      A                      A
 Frequencies --   1288.6741              1304.6199              1323.2530
 Red. masses --      1.4166                 1.5614                 1.7957
 Frc consts  --      1.3861                 1.5658                 1.8526
 IR Inten    --      6.4540                 2.3249                40.5994

                     37                     38                     39
                      A                      A                      A
 Frequencies --   1339.4337              1402.5312              1427.9219
 Red. masses --      2.2508                 1.5407                 1.6707
 Frc consts  --      2.3792                 1.7857                 2.0070
 IR Inten    --    232.9022                 0.7111                21.3611

                     40                     41                     42
                      A                      A                      A
 Frequencies --   1492.5082              1512.1304              3003.9934
 Red. masses --      1.1742                 1.1243                 1.0850
 Frc consts  --      1.5411                 1.5147                 5.7689
 IR Inten    --      2.8036                 4.0404                70.6873

                     43                     44                     45
                      A                      A                      A
 Frequencies --   3042.4320              3046.0588              3093.0736
 Red. masses --      1.0583                 1.0602                 1.1050
 Frc consts  --      5.7719                 5.7960                 6.2285
 IR Inten    --     51.8191                39.6798                25.7483

                     46                     47                     48
                      A                      A                      A
 Frequencies --   3105.2315              3111.8081              3124.8808
 Red. masses --      1.1068                 1.0893                 1.0901
 Frc consts  --      6.2877                 6.2146                 6.2717
 IR Inten    --     26.4326                33.8039                31.4005

                     49                     50                     51
                      A                      A                      A
 Frequencies --   3133.7998              3754.7841              3807.1909
 Red. masses --      1.0913                 1.0645                 1.0662
 Frc consts  --      6.3146                 8.8424                 9.1052
 IR Inten    --     39.6134                57.2000                24.2124

 - Thermochemistry -
 -------------------
 Temperature   298.150 Kelvin.  Pressure   1.00000 Atm.
 Atom     1 has atomic number  8 and mass  15.99491

 Molecular mass:   126.06808 amu.
 Principal axes and moments of inertia in atomic units:
                           1         2         3
     Eigenvalues --   691.23448 933.267771234.50340
           X            0.99992  -0.00067   0.01293
           Y            0.00037   0.99974   0.02272
           Z           -0.01294  -0.02271   0.99966
 This molecule is an asymmetric top.
 Rotational symmetry number  1.
 Warning -- assumption of classical behavior for rotation
           may cause significant error
 Rotational temperatures (Kelvin)      0.12530     0.09281     0.07016
 Rotational constants (GHZ):           2.61090     1.93379     1.46192
 Zero-point vibrational energy     423528.4 (Joules/Mol)
                                  101.22572 (Kcal/Mol)
 Warning -- explicit consideration of  10 degrees of freedom as
           vibrations may cause significant error
 Vibrational temperatures:    303.16   365.60   481.31   503.82   534.71
          (Kelvin)            620.81   665.22   707.28   780.24   874.46
                              970.83  1058.28  1189.95  1231.08  1256.39
                             1293.17  1307.30  1351.68  1401.76  1419.34
                             1440.56  1481.25  1503.57  1551.78  1568.75
                             1602.41  1643.53  1666.66  1709.06  1731.03
                             1763.08  1787.62  1792.13  1854.11  1877.05
                             1903.86  1927.14  2017.93  2054.46  2147.38
                             2175.62  4322.07  4377.38  4382.59  4450.24
                             4467.73  4477.19  4496.00  4508.83  5402.29
                             5477.69

 Zero-point correction=                           0.161313 (Hartree/Particle)
 Thermal correction to Energy=                    0.168374
 Thermal correction to Enthalpy=                  0.169318
 Thermal correction to Gibbs Free Energy=         0.130505
 Sum of electronic and zero-point Energies=           -422.989968
 Sum of electronic and thermal Energies=              -422.982908
 Sum of electronic and thermal Enthalpies=            -422.981964
 Sum of electronic and thermal Free Energies=         -423.020777

                     E (Thermal)             CV                S
                      KCal/Mol        Cal/Mol-Kelvin    Cal/Mol-Kelvin
 Total                  105.656             30.281             81.689
 Electronic               0.000              0.000              0.000
 Translational            0.889              2.981             40.409
 Rotational               0.889              2.981             28.167
 Vibrational            103.879             24.319             13.113
 Vibration     1          0.643              1.824              2.038
 Vibration     2          0.665              1.756              1.702
 Vibration     3          0.716              1.607              1.238
 Vibration     4          0.727              1.575              1.165
 Vibration     5          0.743              1.530              1.073
 Vibration     6          0.793              1.402              0.854
 Vibration     7          0.820              1.334              0.759
 Vibration     8          0.847              1.269              0.679
 Vibration     9          0.897              1.157              0.560
 Vibration    10          0.967              1.015              0.436

 Normal termination of Gaussian 09 at Tue Jan 28 00:38:43 2020.
