 Gaussian 09, Revision D.01,
 Gaussian 09:  ES64L-G09RevD.01 24-Apr-2013

 -----------------------------
 # b3lyp 6-31G(2df,p) opt Freq
 -----------------------------

 -----
 titel
 -----
 Symbolic Z-matrix:
 Charge =  0 Multiplicity = 1

 SCF Done:  E(RB3LYP) =  -423.193529684     A.U. after   14 cycles
 Optimization completed.
    -- Stationary point found.
 Normal termination of Gaussian 09 at Mon Jan 27 13:05:42 2020.

 ----------------------------------------------------------------------
 #N Geom=AllCheck Guess=TCheck SCRF=Check GenChk RB3LYP/6-31G(2df,p) Fr
 eq
 ----------------------------------------------------------------------

 Structure from the checkpoint file:  "/scratch/puck/g09_e88cc3dc-d8ef-4c12-bd18-c150d6de7762/Gau-74393.chk"
 -----
 titel
 -----
 Charge =  0 Multiplicity = 1

                         Standard orientation:
 ---------------------------------------------------------------------
 Center     Atomic      Atomic             Coordinates (Angstroms)
 Number     Number       Type             X           Y           Z
 ---------------------------------------------------------------------
      1          8           0       -2.586486   -0.264607    0.171737
      2          6           0       -1.408783   -0.091683   -0.049435
      3          6           0       -0.868815    1.299884   -0.383904
      4          6           0        0.442426    1.701080    0.312259
      5          8           0        1.601561    0.995308   -0.093590
      6          6           0        1.599690   -0.417261    0.001691
      7          6           0        0.679279   -1.042786    1.086218
      8          6           0       -0.422796   -1.243899   -0.010339
      9          6           0        0.721984   -1.131784   -1.065252
     10          1           0       -0.723189    1.359690   -1.470471
     11          1           0       -1.652292    2.016710   -0.122502
     12          1           0        0.659970    2.746343    0.074375
     13          1           0        0.310744    1.642900    1.402556
     14          1           0        2.655016   -0.697523    0.030083
     15          1           0        1.073142   -2.011410    1.402608
     16          1           0        0.439024   -0.462982    1.979079
     17          1           0       -0.991612   -2.173039    0.032968
     18          1           0        1.121579   -2.119485   -1.309016
     19          1           0        0.529110   -0.588113   -1.992282
 ---------------------------------------------------------------------

 SCF Done:  E(RB3LYP) =  -423.193529684     A.U. after    1 cycles

 The electronic state is 1-A.
 Alpha  occ. eigenvalues --  -19.14663 -19.12570 -10.26653 -10.24230 -10.24024
 Alpha  occ. eigenvalues --  -10.19907 -10.19817 -10.19296 -10.19200  -1.04085
 Alpha  occ. eigenvalues --   -1.03475  -0.85290  -0.78296  -0.68255  -0.67574
 Alpha  occ. eigenvalues --   -0.65852  -0.55850  -0.53082  -0.51236  -0.49423
 Alpha  occ. eigenvalues --   -0.47830  -0.44216  -0.43500  -0.42380  -0.41207
 Alpha  occ. eigenvalues --   -0.38650  -0.37550  -0.36862  -0.36238  -0.34203
 Alpha  occ. eigenvalues --   -0.32155  -0.30079  -0.25565  -0.23623
 Alpha virt. eigenvalues --   -0.01434   0.07182   0.08337   0.10626   0.11888
 Alpha virt. eigenvalues --    0.12870   0.14218   0.15173   0.16171   0.17391
 Alpha virt. eigenvalues --    0.17644   0.18765   0.19692   0.20909   0.22902

 Mulliken charges:
               1
     1  O   -0.318898
     2  C    0.391674
     3  C   -0.320487
     4  C   -0.086810
     5  O   -0.263900
     6  C    0.134322
     7  C   -0.273088
     8  C   -0.104941
     9  C   -0.257636
    10  H    0.130587
    11  H    0.124929
    12  H    0.117712
    13  H    0.102086
    14  H    0.086086
    15  H    0.115762
    16  H    0.115800
    17  H    0.088238
    18  H    0.109812
    19  H    0.108752
 Sum of Mulliken charges =   0.00000

 Dipole moment (field-independent basis, Debye):
    X=              1.9314    Y=             -0.2511    Z=             -0.0662  Tot=              1.9487
 Quadrupole moment (field-independent basis, Debye-Ang):
   XX=            -64.6377   YY=            -49.2514   ZZ=            -51.3802
   XY=             -4.7228   XZ=              1.6373   YZ=              0.3065

  Exact polarizability:  80.048  -3.119  79.041  -0.790  -0.205  64.863
 Approx polarizability: 121.750  -0.838 109.363  -4.163  -1.108  99.583

                      1                      2                      3
                      A                      A                      A
 Frequencies --     92.3203               216.7161               251.4613
 Red. masses --      5.1143                 2.6427                 2.9635
 Frc consts  --      0.0257                 0.0731                 0.1104
 IR Inten    --      6.5743                 1.0063                 2.2751

                      4                      5                      6
                      A                      A                      A
 Frequencies --    335.7517               351.8617               418.2918
 Red. masses --      3.0032                 3.2784                 2.9531
 Frc consts  --      0.1995                 0.2391                 0.3044
 IR Inten    --      1.4339                 0.2760                 7.0621

                      7                      8                      9
                      A                      A                      A
 Frequencies --    437.2067               481.5329               519.4662
 Red. masses --      3.4224                 2.8223                 1.8843
 Frc consts  --      0.3854                 0.3856                 0.2996
 IR Inten    --      4.9031                 5.1495                 4.6157

                     10                     11                     12
                      A                      A                      A
 Frequencies --    665.2891               718.5702               776.2161
 Red. masses --      3.6886                 2.4332                 1.8704
 Frc consts  --      0.9619                 0.7402                 0.6640
 IR Inten    --      0.0746                 4.9593                 1.5895

                     13                     14                     15
                      A                      A                      A
 Frequencies --    792.5055               856.5357               889.7177
 Red. masses --      2.9824                 3.4393                 2.5163
 Frc consts  --      1.1036                 1.4867                 1.1736
 IR Inten    --      7.7301                14.6989                 4.0353

                     16                     17                     18
                      A                      A                      A
 Frequencies --    913.7964               916.8020               935.8423
 Red. masses --      2.2037                 2.3474                 2.1426
 Frc consts  --      1.0842                 1.1625                 1.1056
 IR Inten    --      4.9170                 4.8063                 1.8055

                     19                     20                     21
                      A                      A                      A
 Frequencies --    980.9191              1030.9999              1056.8105
 Red. masses --      1.9121                 2.0784                 1.7853
 Frc consts  --      1.0840                 1.3017                 1.1748
 IR Inten    --      5.8175                25.3624                 7.0610

                     22                     23                     24
                      A                      A                      A
 Frequencies --   1061.4431              1092.2632              1125.7838
 Red. masses --      2.4949                 1.5038                 2.2223
 Frc consts  --      1.6562                 1.0570                 1.6594
 IR Inten    --      5.3654                 6.4551                68.6218

                     25                     26                     27
                      A                      A                      A
 Frequencies --   1165.7871              1175.7539              1228.8410
 Red. masses --      1.4222                 1.9489                 1.5913
 Frc consts  --      1.1388                 1.5874                 1.4158
 IR Inten    --      3.6591                 1.5993                29.7843

                     28                     29                     30
                      A                      A                      A
 Frequencies --   1252.7853              1260.1992              1270.0152
 Red. masses --      1.3328                 1.8401                 1.5742
 Frc consts  --      1.2324                 1.7217                 1.4960
 IR Inten    --      1.0081                76.9024                14.1237

                     31                     32                     33
                      A                      A                      A
 Frequencies --   1278.0617              1291.7394              1336.2569
 Red. masses --      1.5388                 1.4187                 1.6561
 Frc consts  --      1.4809                 1.3947                 1.7423
 IR Inten    --      7.9285                16.0973                 4.7935

                     34                     35                     36
                      A                      A                      A
 Frequencies --   1347.8932              1390.1540              1417.8328
 Red. masses --      1.3349                 1.1959                 1.3045
 Frc consts  --      1.4289                 1.3616                 1.5451
 IR Inten    --      1.8305                 6.7801                16.1193

                     37                     38                     39
                      A                      A                      A
 Frequencies --   1448.8055              1468.5844              1491.2690
 Red. masses --      1.0913                 1.0876                 1.1116
 Frc consts  --      1.3496                 1.3821                 1.4565
 IR Inten    --      4.9797                11.9469                 7.4600

                     40                     41                     42
                      A                      A                      A
 Frequencies --   1514.8482              1800.3369              2999.0021
 Red. masses --      1.0841                11.4081                 1.0700
 Frc consts  --      1.4658                21.7857                 5.6701
 IR Inten    --      2.3578               188.8401                38.0741

                     43                     44                     45
                      A                      A                      A
 Frequencies --   3032.9405              3066.1972              3071.8025
 Red. masses --      1.0637                 1.0608                 1.0634
 Frc consts  --      5.7649                 5.8762                 5.9119
 IR Inten    --      8.8265                20.1301                18.9731

                     46                     47                     48
                      A                      A                      A
 Frequencies --   3083.2009              3085.8944              3101.2601
 Red. masses --      1.0925                 1.0845                 1.0966
 Frc consts  --      6.1188                 6.0845                 6.2142
 IR Inten    --     34.2353                50.4536                14.0684

                     49                     50                     51
                      A                      A                      A
 Frequencies --   3109.3467              3125.6186              3126.9382
 Red. masses --      1.0893                 1.1064                 1.1061
 Frc consts  --      6.2051                 6.3687                 6.3720
 IR Inten    --     13.6727                21.9083                20.4036

 - Thermochemistry -
 -------------------
 Temperature   298.150 Kelvin.  Pressure   1.00000 Atm.
 Atom     1 has atomic number  8 and mass  15.99491

 Molecular mass:   126.06808 amu.
 Principal axes and moments of inertia in atomic units:
                           1         2         3
     Eigenvalues --   709.000071036.718461408.72571
           X            0.99729  -0.07307   0.00826
           Y            0.07305   0.99732   0.00305
           Z           -0.00846  -0.00244   0.99996
 This molecule is an asymmetric top.
 Rotational symmetry number  1.
 Warning -- assumption of classical behavior for rotation
           may cause significant error
 Rotational temperatures (Kelvin)      0.12216     0.08355     0.06148
 Rotational constants (GHZ):           2.54547     1.74082     1.28112
 Zero-point vibrational energy     423833.7 (Joules/Mol)
                                  101.29869 (Kcal/Mol)
 Warning -- explicit consideration of   9 degrees of freedom as
           vibrations may cause significant error
 Vibrational temperatures:    132.83   311.81   361.80   483.07   506.25
          (Kelvin)            601.83   629.04   692.82   747.40   957.20
                             1033.86  1116.80  1140.24  1232.36  1280.10
                             1314.75  1319.07  1346.47  1411.32  1483.38
                             1520.51  1527.18  1571.52  1619.75  1677.31
                             1691.65  1768.03  1802.48  1813.14  1827.27
                             1838.84  1858.52  1922.57  1939.32  2000.12
                             2039.94  2084.51  2112.96  2145.60  2179.53
                             2590.28  4314.89  4363.72  4411.57  4419.63
                             4436.03  4439.91  4462.02  4473.65  4497.06
                             4498.96

 Zero-point correction=                           0.161430 (Hartree/Particle)
 Thermal correction to Energy=                    0.168802
 Thermal correction to Enthalpy=                  0.169746
 Thermal correction to Gibbs Free Energy=         0.129722
 Sum of electronic and zero-point Energies=           -423.032100
 Sum of electronic and thermal Energies=              -423.024728
 Sum of electronic and thermal Enthalpies=            -423.023784
 Sum of electronic and thermal Free Energies=         -423.063808

                     E (Thermal)             CV                S
                      KCal/Mol        Cal/Mol-Kelvin    Cal/Mol-Kelvin
 Total                  105.925             29.708             84.237
 Electronic               0.000              0.000              0.000
 Translational            0.889              2.981             40.409
 Rotational               0.889              2.981             28.428
 Vibrational            104.147             23.746             15.400
 Vibration     1          0.602              1.955              3.610
 Vibration     2          0.646              1.816              1.986
 Vibration     3          0.663              1.760              1.720
 Vibration     4          0.717              1.604              1.232
 Vibration     5          0.728              1.571              1.158
 Vibration     6          0.781              1.430              0.898
 Vibration     7          0.798              1.389              0.835
 Vibration     8          0.838              1.291              0.706
 Vibration     9          0.874              1.207              0.611

 Optimization completed.
    -- Stationary point found.
 Normal termination of Gaussian 09 at Mon Jan 27 13:53:04 2020.
