 Gaussian 09, Revision D.01,
 Gaussian 09:  ES64L-G09RevD.01 24-Apr-2013

 -----------------------------
 # b3lyp 6-31G(2df,p) opt Freq
 -----------------------------

 -----
 titel
 -----
 Symbolic Z-matrix:
 Charge =  0 Multiplicity = 1

 SCF Done:  E(RB3LYP) =  -423.120451044     A.U. after   14 cycles
 Optimization completed.
    -- Stationary point found.
 Normal termination of Gaussian 09 at Mon Jan 27 16:03:55 2020.

 ----------------------------------------------------------------------
 #N Geom=AllCheck Guess=TCheck SCRF=Check GenChk RB3LYP/6-31G(2df,p) Fr
 eq
 ----------------------------------------------------------------------

 Structure from the checkpoint file:  "/scratch/puck/g09_2f776374-c326-4a8e-a835-485b192b1d28/Gau-143929.chk"
 -----
 titel
 -----
 Charge =  0 Multiplicity = 1

                         Standard orientation:
 ---------------------------------------------------------------------
 Center     Atomic      Atomic             Coordinates (Angstroms)
 Number     Number       Type             X           Y           Z
 ---------------------------------------------------------------------
      1          6           0       -1.876684   -0.456319    1.214854
      2          6           0       -0.961132   -0.300219    0.004047
      3          6           0       -1.069173   -1.516227   -0.911304
      4          6           0       -0.826669    1.083905   -0.716471
      5          6           0       -0.082925    1.690400    0.494071
      6          6           0        0.511409    0.289635    0.166394
      7          8           0        0.490420    0.660388   -1.255259
      8          6           0        1.709793   -0.381893    0.742329
      9          8           0        2.654849   -0.763502    0.102565
     10          1           0       -1.629357   -1.373249    1.760754
     11          1           0       -1.839840    0.372608    1.922881
     12          1           0       -2.914990   -0.556945    0.878961
     13          1           0       -2.097343   -1.621745   -1.276026
     14          1           0       -0.399867   -1.425979   -1.765698
     15          1           0       -0.824332   -2.433804   -0.365385
     16          1           0       -1.511532    1.565030   -1.416298
     17          1           0        0.585996    2.511757    0.238033
     18          1           0       -0.608087    1.851959    1.433958
     19          1           0        1.649489   -0.520404    1.846857
 ---------------------------------------------------------------------

 SCF Done:  E(RB3LYP) =  -423.120451044     A.U. after    1 cycles

 The electronic state is 1-A.
 Alpha  occ. eigenvalues --  -19.14688 -19.14104 -10.27738 -10.26102 -10.25710
 Alpha  occ. eigenvalues --  -10.22191 -10.20593 -10.19097 -10.17649  -1.07141
 Alpha  occ. eigenvalues --   -1.04916  -0.82096  -0.75584  -0.70874  -0.69427
 Alpha  occ. eigenvalues --   -0.63667  -0.59858  -0.51695  -0.51209  -0.48114
 Alpha  occ. eigenvalues --   -0.45812  -0.44850  -0.44064  -0.40606  -0.40092
 Alpha  occ. eigenvalues --   -0.39738  -0.38837  -0.37605  -0.35083  -0.34661
 Alpha  occ. eigenvalues --   -0.32574  -0.31653  -0.25336  -0.24848
 Alpha virt. eigenvalues --   -0.03708   0.08256   0.08546   0.10169   0.11053
 Alpha virt. eigenvalues --    0.12118   0.12505   0.13981   0.15002   0.16298
 Alpha virt. eigenvalues --    0.16603   0.17630   0.19299   0.20089   0.20543

 Mulliken charges:
               1
     1  C   -0.481193
     2  C    0.292400
     3  C   -0.460073
     4  C    0.009509
     5  C   -0.288760
     6  C    0.293123
     7  O   -0.325089
     8  C    0.035506
     9  O   -0.238914
    10  H    0.127116
    11  H    0.120151
    12  H    0.127821
    13  H    0.114624
    14  H    0.152534
    15  H    0.117378
    16  H    0.097553
    17  H    0.122368
    18  H    0.106029
    19  H    0.077918
 Sum of Mulliken charges =   0.00000

 Dipole moment (field-independent basis, Debye):
    X=             -3.4463    Y=              0.8023    Z=              2.2065  Tot=              4.1700
 Quadrupole moment (field-independent basis, Debye-Ang):
   XX=            -59.3466   YY=            -51.8961   ZZ=            -53.4293
   XY=              1.6950   XZ=              3.4274   YZ=              0.2370

  Exact polarizability:  83.763  -1.201  75.103   0.246   0.455  72.267
 Approx polarizability: 126.316  -7.163 107.343  -5.488   0.633 112.740

                      1                      2                      3
                      A                      A                      A
 Frequencies --     71.9824               138.0119               166.8010
 Red. masses --      5.1184                 2.9119                 1.0925
 Frc consts  --      0.0156                 0.0327                 0.0179
 IR Inten    --      3.3445                 1.3464                 0.0832

                      4                      5                      6
                      A                      A                      A
 Frequencies --    196.6267               230.8589               250.2622
 Red. masses --      1.6165                 1.2843                 4.1736
 Frc consts  --      0.0368                 0.0403                 0.1540
 IR Inten    --      1.2488                 0.5929                 0.7696

                      7                      8                      9
                      A                      A                      A
 Frequencies --    349.5778               374.8754               399.2027
 Red. masses --      3.3546                 2.6919                 2.4993
 Frc consts  --      0.2415                 0.2229                 0.2347
 IR Inten    --      4.3099                 0.9660                 0.3046

                     10                     11                     12
                      A                      A                      A
 Frequencies --    485.5057               537.5743               601.7525
 Red. masses --      2.9374                 2.5635                 4.4341
 Frc consts  --      0.4080                 0.4365                 0.9460
 IR Inten    --      1.4824                 3.9517                 5.4197

                     13                     14                     15
                      A                      A                      A
 Frequencies --    674.0119               708.8626               726.7694
 Red. masses --      4.1668                 4.4366                 3.2080
 Frc consts  --      1.1153                 1.3135                 0.9983
 IR Inten    --     20.7966                34.3077                11.5643

                     16                     17                     18
                      A                      A                      A
 Frequencies --    806.0300               904.7723               931.8896
 Red. masses --      3.6588                 3.0092                 2.3639
 Frc consts  --      1.4005                 1.4514                 1.2095
 IR Inten    --      8.1194                 5.3632                 0.3860

                     19                     20                     21
                      A                      A                      A
 Frequencies --    951.2028               973.2297               977.7809
 Red. masses --      1.4258                 1.9649                 2.9360
 Frc consts  --      0.7600                 1.0965                 1.6538
 IR Inten    --      0.9094                 8.9681                11.1374

                     22                     23                     24
                      A                      A                      A
 Frequencies --   1005.3904              1030.5664              1046.7361
 Red. masses --      1.2661                 1.4793                 1.8308
 Frc consts  --      0.7540                 0.9257                 1.1819
 IR Inten    --      0.3047                 0.8003                 4.1654

                     25                     26                     27
                      A                      A                      A
 Frequencies --   1098.3826              1153.9455              1191.9603
 Red. masses --      1.6020                 1.7880                 1.7465
 Frc consts  --      1.1388                 1.4028                 1.4619
 IR Inten    --      1.4643                 8.8424                 5.2419

                     28                     29                     30
                      A                      A                      A
 Frequencies --   1197.8552              1215.1073              1248.2124
 Red. masses --      1.6625                 1.7274                 2.8324
 Frc consts  --      1.4055                 1.5027                 2.6000
 IR Inten    --     11.4955                 5.1066                 4.3898

                     31                     32                     33
                      A                      A                      A
 Frequencies --   1278.4016              1302.6474              1396.9116
 Red. masses --      3.0144                 3.5251                 1.2730
 Frc consts  --      2.9026                 3.5243                 1.4636
 IR Inten    --      1.7478                23.3859                11.3774

                     34                     35                     36
                      A                      A                      A
 Frequencies --   1418.6612              1426.0176              1476.8848
 Red. masses --      1.2335                 1.2969                 1.0857
 Frc consts  --      1.4627                 1.5538                 1.3953
 IR Inten    --      7.0888                 6.7907                 2.4670

                     37                     38                     39
                      A                      A                      A
 Frequencies --   1486.4489              1493.2099              1511.7689
 Red. masses --      1.0454                 1.1150                 1.0495
 Frc consts  --      1.3609                 1.4647                 1.4132
 IR Inten    --      0.4989                 4.2940                 8.7853

                     40                     41                     42
                      A                      A                      A
 Frequencies --   1513.2099              1824.8572              2862.6146
 Red. masses --      1.0764                10.7468                 1.0816
 Frc consts  --      1.4522                21.0856                 5.2219
 IR Inten    --      3.6803               171.7044               101.9444

                     43                     44                     45
                      A                      A                      A
 Frequencies --   3033.5416              3039.8383              3087.5025
 Red. masses --      1.0400                 1.0400                 1.1002
 Frc consts  --      5.6390                 5.6622                 6.1791
 IR Inten    --     11.1943                36.5555                 1.9238

                     46                     47                     48
                      A                      A                      A
 Frequencies --   3092.6486              3093.3099              3111.1146
 Red. masses --      1.0715                 1.0854                 1.0913
 Frc consts  --      6.0380                 6.1193                 6.2234
 IR Inten    --     14.2876                37.2373                45.3952

                     49                     50                     51
                      A                      A                      A
 Frequencies --   3134.3721              3159.1908              3170.9691
 Red. masses --      1.0955                 1.0967                 1.1105
 Frc consts  --      6.3408                 6.4492                 6.5790
 IR Inten    --     31.2140                 3.6018                21.5057

 - Thermochemistry -
 -------------------
 Temperature   298.150 Kelvin.  Pressure   1.00000 Atm.
 Atom     1 has atomic number  6 and mass  12.00000

 Molecular mass:   126.06808 amu.
 Principal axes and moments of inertia in atomic units:
                           1         2         3
     Eigenvalues --   760.599131229.414991355.59871
           X            0.99880   0.04889  -0.00289
           Y           -0.04842   0.99457   0.09215
           Z            0.00738  -0.09190   0.99574
 This molecule is an asymmetric top.
 Rotational symmetry number  1.
 Warning -- assumption of classical behavior for rotation
           may cause significant error
 Rotational temperatures (Kelvin)      0.11388     0.07045     0.06389
 Rotational constants (GHZ):           2.37279     1.46797     1.33132
 Zero-point vibrational energy     410079.0 (Joules/Mol)
                                   98.01124 (Kcal/Mol)
 Warning -- explicit consideration of  12 degrees of freedom as
           vibrations may cause significant error
 Vibrational temperatures:    103.57   198.57   239.99   282.90   332.15
          (Kelvin)            360.07   502.96   539.36   574.36   698.53
                              773.45   865.79   969.75  1019.89  1045.66
                             1159.70  1301.76  1340.78  1368.57  1400.26
                             1406.81  1446.53  1482.75  1506.02  1580.33
                             1660.27  1714.96  1723.44  1748.27  1795.90
                             1839.33  1874.22  2009.84  2041.13  2051.72
                             2124.91  2138.67  2148.39  2175.10  2177.17
                             2625.56  4118.66  4364.58  4373.64  4442.22
                             4449.63  4450.58  4476.19  4509.66  4545.37
                             4562.31

 Zero-point correction=                           0.156191 (Hartree/Particle)
 Thermal correction to Energy=                    0.165174
 Thermal correction to Enthalpy=                  0.166118
 Thermal correction to Gibbs Free Energy=         0.122646
 Sum of electronic and zero-point Energies=           -422.964260
 Sum of electronic and thermal Energies=              -422.955277
 Sum of electronic and thermal Enthalpies=            -422.954333
 Sum of electronic and thermal Free Energies=         -422.997805

                     E (Thermal)             CV                S
                      KCal/Mol        Cal/Mol-Kelvin    Cal/Mol-Kelvin
 Total                  103.648             33.848             91.495
 Electronic               0.000              0.000              0.000
 Translational            0.889              2.981             40.409
 Rotational               0.889              2.981             28.629
 Vibrational            101.871             27.886             22.457
 Vibration     1          0.598              1.967              4.098
 Vibration     2          0.614              1.915              2.831
 Vibration     3          0.624              1.883              2.471
 Vibration     4          0.636              1.845              2.164
 Vibration     5          0.653              1.794              1.872
 Vibration     6          0.663              1.762              1.729
 Vibration     7          0.727              1.576              1.168
 Vibration     8          0.746              1.524              1.060
 Vibration     9          0.765              1.472              0.966
 Vibration    10          0.842              1.282              0.695
 Vibration    11          0.893              1.167              0.571
 Vibration    12          0.960              1.028              0.447

 Normal termination of Gaussian 09 at Mon Jan 27 17:19:06 2020.
