 Gaussian 09, Revision D.01,
 Gaussian 09:  ES64L-G09RevD.01 24-Apr-2013

 -----------------------------
 # b3lyp 6-31G(2df,p) opt Freq
 -----------------------------

 -----
 titel
 -----
 Symbolic Z-matrix:
 Charge =  0 Multiplicity = 1

 SCF Done:  E(RB3LYP) =  -423.200048733     A.U. after   13 cycles
 Optimization completed.
    -- Stationary point found.
 Normal termination of Gaussian 09 at Mon Jan 27 11:19:37 2020.

 ----------------------------------------------------------------------
 #N Geom=AllCheck Guess=TCheck SCRF=Check GenChk RB3LYP/6-31G(2df,p) Fr
 eq
 ----------------------------------------------------------------------

 Structure from the checkpoint file:  "/scratch/puck/g09_1de825a1-bb71-4665-bb02-ecc7befb83dd/Gau-164781.chk"
 -----
 titel
 -----
 Charge =  0 Multiplicity = 1

                         Standard orientation:
 ---------------------------------------------------------------------
 Center     Atomic      Atomic             Coordinates (Angstroms)
 Number     Number       Type             X           Y           Z
 ---------------------------------------------------------------------
      1          6           0       -1.552793    0.625780   -0.723204
      2          6           0       -0.661899    1.203069    0.418528
      3          6           0        0.762654    1.610904    0.022022
      4          6           0        1.543180    0.458098   -0.653573
      5          6           0        1.066010   -0.908748   -0.128686
      6          8           0       -0.070559   -1.378493   -0.850180
      7          6           0       -1.219802   -0.807834   -0.239419
      8          6           0       -0.645931   -0.218426    1.083221
      9          8           0        0.641805   -0.788546    1.218244
     10          1           0       -2.611161    0.865690   -0.587263
     11          1           0       -1.268083    0.855052   -1.752970
     12          1           0       -1.129927    1.991078    1.013463
     13          1           0        0.740631    2.492198   -0.627379
     14          1           0        1.291556    1.904489    0.934858
     15          1           0        1.418783    0.460958   -1.740691
     16          1           0        2.613370    0.571185   -0.452611
     17          1           0        1.838333   -1.679395   -0.188114
     18          1           0       -2.014414   -1.556017   -0.230639
     19          1           0       -1.197557   -0.345981    2.013500
 ---------------------------------------------------------------------

 SCF Done:  E(RB3LYP) =  -423.200048733     A.U. after    1 cycles

 The electronic state is 1-A.
 Alpha  occ. eigenvalues --  -19.14664 -19.14067 -10.27296 -10.22984 -10.22818
 Alpha  occ. eigenvalues --  -10.18833 -10.18490 -10.18020 -10.17999  -1.08792
 Alpha  occ. eigenvalues --   -0.99140  -0.83698  -0.78452  -0.68412  -0.65700
 Alpha  occ. eigenvalues --   -0.63828  -0.57694  -0.54077  -0.53124  -0.47464
 Alpha  occ. eigenvalues --   -0.45722  -0.45120  -0.43521  -0.42267  -0.40763
 Alpha  occ. eigenvalues --   -0.38140  -0.36899  -0.35755  -0.33303  -0.32321
 Alpha  occ. eigenvalues --   -0.31948  -0.29201  -0.25778  -0.24811
 Alpha virt. eigenvalues --    0.07611   0.09610   0.11305   0.12711   0.13410
 Alpha virt. eigenvalues --    0.13866   0.14392   0.15277   0.17274   0.18135
 Alpha virt. eigenvalues --    0.19102   0.19874   0.20128   0.20331   0.22664

 Mulliken charges:
               1
     1  C   -0.259735
     2  C   -0.059842
     3  C   -0.211907
     4  C   -0.239001
     5  C    0.184419
     6  O   -0.271980
     7  C    0.076395
     8  C    0.080034
     9  O   -0.251841
    10  H    0.101349
    11  H    0.104622
    12  H    0.068673
    13  H    0.098383
    14  H    0.110254
    15  H    0.111968
    16  H    0.102397
    17  H    0.091449
    18  H    0.080507
    19  H    0.083856
 Sum of Mulliken charges =   0.00000

 Dipole moment (field-independent basis, Debye):
    X=             -0.5605    Y=              1.4682    Z=             -0.0137  Tot=              1.5716
 Quadrupole moment (field-independent basis, Debye-Ang):
   XX=            -49.1587   YY=            -54.6970   ZZ=            -55.0690
   XY=              0.0711   XZ=             -2.4567   YZ=             -0.3547

  Exact polarizability:  79.531  -0.651  71.475  -1.581   0.268  65.822
 Approx polarizability: 111.029  -2.702 102.233  -0.180   1.476 103.491

                      1                      2                      3
                      A                      A                      A
 Frequencies --    169.3368               308.2618               322.2293
 Red. masses --      2.3414                 2.1544                 2.3187
 Frc consts  --      0.0396                 0.1206                 0.1418
 IR Inten    --      0.7001                 2.0784                 0.2410

                      4                      5                      6
                      A                      A                      A
 Frequencies --    422.0790               453.2180               529.5390
 Red. masses --      3.3708                 3.6202                 4.9379
 Frc consts  --      0.3538                 0.4381                 0.8158
 IR Inten    --      0.3055                 7.2893                 0.1473

                      7                      8                      9
                      A                      A                      A
 Frequencies --    626.8322               667.7551               746.8528
 Red. masses --      5.0360                 4.0192                 2.2059
 Frc consts  --      1.1658                 1.0559                 0.7250
 IR Inten    --      6.5153                 2.7274                 2.8224

                     10                     11                     12
                      A                      A                      A
 Frequencies --    779.1354               799.6836               836.4423
 Red. masses --      2.0806                 3.0695                 3.0719
 Frc consts  --      0.7442                 1.1565                 1.2663
 IR Inten    --      1.0721                 9.4891                 5.5189

                     13                     14                     15
                      A                      A                      A
 Frequencies --    858.1475               881.6750               894.7037
 Red. masses --      2.3219                 2.9441                 2.1609
 Frc consts  --      1.0074                 1.3484                 1.0192
 IR Inten    --      9.9889                11.9032                 2.5332

                     16                     17                     18
                      A                      A                      A
 Frequencies --    919.9205               950.0942               976.3284
 Red. masses --      3.5452                 2.2718                 2.1764
 Frc consts  --      1.7676                 1.2083                 1.2223
 IR Inten    --     39.7192                27.6854                 6.3278

                     19                     20                     21
                      A                      A                      A
 Frequencies --    987.4702              1041.8328              1073.6961
 Red. masses --      2.8459                 2.3492                 1.9929
 Frc consts  --      1.6350                 1.5023                 1.3536
 IR Inten    --      2.4560                22.7394                 5.0121

                     22                     23                     24
                      A                      A                      A
 Frequencies --   1084.1522              1092.8137              1139.8959
 Red. masses --      1.8339                 3.3201                 4.3911
 Frc consts  --      1.2700                 2.3361                 3.3616
 IR Inten    --     31.3361                14.0127               126.1348

                     25                     26                     27
                      A                      A                      A
 Frequencies --   1147.0987              1164.3298              1211.4313
 Red. masses --      1.5850                 1.4557                 1.3390
 Frc consts  --      1.2288                 1.1627                 1.1577
 IR Inten    --      3.1920                 1.4603                 3.9919

                     28                     29                     30
                      A                      A                      A
 Frequencies --   1230.5840              1236.9185              1272.3643
 Red. masses --      1.4645                 1.5096                 1.5645
 Frc consts  --      1.3067                 1.3608                 1.4923
 IR Inten    --      1.2444                13.4300                 1.3087

                     31                     32                     33
                      A                      A                      A
 Frequencies --   1280.3482              1315.9445              1327.3427
 Red. masses --      1.3076                 1.4234                 1.4077
 Frc consts  --      1.2629                 1.4523                 1.4612
 IR Inten    --      0.1447                 0.9207                 1.1386

                     34                     35                     36
                      A                      A                      A
 Frequencies --   1335.3963              1355.2968              1371.5324
 Red. masses --      1.2042                 1.6032                 1.3337
 Frc consts  --      1.2653                 1.7350                 1.4782
 IR Inten    --      2.1099                15.7869                 3.8075

                     37                     38                     39
                      A                      A                      A
 Frequencies --   1379.8103              1393.8637              1470.9175
 Red. masses --      1.4342                 1.3878                 1.1115
 Frc consts  --      1.6087                 1.5886                 1.4169
 IR Inten    --     10.2714                 5.3968                 4.3741

                     40                     41                     42
                      A                      A                      A
 Frequencies --   1478.9042              1495.1152              3039.5601
 Red. masses --      1.0748                 1.0959                 1.0605
 Frc consts  --      1.3851                 1.4433                 5.7727
 IR Inten    --      1.6277                 5.3256                15.7664

                     43                     44                     45
                      A                      A                      A
 Frequencies --   3051.3012              3056.5474              3074.2781
 Red. masses --      1.0614                 1.0606                 1.0906
 Frc consts  --      5.8222                 5.8382                 6.0732
 IR Inten    --     27.6533                20.2841                49.7464

                     46                     47                     48
                      A                      A                      A
 Frequencies --   3075.7189              3089.2886              3093.7229
 Red. masses --      1.0984                 1.0892                 1.0911
 Frc consts  --      6.1222                 6.1245                 6.1530
 IR Inten    --      8.7271                47.3312                44.0403

                     49                     50                     51
                      A                      A                      A
 Frequencies --   3098.4763              3114.2107              3129.1170
 Red. masses --      1.1026                 1.1065                 1.0912
 Frc consts  --      6.2366                 6.3227                 6.2952
 IR Inten    --     38.7539                19.5281                36.6121

 - Thermochemistry -
 -------------------
 Temperature   298.150 Kelvin.  Pressure   1.00000 Atm.
 Atom     1 has atomic number  6 and mass  12.00000

 Molecular mass:   126.06808 amu.
 Principal axes and moments of inertia in atomic units:
                           1         2         3
     Eigenvalues --   757.52623 785.34871 994.12279
           X            0.98590   0.16271  -0.03915
           Y           -0.16345   0.98641  -0.01649
           Z            0.03593   0.02266   0.99910
 This molecule is an asymmetric top.
 Rotational symmetry number  1.
 Warning -- assumption of classical behavior for rotation
           may cause significant error
 Rotational temperatures (Kelvin)      0.11434     0.11029     0.08713
 Rotational constants (GHZ):           2.38241     2.29801     1.81541
 Zero-point vibrational energy     429767.5 (Joules/Mol)
                                  102.71690 (Kcal/Mol)
 Warning -- explicit consideration of   6 degrees of freedom as
           vibrations may cause significant error
 Vibrational temperatures:    243.64   443.52   463.62   607.28   652.08
          (Kelvin)            761.89   901.87   960.75  1074.55  1121.00
                             1150.56  1203.45  1234.68  1268.53  1287.28
                             1323.56  1366.97  1404.72  1420.75  1498.96
                             1544.81  1559.85  1572.31  1640.05  1650.42
                             1675.21  1742.98  1770.53  1779.65  1830.65
                             1842.13  1893.35  1909.75  1921.33  1949.97
                             1973.33  1985.24  2005.46  2116.32  2127.81
                             2151.13  4373.24  4390.14  4397.68  4423.20
                             4425.27  4444.79  4451.17  4458.01  4480.65
                             4502.10

 Zero-point correction=                           0.163690 (Hartree/Particle)
 Thermal correction to Energy=                    0.169959
 Thermal correction to Enthalpy=                  0.170903
 Thermal correction to Gibbs Free Energy=         0.133382
 Sum of electronic and zero-point Energies=           -423.036359
 Sum of electronic and thermal Energies=              -423.030090
 Sum of electronic and thermal Enthalpies=            -423.029146
 Sum of electronic and thermal Free Energies=         -423.066667

                     E (Thermal)             CV                S
                      KCal/Mol        Cal/Mol-Kelvin    Cal/Mol-Kelvin
 Total                  106.651             26.858             78.970
 Electronic               0.000              0.000              0.000
 Translational            0.889              2.981             40.409
 Rotational               0.889              2.981             27.872
 Vibrational            104.873             20.896             10.689
 Vibration     1          0.625              1.880              2.443
 Vibration     2          0.698              1.658              1.372
 Vibration     3          0.707              1.631              1.299
 Vibration     4          0.784              1.422              0.885
 Vibration     5          0.812              1.354              0.786
 Vibration     6          0.884              1.185              0.588

 Optimization completed.
    -- Stationary point found.
 Normal termination of Gaussian 09 at Mon Jan 27 12:10:41 2020.
