 Gaussian 09, Revision D.01,
 Gaussian 09:  ES64L-G09RevD.01 24-Apr-2013

 -----------------------------
 # b3lyp 6-31G(2df,p) opt Freq
 -----------------------------

 -----
 titel
 -----
 Symbolic Z-matrix:
 Charge =  0 Multiplicity = 1

 SCF Done:  E(RB3LYP) =  -423.119602960     A.U. after   13 cycles
 Optimization completed.
    -- Stationary point found.
 Normal termination of Gaussian 09 at Mon Jan 27 22:07:35 2020.

 ----------------------------------------------------------------------
 #N Geom=AllCheck Guess=TCheck SCRF=Check GenChk RB3LYP/6-31G(2df,p) Fr
 eq
 ----------------------------------------------------------------------

 Structure from the checkpoint file:  "/scratch/puck/g09_7e9ab1dc-b3c0-453a-91f2-54c6e89ae485/Gau-159508.chk"
 -----
 titel
 -----
 Charge =  0 Multiplicity = 1

                         Standard orientation:
 ---------------------------------------------------------------------
 Center     Atomic      Atomic             Coordinates (Angstroms)
 Number     Number       Type             X           Y           Z
 ---------------------------------------------------------------------
      1          6           0       -2.663845   -0.095576   -0.410901
      2          6           0       -1.310141   -0.771892   -0.232224
      3          6           0       -0.164336   -0.101809   -0.994001
      4          6           0        1.101520   -0.333003   -0.102880
      5          6           0        2.502057   -0.449053   -0.596910
      6          8           0        0.674683   -1.117832    1.014248
      7          6           0       -0.541433   -0.327731    1.043443
      8          6           0        0.171983    0.806172    0.169423
      9          8           0        0.261820    2.171389    0.202758
     10          1           0       -3.065173   -0.273788   -1.413809
     11          1           0       -3.391924   -0.480454    0.312070
     12          1           0       -2.585699    0.988330   -0.272039
     13          1           0       -1.391848   -1.860538   -0.329140
     14          1           0       -0.075767    0.110715   -2.052726
     15          1           0        2.680413    0.279658   -1.393159
     16          1           0        3.218897   -0.261975    0.209445
     17          1           0        2.695752   -1.448638   -1.000219
     18          1           0       -1.006190   -0.267201    2.026681
     19          1           0        0.854685    2.422787    0.921146
 ---------------------------------------------------------------------

 SCF Done:  E(RB3LYP) =  -423.119602960     A.U. after    1 cycles

 The electronic state is 1-A.
 Alpha  occ. eigenvalues --  -19.16320 -19.13186 -10.23756 -10.23647 -10.23248
 Alpha  occ. eigenvalues --  -10.18815 -10.18601 -10.18562 -10.17367  -1.06363
 Alpha  occ. eigenvalues --   -1.03698  -0.85053  -0.76962  -0.72431  -0.65177
 Alpha  occ. eigenvalues --   -0.62226  -0.57286  -0.54297  -0.50539  -0.48051
 Alpha  occ. eigenvalues --   -0.46327  -0.42993  -0.41201  -0.40868  -0.39987
 Alpha  occ. eigenvalues --   -0.39519  -0.37786  -0.36731  -0.35130  -0.33511
 Alpha  occ. eigenvalues --   -0.31957  -0.25676  -0.25389  -0.22109
 Alpha virt. eigenvalues --    0.06650   0.08986   0.10239   0.11641   0.12163
 Alpha virt. eigenvalues --    0.13679   0.15047   0.15797   0.16002   0.17045
 Alpha virt. eigenvalues --    0.18174   0.18984   0.20265   0.21497   0.23063

 Mulliken charges:
               1
     1  C   -0.412030
     2  C    0.008966
     3  C   -0.195221
     4  C    0.353810
     5  C   -0.513264
     6  O   -0.317696
     7  C   -0.023382
     8  C    0.263163
     9  O   -0.450353
    10  H    0.117230
    11  H    0.112201
    12  H    0.127099
    13  H    0.071182
    14  H    0.088754
    15  H    0.131496
    16  H    0.127341
    17  H    0.135368
    18  H    0.081529
    19  H    0.293805
 Sum of Mulliken charges =   0.00000

 Dipole moment (field-independent basis, Debye):
    X=              0.4292    Y=              0.8517    Z=             -0.0406  Tot=              0.9546
 Quadrupole moment (field-independent basis, Debye-Ang):
   XX=            -49.8714   YY=            -55.8418   ZZ=            -51.0978
   XY=              3.6142   XZ=             -1.0986   YZ=              4.4668

  Exact polarizability:  88.226   1.399  69.077  -1.016   1.492  69.206
 Approx polarizability: 112.892  -0.013 108.122   0.581   0.298 108.209

                      1                      2                      3
                      A                      A                      A
 Frequencies --    153.4900               171.0596               184.1281
 Red. masses --      3.3034                 2.6958                 1.0811
 Frc consts  --      0.0459                 0.0465                 0.0216
 IR Inten    --      2.2385                 0.2460                 0.5977

                      4                      5                      6
                      A                      A                      A
 Frequencies --    221.1356               240.1743               315.5932
 Red. masses --      2.5201                 1.0480                 3.1622
 Frc consts  --      0.0726                 0.0356                 0.1856
 IR Inten    --      1.3792                 0.0214                 3.5140

                      7                      8                      9
                      A                      A                      A
 Frequencies --    327.4983               360.3338               419.6896
 Red. masses --      3.0174                 1.2943                 2.5265
 Frc consts  --      0.1907                 0.0990                 0.2622
 IR Inten    --      7.8098                66.0207                36.2705

                     10                     11                     12
                      A                      A                      A
 Frequencies --    494.8366               587.2569               625.8338
 Red. masses --      4.8329                 4.2273                 3.7439
 Frc consts  --      0.6972                 0.8590                 0.8640
 IR Inten    --      1.7892                 6.6762                 3.2694

                     13                     14                     15
                      A                      A                      A
 Frequencies --    661.8492               744.4391               776.2145
 Red. masses --      3.9322                 4.5741                 2.3818
 Frc consts  --      1.0149                 1.4935                 0.8455
 IR Inten    --     11.3951                 0.7175                 3.9848

                     16                     17                     18
                      A                      A                      A
 Frequencies --    851.7194               895.3443               908.3401
 Red. masses --      3.7834                 2.1766                 2.0398
 Frc consts  --      1.6171                 1.0280                 0.9916
 IR Inten    --      3.5504                10.2081                15.6586

                     19                     20                     21
                      A                      A                      A
 Frequencies --    926.1186               959.5385               985.7177
 Red. masses --      1.5909                 3.4073                 1.8691
 Frc consts  --      0.8039                 1.8484                 1.0700
 IR Inten    --     21.4282                41.9313                 5.9704

                     22                     23                     24
                      A                      A                      A
 Frequencies --   1024.3754              1053.3203              1079.4966
 Red. masses --      2.1685                 2.5487                 1.3681
 Frc consts  --      1.3407                 1.6661                 0.9393
 IR Inten    --      2.8644                 4.5547                 0.0866

                     25                     26                     27
                      A                      A                      A
 Frequencies --   1107.1479              1118.7210              1138.9924
 Red. masses --      1.7195                 2.1739                 2.1035
 Frc consts  --      1.2418                 1.6030                 1.6078
 IR Inten    --     13.7301                 3.4371                 2.8037

                     28                     29                     30
                      A                      A                      A
 Frequencies --   1172.8164              1208.8172              1264.7327
 Red. masses --      1.9494                 2.0079                 1.5749
 Frc consts  --      1.5798                 1.7287                 1.4842
 IR Inten    --     18.8784                29.9127                70.1291

                     31                     32                     33
                      A                      A                      A
 Frequencies --   1270.1733              1293.1352              1353.6631
 Red. masses --      1.6549                 1.8743                 1.7490
 Frc consts  --      1.5730                 1.8466                 1.8882
 IR Inten    --      5.1954                80.5567                 2.4481

                     34                     35                     36
                      A                      A                      A
 Frequencies --   1377.0551              1413.3562              1416.8003
 Red. masses --      1.8035                 1.2610                 1.5194
 Frc consts  --      2.0149                 1.4841                 1.7970
 IR Inten    --      7.6474                 2.6397                 6.0803

                     37                     38                     39
                      A                      A                      A
 Frequencies --   1471.8267              1490.2617              1496.3374
 Red. masses --      1.0874                 1.4789                 1.0506
 Frc consts  --      1.3879                 1.9352                 1.3859
 IR Inten    --      0.7000                14.7398                 3.3534

                     40                     41                     42
                      A                      A                      A
 Frequencies --   1501.4168              1517.0622              3027.0913
 Red. masses --      1.0508                 2.1673                 1.0353
 Frc consts  --      1.3956                 2.9389                 5.5895
 IR Inten    --      2.0447                43.2872                32.2070

                     43                     44                     45
                      A                      A                      A
 Frequencies --   3033.6884              3042.3318              3093.0964
 Red. masses --      1.0355                 1.0838                 1.1010
 Frc consts  --      5.6148                 5.9101                 6.2064
 IR Inten    --     28.4408                32.2609                26.0029

                     46                     47                     48
                      A                      A                      A
 Frequencies --   3096.6848              3100.9642              3114.3305
 Red. masses --      1.1016                 1.1011                 1.1000
 Frc consts  --      6.2241                 6.2385                 6.2859
 IR Inten    --     16.1529                31.8607                13.1665

                     49                     50                     51
                      A                      A                      A
 Frequencies --   3131.2916              3192.3605              3777.5251
 Red. masses --      1.0924                 1.0931                 1.0660
 Frc consts  --      6.3106                 6.5635                 8.9620
 IR Inten    --     34.2258                 9.3055                24.9339

 - Thermochemistry -
 -------------------
 Temperature   298.150 Kelvin.  Pressure   1.00000 Atm.
 Atom     1 has atomic number  6 and mass  12.00000

 Molecular mass:   126.06808 amu.
 Principal axes and moments of inertia in atomic units:
                           1         2         3
     Eigenvalues --   687.645181172.357821404.61007
           X            0.99991   0.00699  -0.01148
           Y           -0.00645   0.99889   0.04662
           Z            0.01179  -0.04654   0.99885
 This molecule is an asymmetric top.
 Rotational symmetry number  1.
 Warning -- assumption of classical behavior for rotation
           may cause significant error
 Rotational temperatures (Kelvin)      0.12596     0.07388     0.06166
 Rotational constants (GHZ):           2.62452     1.53941     1.28487
 Zero-point vibrational energy     413843.2 (Joules/Mol)
                                   98.91090 (Kcal/Mol)
 Warning -- explicit consideration of  11 degrees of freedom as
           vibrations may cause significant error
 Vibrational temperatures:    220.84   246.12   264.92   318.16   345.56
          (Kelvin)            454.07   471.20   518.44   603.84   711.96
                              844.93   900.43   952.25  1071.08  1116.80
                             1225.43  1288.20  1306.90  1332.48  1380.56
                             1418.23  1473.85  1515.49  1553.15  1592.94
                             1609.59  1638.75  1687.42  1739.22  1819.67
                             1827.49  1860.53  1947.62  1981.27  2033.50
                             2038.46  2117.63  2144.15  2152.89  2160.20
                             2182.71  4355.30  4364.80  4377.23  4450.27
                             4455.43  4461.59  4480.82  4505.22  4593.09
                             5435.01

 Zero-point correction=                           0.157625 (Hartree/Particle)
 Thermal correction to Energy=                    0.166188
 Thermal correction to Enthalpy=                  0.167132
 Thermal correction to Gibbs Free Energy=         0.125074
 Sum of electronic and zero-point Energies=           -422.961978
 Sum of electronic and thermal Energies=              -422.953415
 Sum of electronic and thermal Enthalpies=            -422.952471
 Sum of electronic and thermal Free Energies=         -422.994529

                     E (Thermal)             CV                S
                      KCal/Mol        Cal/Mol-Kelvin    Cal/Mol-Kelvin
 Total                  104.284             33.403             88.518
 Electronic               0.000              0.000              0.000
 Translational            0.889              2.981             40.409
 Rotational               0.889              2.981             28.517
 Vibrational            102.507             27.441             19.592
 Vibration     1          0.619              1.899              2.629
 Vibration     2          0.626              1.878              2.424
 Vibration     3          0.631              1.861              2.286
 Vibration     4          0.648              1.809              1.950
 Vibration     5          0.657              1.779              1.802
 Vibration     6          0.703              1.644              1.333
 Vibration     7          0.711              1.621              1.272
 Vibration     8          0.735              1.554              1.121
 Vibration     9          0.782              1.427              0.893
 Vibration    10          0.850              1.261              0.671
 Vibration    11          0.944              1.059              0.472

 Optimization completed.
    -- Stationary point found.
 Normal termination of Gaussian 09 at Mon Jan 27 22:59:13 2020.
