 Gaussian 09, Revision D.01,
 Gaussian 09:  ES64L-G09RevD.01 24-Apr-2013

 -----------------------------
 # b3lyp 6-31G(2df,p) opt Freq
 -----------------------------

 -----
 titel
 -----
 Symbolic Z-matrix:
 Charge =  0 Multiplicity = 1

 SCF Done:  E(RB3LYP) =  -423.192401195     A.U. after   14 cycles
 Optimization completed.
    -- Stationary point found.
 Normal termination of Gaussian 09 at Mon Jan 27 13:35:34 2020.

 ----------------------------------------------------------------------
 #N Geom=AllCheck Guess=TCheck SCRF=Check GenChk RB3LYP/6-31G(2df,p) Fr
 eq
 ----------------------------------------------------------------------

 Structure from the checkpoint file:  "/scratch/puck/g09_14ed27a7-4cc0-43ea-b167-34cc9ae7688c/Gau-2191.chk"
 -----
 titel
 -----
 Charge =  0 Multiplicity = 1

                         Standard orientation:
 ---------------------------------------------------------------------
 Center     Atomic      Atomic             Coordinates (Angstroms)
 Number     Number       Type             X           Y           Z
 ---------------------------------------------------------------------
      1          8           0       -2.428633   -0.680669    0.842505
      2          6           0       -2.144207   -0.200081   -0.226400
      3          6           0       -0.752141   -0.148455   -0.814322
      4          6           0       -0.235560    1.318854   -0.833053
      5          6           0        0.353800    1.520975    0.579393
      6          6           0        0.969423    0.164012    0.951384
      7          6           0        2.247031   -0.238552    0.187058
      8          8           0        1.508434   -1.118767   -0.688795
      9          6           0        0.279105   -0.887438    0.039444
     10          1           0       -2.926297    0.278469   -0.861598
     11          1           0       -0.800007   -0.557080   -1.831323
     12          1           0        0.543667    1.404184   -1.595551
     13          1           0       -1.014979    2.046103   -1.080436
     14          1           0        1.078937    2.339997    0.615619
     15          1           0       -0.445836    1.763119    1.288132
     16          1           0        0.983338   -0.027102    2.024024
     17          1           0        2.756899    0.561577   -0.365481
     18          1           0        2.989060   -0.788371    0.779451
     19          1           0       -0.107902   -1.801308    0.496460
 ---------------------------------------------------------------------

 SCF Done:  E(RB3LYP) =  -423.192401195     A.U. after    1 cycles

 The electronic state is 1-A.
 Alpha  occ. eigenvalues --  -19.14520 -19.13218 -10.27503 -10.23186 -10.22994
 Alpha  occ. eigenvalues --  -10.19834 -10.19790 -10.19279 -10.19113  -1.05185
 Alpha  occ. eigenvalues --   -1.03750  -0.83658  -0.75665  -0.70331  -0.67439
 Alpha  occ. eigenvalues --   -0.61727  -0.56701  -0.53096  -0.51028  -0.50209
 Alpha  occ. eigenvalues --   -0.45981  -0.45904  -0.43546  -0.42890  -0.41462
 Alpha  occ. eigenvalues --   -0.39233  -0.37137  -0.36088  -0.34497  -0.34346
 Alpha  occ. eigenvalues --   -0.31249  -0.29762  -0.26440  -0.24218
 Alpha virt. eigenvalues --   -0.02576   0.07565   0.08558   0.10252   0.12168
 Alpha virt. eigenvalues --    0.12992   0.14103   0.15034   0.15798   0.16087
 Alpha virt. eigenvalues --    0.17232   0.18774   0.19255   0.19815   0.20639

 Mulliken charges:
               1
     1  O   -0.248692
     2  C    0.145533
     3  C   -0.113688
     4  C   -0.243029
     5  C   -0.227138
     6  C   -0.057090
     7  C   -0.084538
     8  O   -0.307978
     9  C    0.139013
    10  H    0.080527
    11  H    0.102446
    12  H    0.122943
    13  H    0.103017
    14  H    0.101832
    15  H    0.114444
    16  H    0.083914
    17  H    0.097125
    18  H    0.102018
    19  H    0.089342
 Sum of Mulliken charges =   0.00000

 Dipole moment (field-independent basis, Debye):
    X=              0.6663    Y=              2.0259    Z=             -0.6441  Tot=              2.2279
 Quadrupole moment (field-independent basis, Debye-Ang):
   XX=            -55.7695   YY=            -53.9577   ZZ=            -53.7627
   XY=              0.0395   XZ=              6.9998   YZ=             -0.5634

  Exact polarizability:  84.203   0.604  69.082   2.177  -3.839  68.870
 Approx polarizability: 111.670   3.083 102.394  -3.199  -7.050 111.566

                      1                      2                      3
                      A                      A                      A
 Frequencies --     57.2694               110.2977               177.4813
 Red. masses --      5.1966                 2.9821                 3.2064
 Frc consts  --      0.0100                 0.0214                 0.0595
 IR Inten    --      6.3126                 1.6091                 6.0354

                      4                      5                      6
                      A                      A                      A
 Frequencies --    191.6448               292.5091               354.5624
 Red. masses --      3.2347                 2.7194                 1.8370
 Frc consts  --      0.0700                 0.1371                 0.1361
 IR Inten    --      3.3149                 0.9947                 0.4301

                      7                      8                      9
                      A                      A                      A
 Frequencies --    396.9756               566.0809               600.9963
 Red. masses --      3.3840                 4.3705                 2.3994
 Frc consts  --      0.3142                 0.8252                 0.5106
 IR Inten    --      1.4287                 9.6090                 1.9011

                     10                     11                     12
                      A                      A                      A
 Frequencies --    737.2206               780.5284               814.8579
 Red. masses --      4.8040                 2.1820                 3.1768
 Frc consts  --      1.5383                 0.7832                 1.2428
 IR Inten    --      6.9677                 6.7242                 8.5744

                     13                     14                     15
                      A                      A                      A
 Frequencies --    857.6432               870.1811               903.2485
 Red. masses --      2.4826                 2.0934                 2.3131
 Frc consts  --      1.0759                 0.9340                 1.1119
 IR Inten    --     14.0949                 1.1656                 5.1048

                     16                     17                     18
                      A                      A                      A
 Frequencies --    919.5850               935.1930               980.9479
 Red. masses --      1.6890                 2.4093                 2.1409
 Frc consts  --      0.8415                 1.2415                 1.2138
 IR Inten    --      6.7985                 0.8495                14.6894

                     19                     20                     21
                      A                      A                      A
 Frequencies --   1000.6362              1022.6288              1035.8775
 Red. masses --      1.7581                 2.9507                 3.9653
 Frc consts  --      1.0372                 1.8181                 2.5069
 IR Inten    --     15.0049                58.3331                43.4170

                     22                     23                     24
                      A                      A                      A
 Frequencies --   1060.8669              1081.2126              1124.2790
 Red. masses --      1.7626                 1.5805                 1.8274
 Frc consts  --      1.1688                 1.0886                 1.3610
 IR Inten    --      0.7276                 2.9797                 0.1810

                     25                     26                     27
                      A                      A                      A
 Frequencies --   1160.6717              1173.2280              1191.4730
 Red. masses --      1.1763                 1.4309                 1.6604
 Frc consts  --      0.9336                 1.1605                 1.3888
 IR Inten    --      0.8427                 0.7786                 7.4841

                     28                     29                     30
                      A                      A                      A
 Frequencies --   1210.2876              1260.9415              1278.1696
 Red. masses --      1.7109                 1.3604                 1.4357
 Frc consts  --      1.4766                 1.2744                 1.3820
 IR Inten    --      3.6427                 2.4111                 6.3737

                     31                     32                     33
                      A                      A                      A
 Frequencies --   1301.9736              1315.8877              1326.1323
 Red. masses --      1.4245                 1.5480                 1.3750
 Frc consts  --      1.4228                 1.5793                 1.4247
 IR Inten    --      2.9738                 3.6600                 0.0986

                     34                     35                     36
                      A                      A                      A
 Frequencies --   1350.1078              1367.5107              1376.5798
 Red. masses --      1.3934                 1.5205                 1.6255
 Frc consts  --      1.4965                 1.6753                 1.8148
 IR Inten    --      2.5205                16.3880                 7.3787

                     37                     38                     39
                      A                      A                      A
 Frequencies --   1425.0499              1483.3512              1494.4560
 Red. masses --      1.2162                 1.0835                 1.0978
 Frc consts  --      1.4552                 1.4046                 1.4446
 IR Inten    --      4.9753                 3.6714                 3.6632

                     40                     41                     42
                      A                      A                      A
 Frequencies --   1525.2685              1819.0787              2856.6920
 Red. masses --      1.0998                10.4342                 1.0825
 Frc consts  --      1.5076                20.3429                 5.2049
 IR Inten    --      0.8692               138.2782               133.4134

                     43                     44                     45
                      A                      A                      A
 Frequencies --   3006.7280              3042.3809              3042.8240
 Red. masses --      1.0552                 1.0778                 1.0648
 Frc consts  --      5.6203                 5.8777                 5.8087
 IR Inten    --     78.1340                19.5419                10.0634

                     46                     47                     48
                      A                      A                      A
 Frequencies --   3048.5004              3058.7720              3082.7964
 Red. masses --      1.1092                 1.0634                 1.0914
 Frc consts  --      6.0734                 5.8617                 6.1110
 IR Inten    --     39.6687                31.6182                40.3574

                     49                     50                     51
                      A                      A                      A
 Frequencies --   3085.1202              3103.2437              3116.4707
 Red. masses --      1.0986                 1.1045                 1.0894
 Frc consts  --      6.1607                 6.2666                 6.2340
 IR Inten    --      0.5680                26.0380                30.8088

 - Thermochemistry -
 -------------------
 Temperature   298.150 Kelvin.  Pressure   1.00000 Atm.
 Atom     1 has atomic number  8 and mass  15.99491

 Molecular mass:   126.06808 amu.
 Principal axes and moments of inertia in atomic units:
                           1         2         3
     Eigenvalues --   615.976251297.624881442.93377
           X            0.99948  -0.00070   0.03236
           Y            0.00209   0.99907  -0.04302
           Z           -0.03230   0.04307   0.99855
 This molecule is an asymmetric top.
 Rotational symmetry number  1.
 Warning -- assumption of classical behavior for rotation
           may cause significant error
 Rotational temperatures (Kelvin)      0.14061     0.06675     0.06003
 Rotational constants (GHZ):           2.92989     1.39080     1.25074
 Zero-point vibrational energy     420944.5 (Joules/Mol)
                                  100.60814 (Kcal/Mol)
 Warning -- explicit consideration of   9 degrees of freedom as
           vibrations may cause significant error
 Vibrational temperatures:     82.40   158.69   255.36   275.73   420.85
          (Kelvin)            510.14   571.16   814.46   864.70  1060.69
                             1123.00  1172.40  1233.96  1251.99  1299.57
                             1323.08  1345.53  1411.36  1439.69  1471.33
                             1490.39  1526.35  1555.62  1617.58  1669.95
                             1688.01  1714.26  1741.33  1814.21  1839.00
                             1873.25  1893.27  1908.01  1942.50  1967.54
                             1980.59  2050.33  2134.21  2150.19  2194.52
                             2617.25  4110.14  4326.01  4377.30  4377.94
                             4386.11  4400.89  4435.45  4438.79  4464.87
                             4483.90

 Zero-point correction=                           0.160329 (Hartree/Particle)
 Thermal correction to Energy=                    0.168234
 Thermal correction to Enthalpy=                  0.169178
 Thermal correction to Gibbs Free Energy=         0.127249
 Sum of electronic and zero-point Energies=           -423.032072
 Sum of electronic and thermal Energies=              -423.024167
 Sum of electronic and thermal Enthalpies=            -423.023223
 Sum of electronic and thermal Free Energies=         -423.065152

                     E (Thermal)             CV                S
                      KCal/Mol        Cal/Mol-Kelvin    Cal/Mol-Kelvin
 Total                  105.569             29.717             88.248
 Electronic               0.000              0.000              0.000
 Translational            0.889              2.981             40.409
 Rotational               0.889              2.981             28.535
 Vibrational            103.791             23.755             19.304
 Vibration     1          0.596              1.975              4.549
 Vibration     2          0.606              1.941              3.264
 Vibration     3          0.628              1.870              2.355
 Vibration     4          0.634              1.851              2.212
 Vibration     5          0.688              1.688              1.459
 Vibration     6          0.730              1.566              1.146
 Vibration     7          0.763              1.477              0.974
 Vibration     8          0.922              1.105              0.512
 Vibration     9          0.959              1.030              0.448

 Optimization completed.
    -- Stationary point found.
 Normal termination of Gaussian 09 at Mon Jan 27 15:28:35 2020.
