 Gaussian 09, Revision D.01,
 Gaussian 09:  ES64L-G09RevD.01 24-Apr-2013

 -----------------------------
 # b3lyp 6-31G(2df,p) opt Freq
 -----------------------------

 -----
 titel
 -----
 Symbolic Z-matrix:
 Charge =  0 Multiplicity = 1

 SCF Done:  E(RB3LYP) =  -423.155898808     A.U. after   13 cycles
 Optimization completed.
    -- Stationary point found.
 Normal termination of Gaussian 09 at Tue Jan 28 00:02:30 2020.

 ----------------------------------------------------------------------
 #N Geom=AllCheck Guess=TCheck SCRF=Check GenChk RB3LYP/6-31G(2df,p) Fr
 eq
 ----------------------------------------------------------------------

 Structure from the checkpoint file:  "/scratch/puck/g09_02953101-ca03-4d61-8fbf-7e13ba62f07a/Gau-181388.chk"
 -----
 titel
 -----
 Charge =  0 Multiplicity = 1

                         Standard orientation:
 ---------------------------------------------------------------------
 Center     Atomic      Atomic             Coordinates (Angstroms)
 Number     Number       Type             X           Y           Z
 ---------------------------------------------------------------------
      1          6           0        2.023945   -1.361223   -0.139581
      2          6           0        0.687740   -0.726741   -0.506251
      3          6           0       -0.461368   -1.031342    0.521588
      4          8           0       -1.745241   -1.027856   -0.083889
      5          6           0       -1.953283    0.289329   -0.605347
      6          6           0       -0.887297    1.156200    0.053933
      7          6           0       -0.240867    0.360830    1.161734
      8          6           0        0.574062    0.736423   -0.055157
      9          8           0        1.600796    1.662453   -0.095093
     10          1           0        2.840753   -0.924534   -0.722272
     11          1           0        2.257926   -1.201609    0.918829
     12          1           0        2.007523   -2.439622   -0.327832
     13          1           0        0.426244   -0.949715   -1.548398
     14          1           0       -0.358512   -1.933878    1.123173
     15          1           0       -1.873849    0.278586   -1.701481
     16          1           0       -2.966067    0.616451   -0.341144
     17          1           0       -1.061692    2.214506    0.209089
     18          1           0       -0.179054    0.646737    2.202242
     19          1           0        1.604689    2.075446   -0.965864
 ---------------------------------------------------------------------

 SCF Done:  E(RB3LYP) =  -423.155898808     A.U. after    1 cycles

 The electronic state is 1-A.
 Alpha  occ. eigenvalues --  -19.15220 -19.13195 -10.24150 -10.23146 -10.22567
 Alpha  occ. eigenvalues --  -10.19319 -10.18624 -10.18419 -10.17295  -1.04279
 Alpha  occ. eigenvalues --   -1.02994  -0.88126  -0.76936  -0.71311  -0.63354
 Alpha  occ. eigenvalues --   -0.62278  -0.58198  -0.55284  -0.51584  -0.48045
 Alpha  occ. eigenvalues --   -0.46308  -0.44781  -0.43346  -0.41835  -0.39341
 Alpha  occ. eigenvalues --   -0.38045  -0.36665  -0.36000  -0.34097  -0.33072
 Alpha  occ. eigenvalues --   -0.30708  -0.26091  -0.25364  -0.23706
 Alpha virt. eigenvalues --    0.07342   0.09689   0.10544   0.12234   0.12474
 Alpha virt. eigenvalues --    0.13758   0.15300   0.15757   0.16464   0.16804
 Alpha virt. eigenvalues --    0.17362   0.18836   0.19969   0.21046   0.22165

 Mulliken charges:
               1
     1  C   -0.403692
     2  C   -0.092195
     3  C    0.084282
     4  O   -0.266185
     5  C   -0.105781
     6  C   -0.162724
     7  C   -0.146944
     8  C    0.386732
     9  O   -0.465104
    10  H    0.117763
    11  H    0.118999
    12  H    0.112508
    13  H    0.063749
    14  H    0.083111
    15  H    0.094315
    16  H    0.104698
    17  H    0.094607
    18  H    0.095871
    19  H    0.285992
 Sum of Mulliken charges =   0.00000

 Dipole moment (field-independent basis, Debye):
    X=              0.3590    Y=              1.2103    Z=             -0.9114  Tot=              1.5570
 Quadrupole moment (field-independent basis, Debye-Ang):
   XX=            -56.7429   YY=            -52.0047   ZZ=            -49.9922
   XY=             -4.1706   XZ=             -1.9155   YZ=             -3.5160

  Exact polarizability:  80.920  -4.415  73.853   0.361  -1.795  67.270
 Approx polarizability: 111.087  -0.549 107.310   0.631  -4.435 106.239

                      1                      2                      3
                      A                      A                      A
 Frequencies --    162.9081               213.0628               226.1386
 Red. masses --      2.8622                 1.1345                 2.2891
 Frc consts  --      0.0448                 0.0303                 0.0690
 IR Inten    --      3.4482                 0.2670                 3.1349

                      4                      5                      6
                      A                      A                      A
 Frequencies --    246.8080               286.9469               308.9345
 Red. masses --      1.8145                 3.1475                 1.4231
 Frc consts  --      0.0651                 0.1527                 0.0800
 IR Inten    --     27.3325                 3.5248                56.6156

                      7                      8                      9
                      A                      A                      A
 Frequencies --    361.4239               448.6778               520.4042
 Red. masses --      4.9850                 3.5067                 3.5918
 Frc consts  --      0.3837                 0.4159                 0.5731
 IR Inten    --     21.2657                 2.7829                 0.5476

                     10                     11                     12
                      A                      A                      A
 Frequencies --    596.8606               706.5509               744.7150
 Red. masses --      4.3235                 2.7643                 3.0243
 Frc consts  --      0.9075                 0.8131                 0.9882
 IR Inten    --      1.1298                 0.8485                 3.3845

                     13                     14                     15
                      A                      A                      A
 Frequencies --    761.6999               836.6904               873.6330
 Red. masses --      4.6681                 2.2918                 2.0661
 Frc consts  --      1.5957                 0.9453                 0.9291
 IR Inten    --     13.6656                12.1073                 9.6250

                     16                     17                     18
                      A                      A                      A
 Frequencies --    893.1636               912.5632               940.3986
 Red. masses --      2.1075                 1.7193                 3.0714
 Frc consts  --      0.9906                 0.8436                 1.6003
 IR Inten    --      3.4356                 7.3921                29.1400

                     19                     20                     21
                      A                      A                      A
 Frequencies --    946.2756               980.7741              1016.1653
 Red. masses --      2.4662                 1.9516                 1.6414
 Frc consts  --      1.3011                 1.1060                 0.9986
 IR Inten    --      1.4765                16.6312                 3.6584

                     22                     23                     24
                      A                      A                      A
 Frequencies --   1056.1677              1064.0181              1085.8869
 Red. masses --      2.3382                 1.6322                 2.4298
 Frc consts  --      1.5367                 1.0887                 1.6881
 IR Inten    --     52.0521                10.9005                10.5855

                     25                     26                     27
                      A                      A                      A
 Frequencies --   1097.2386              1130.7321              1165.5713
 Red. masses --      2.4417                 2.3006                 1.7427
 Frc consts  --      1.7320                 1.7330                 1.3949
 IR Inten    --     26.3448                17.2311                12.9866

                     28                     29                     30
                      A                      A                      A
 Frequencies --   1192.9359              1219.8413              1237.4415
 Red. masses --      1.8551                 1.1181                 1.9967
 Frc consts  --      1.5555                 0.9802                 1.8014
 IR Inten    --      7.7055                 0.9384                20.3775

                     31                     32                     33
                      A                      A                      A
 Frequencies --   1251.0367              1292.0763              1297.1092
 Red. masses --      1.5237                 2.1635                 1.6132
 Frc consts  --      1.4051                 2.1281                 1.5992
 IR Inten    --     17.5128                17.5573               123.2857

                     34                     35                     36
                      A                      A                      A
 Frequencies --   1312.8328              1374.6512              1378.8409
 Red. masses --      1.2968                 1.6069                 1.5480
 Frc consts  --      1.3169                 1.7891                 1.7340
 IR Inten    --      2.0573                 1.3840                11.7986

                     37                     38                     39
                      A                      A                      A
 Frequencies --   1410.0415              1448.6996              1493.1850
 Red. masses --      1.2452                 2.8877                 1.0541
 Frc consts  --      1.4586                 3.5707                 1.3847
 IR Inten    --      2.0835                19.6556                 2.8714

                     40                     41                     42
                      A                      A                      A
 Frequencies --   1497.8234              1525.6182              3000.9162
 Red. masses --      1.0704                 1.0886                 1.0640
 Frc consts  --      1.4149                 1.4928                 5.6453
 IR Inten    --      8.4084                 0.5163                57.0455

                     43                     44                     45
                      A                      A                      A
 Frequencies --   3024.6975              3031.6638              3047.3187
 Red. masses --      1.0830                 1.0354                 1.1007
 Frc consts  --      5.8378                 5.6067                 6.0222
 IR Inten    --     45.9652                26.1107                46.8614

                     46                     47                     48
                      A                      A                      A
 Frequencies --   3099.9408              3105.2023              3125.1964
 Red. masses --      1.1008                 1.1016                 1.0905
 Frc consts  --      6.2327                 6.2585                 6.2751
 IR Inten    --     31.8731                19.2890                28.6577

                     49                     50                     51
                      A                      A                      A
 Frequencies --   3190.0723              3215.1697              3793.1872
 Red. masses --      1.0898                 1.0966                 1.0660
 Frc consts  --      6.5344                 6.6786                 9.0370
 IR Inten    --      6.5789                 6.6757                23.9821

 - Thermochemistry -
 -------------------
 Temperature   298.150 Kelvin.  Pressure   1.00000 Atm.
 Atom     1 has atomic number  6 and mass  12.00000

 Molecular mass:   126.06808 amu.
 Principal axes and moments of inertia in atomic units:
                           1         2         3
     Eigenvalues --   681.540271013.093021397.86138
           X            0.99238  -0.12323   0.00215
           Y            0.12324   0.99232  -0.01045
           Z           -0.00084   0.01064   0.99994
 This molecule is an asymmetric top.
 Rotational symmetry number  1.
 Warning -- assumption of classical behavior for rotation
           may cause significant error
 Rotational temperatures (Kelvin)      0.12709     0.08549     0.06196
 Rotational constants (GHZ):           2.64803     1.78142     1.29107
 Zero-point vibrational energy     419589.6 (Joules/Mol)
                                  100.28433 (Kcal/Mol)
 Warning -- explicit consideration of  10 degrees of freedom as
           vibrations may cause significant error
 Vibrational temperatures:    234.39   306.55   325.36   355.10   412.85
          (Kelvin)            444.49   520.01   645.55   748.74   858.75
                             1016.57  1071.48  1095.91  1203.81  1256.96
                             1285.06  1312.97  1353.02  1361.48  1411.11
                             1462.03  1519.59  1530.88  1562.35  1578.68
                             1626.87  1677.00  1716.37  1755.08  1780.40
                             1799.96  1859.01  1866.25  1888.87  1977.81
                             1983.84  2028.73  2084.35  2148.36  2155.03
                             2195.02  4317.64  4351.86  4361.88  4384.41
                             4460.12  4467.69  4496.46  4589.80  4625.91
                             5457.54

 Zero-point correction=                           0.159813 (Hartree/Particle)
 Thermal correction to Energy=                    0.167637
 Thermal correction to Enthalpy=                  0.168581
 Thermal correction to Gibbs Free Energy=         0.128029
 Sum of electronic and zero-point Energies=           -422.996086
 Sum of electronic and thermal Energies=              -422.988262
 Sum of electronic and thermal Enthalpies=            -422.987318
 Sum of electronic and thermal Free Energies=         -423.027870

                     E (Thermal)             CV                S
                      KCal/Mol        Cal/Mol-Kelvin    Cal/Mol-Kelvin
 Total                  105.194             31.333             85.349
 Electronic               0.000              0.000              0.000
 Translational            0.889              2.981             40.409
 Rotational               0.889              2.981             28.358
 Vibrational            103.416             25.371             16.582
 Vibration     1          0.623              1.888              2.516
 Vibration     2          0.644              1.821              2.017
 Vibration     3          0.650              1.801              1.909
 Vibration     4          0.661              1.768              1.753
 Vibration     5          0.684              1.698              1.492
 Vibration     6          0.698              1.657              1.368
 Vibration     7          0.736              1.552              1.116
 Vibration     8          0.808              1.364              0.800
 Vibration     9          0.875              1.205              0.609
 Vibration    10          0.955              1.038              0.455

 Optimization completed.
    -- Stationary point found.
 Normal termination of Gaussian 09 at Tue Jan 28 00:50:38 2020.
