 Gaussian 09, Revision D.01,
 Gaussian 09:  ES64L-G09RevD.01 24-Apr-2013

 -----------------------------
 # b3lyp 6-31G(2df,p) opt Freq
 -----------------------------

 -----
 titel
 -----
 Symbolic Z-matrix:
 Charge =  0 Multiplicity = 1

 SCF Done:  E(RB3LYP) =  -423.161879118     A.U. after   14 cycles
 SCF Done:  E(RB3LYP) =  -423.161879124     A.U. after    6 cycles
 SCF Done:  E(RB3LYP) =  -423.161879113     A.U. after    7 cycles
 SCF Done:  E(RB3LYP) =  -423.161879184     A.U. after    7 cycles
 SCF Done:  E(RB3LYP) =  -423.161879216     A.U. after    6 cycles
 SCF Done:  E(RB3LYP) =  -423.161879327     A.U. after    7 cycles
 SCF Done:  E(RB3LYP) =  -423.161879448     A.U. after    7 cycles
 SCF Done:  E(RB3LYP) =  -423.161880031     A.U. after    9 cycles
 SCF Done:  E(RB3LYP) =  -423.161880292     A.U. after    9 cycles
 Optimization completed.
    -- Stationary point found.
 Normal termination of Gaussian 09 at Mon Jan 27 14:32:20 2020.

 ----------------------------------------------------------------------
 #N Geom=AllCheck Guess=TCheck SCRF=Check GenChk RB3LYP/6-31G(2df,p) Fr
 eq
 ----------------------------------------------------------------------

 Structure from the checkpoint file:  "/scratch/puck/g09_9c6c7513-2223-4c67-8420-4e7b249e759f/Gau-40329.chk"
 -----
 titel
 -----
 Charge =  0 Multiplicity = 1

                         Standard orientation:
 ---------------------------------------------------------------------
 Center     Atomic      Atomic             Coordinates (Angstroms)
 Number     Number       Type             X           Y           Z
 ---------------------------------------------------------------------
      1          6           0       -4.113099    0.001562   -0.209992
      2          6           0       -2.677896   -0.004767    0.030646
      3          6           0       -1.490826   -0.024666    0.226798
      4          6           0       -0.054309   -0.003715    0.465388
      5          6           0        0.628248    1.260842   -0.092751
      6          6           0        2.142736    1.119802    0.076131
      7          8           0        2.596882   -0.104802   -0.484272
      8          6           0        1.923552   -1.194747    0.084499
      9          8           0        0.537227   -1.162296   -0.135671
     10          1           0       -4.400180   -0.818398   -0.877256
     11          1           0       -4.675608   -0.116749    0.722510
     12          1           0       -4.435065    0.938076   -0.678324
     13          1           0        0.132205   -0.046152    1.554469
     14          1           0        0.377894    1.351412   -1.153654
     15          1           0        0.259096    2.150209    0.427902
     16          1           0        2.681685    1.919470   -0.438117
     17          1           0        2.409505    1.162187    1.146644
     18          1           0        2.299619   -2.096410   -0.402263
     19          1           0        2.127545   -1.232732    1.173323
 ---------------------------------------------------------------------

 SCF Done:  E(RB3LYP) =  -423.161880292     A.U. after    1 cycles

 The electronic state is 1-A.
 Alpha  occ. eigenvalues --  -19.14417 -19.14394 -10.27109 -10.25643 -10.23356
 Alpha  occ. eigenvalues --  -10.20554 -10.18826 -10.17927 -10.16868  -1.07315
 Alpha  occ. eigenvalues --   -1.00617  -0.80695  -0.77257  -0.71798  -0.67540
 Alpha  occ. eigenvalues --   -0.66314  -0.58592  -0.52963  -0.49898  -0.47672
 Alpha  occ. eigenvalues --   -0.47063  -0.45324  -0.44710  -0.42806  -0.42764
 Alpha  occ. eigenvalues --   -0.41734  -0.40177  -0.36199  -0.32730  -0.32510
 Alpha  occ. eigenvalues --   -0.27302  -0.26818  -0.25947  -0.24595
 Alpha virt. eigenvalues --    0.04085   0.05609   0.09805   0.10959   0.12118
 Alpha virt. eigenvalues --    0.13133   0.13999   0.14881   0.15895   0.16858
 Alpha virt. eigenvalues --    0.17958   0.18153   0.18504   0.21485   0.21668

 Mulliken charges:
               1
     1  C   -0.502633
     2  C    0.171118
     3  C   -0.004702
     4  C   -0.074816
     5  C   -0.204686
     6  C   -0.096008
     7  O   -0.232482
     8  C    0.024876
     9  O   -0.248027
    10  H    0.155205
    11  H    0.149548
    12  H    0.149341
    13  H    0.088746
    14  H    0.122673
    15  H    0.106288
    16  H    0.114393
    17  H    0.088596
    18  H    0.120033
    19  H    0.072538
 Sum of Mulliken charges =   0.00000

 Dipole moment (field-independent basis, Debye):
    X=             -1.0451    Y=              1.2867    Z=              1.1031  Tot=              1.9911
 Quadrupole moment (field-independent basis, Debye-Ang):
   XX=            -47.2031   YY=            -51.5134   ZZ=            -53.2315
   XY=             -0.0627   XZ=              3.2168   YZ=             -0.4811

  Exact polarizability: 114.246  -0.781  69.059   4.450  -0.036  60.588
 Approx polarizability: 150.511  -1.701  97.048   7.386   1.658  93.695

                      1                      2                      3
                      A                      A                      A
 Frequencies --     28.9886                82.1331                87.5745
 Red. masses --      1.0286                 4.2557                 3.7801
 Frc consts  --      0.0005                 0.0169                 0.0171
 IR Inten    --      0.0902                 1.1804                 1.7404

                      4                      5                      6
                      A                      A                      A
 Frequencies --    204.4069               259.8296               296.3858
 Red. masses --      3.9418                 2.0781                 3.6652
 Frc consts  --      0.0970                 0.0827                 0.1897
 IR Inten    --      4.6027                 1.7486                 3.4803

                      7                      8                      9
                      A                      A                      A
 Frequencies --    331.0990               372.5352               417.6736
 Red. masses --      3.9176                 3.8840                 2.5979
 Frc consts  --      0.2530                 0.3176                 0.2670
 IR Inten    --      0.2475                 3.4970                 5.0278

                     10                     11                     12
                      A                      A                      A
 Frequencies --    470.9158               524.7698               534.9732
 Red. masses --      3.8288                 3.5950                 4.5750
 Frc consts  --      0.5003                 0.5833                 0.7714
 IR Inten    --      0.4282                 6.3055                 1.7861

                     13                     14                     15
                      A                      A                      A
 Frequencies --    650.0152               820.2010               849.8632
 Red. masses --      3.7770                 2.6670                 3.0709
 Frc consts  --      0.9402                 1.0571                 1.3068
 IR Inten    --      6.8935                 2.8963                15.6219

                     16                     17                     18
                      A                      A                      A
 Frequencies --    903.0107               931.4410               997.7913
 Red. masses --      2.7698                 2.3260                 3.1726
 Frc consts  --      1.3307                 1.1890                 1.8610
 IR Inten    --      1.4614                 9.4575                54.8685

                     19                     20                     21
                      A                      A                      A
 Frequencies --   1044.8824              1051.2278              1054.7287
 Red. masses --      2.6192                 1.9157                 1.4046
 Frc consts  --      1.6848                 1.2473                 0.9207
 IR Inten    --      5.5650                42.1689                 1.4959

                     22                     23                     24
                      A                      A                      A
 Frequencies --   1056.7575              1103.4631              1136.1647
 Red. masses --      3.7347                 2.3667                 2.9444
 Frc consts  --      2.4573                 1.6979                 2.2394
 IR Inten    --    135.5367                23.9728                55.6197

                     25                     26                     27
                      A                      A                      A
 Frequencies --   1184.4016              1197.5406              1231.7094
 Red. masses --      2.9201                 2.0139                 1.3410
 Frc consts  --      2.4135                 1.7016                 1.1987
 IR Inten    --     52.3893                90.3445                12.6740

                     28                     29                     30
                      A                      A                      A
 Frequencies --   1267.3642              1309.7978              1333.3017
 Red. masses --      1.2693                 1.2846                 1.1764
 Frc consts  --      1.2012                 1.2984                 1.2321
 IR Inten    --     14.1603                 7.9539                 5.6787

                     31                     32                     33
                      A                      A                      A
 Frequencies --   1363.9618              1390.0360              1399.4956
 Red. masses --      1.1815                 1.5387                 1.3722
 Frc consts  --      1.2951                 1.7517                 1.5835
 IR Inten    --     10.1697                24.3853                44.6751

                     34                     35                     36
                      A                      A                      A
 Frequencies --   1413.9062              1444.6025              1467.5545
 Red. masses --      1.2415                 1.2226                 1.0981
 Frc consts  --      1.4623                 1.5033                 1.3934
 IR Inten    --      4.2554                16.1715                 2.2254

                     37                     38                     39
                      A                      A                      A
 Frequencies --   1476.5745              1478.2638              1496.1774
 Red. masses --      1.0394                 1.0400                 1.0850
 Frc consts  --      1.3351                 1.3390                 1.4311
 IR Inten    --      5.7496                 5.6304                 0.9546

                     40                     41                     42
                      A                      A                      A
 Frequencies --   1507.7919              2378.7081              2904.7568
 Red. masses --      1.1126                11.8819                 1.0706
 Frc consts  --      1.4903                39.6113                 5.3223
 IR Inten    --      5.0703                17.2236                68.5020

                     43                     44                     45
                      A                      A                      A
 Frequencies --   2929.0252              2959.3100              3029.1325
 Red. masses --      1.0795                 1.0713                 1.0347
 Frc consts  --      5.4565                 5.5278                 5.5939
 IR Inten    --     37.3637                75.2321                29.2206

                     46                     47                     48
                      A                      A                      A
 Frequencies --   3054.9810              3090.3752              3092.2136
 Red. masses --      1.0595                 1.1004                 1.1000
 Frc consts  --      5.8258                 6.1921                 6.1968
 IR Inten    --     13.0890                 9.7715                 8.0823

                     49                     50                     51
                      A                      A                      A
 Frequencies --   3094.5393              3109.3240              3116.8043
 Red. masses --      1.0915                 1.1050                 1.0929
 Frc consts  --      6.1583                 6.2942                 6.2551
 IR Inten    --     34.8899                20.4602                33.1362

 - Thermochemistry -
 -------------------
 Temperature   298.150 Kelvin.  Pressure   1.00000 Atm.
 Atom     1 has atomic number  6 and mass  12.00000

 Molecular mass:   126.06808 amu.
 Principal axes and moments of inertia in atomic units:
                           1         2         3
     Eigenvalues --   388.689492263.449332532.41764
           X            0.99994   0.00290   0.01070
           Y           -0.00279   0.99994  -0.01016
           Z           -0.01072   0.01013   0.99989
 This molecule is an asymmetric top.
 Rotational symmetry number  1.
 Rotational temperatures (Kelvin)      0.22284     0.03827     0.03420
 Rotational constants (GHZ):           4.64314     0.79734     0.71266
 Zero-point vibrational energy     418289.1 (Joules/Mol)
                                   99.97350 (Kcal/Mol)
 Warning -- explicit consideration of  12 degrees of freedom as
           vibrations may cause significant error
 Vibrational temperatures:     41.71   118.17   126.00   294.10   373.84
          (Kelvin)            426.43   476.38   535.99   600.94   677.54
                              755.03   769.71   935.23  1180.08  1222.76
                             1299.23  1340.13  1435.60  1503.35  1512.48
                             1517.52  1520.44  1587.64  1634.69  1704.09
                             1722.99  1772.15  1823.45  1884.50  1918.32
                             1962.43  1999.95  2013.56  2034.29  2078.46
                             2111.48  2124.46  2126.89  2152.66  2169.37
                             3422.43  4179.29  4214.21  4257.78  4358.24
                             4395.43  4446.36  4449.00  4452.35  4473.62
                             4484.38

 Zero-point correction=                           0.159318 (Hartree/Particle)
 Thermal correction to Energy=                    0.168398
 Thermal correction to Enthalpy=                  0.169342
 Thermal correction to Gibbs Free Energy=         0.124091
 Sum of electronic and zero-point Energies=           -423.002562
 Sum of electronic and thermal Energies=              -422.993482
 Sum of electronic and thermal Enthalpies=            -422.992538
 Sum of electronic and thermal Free Energies=         -423.037789

                     E (Thermal)             CV                S
                      KCal/Mol        Cal/Mol-Kelvin    Cal/Mol-Kelvin
 Total                  105.671             32.630             95.239
 Electronic               0.000              0.000              0.000
 Translational            0.889              2.981             40.409
 Rotational               0.889              2.981             29.190
 Vibrational            103.894             26.668             25.641
 Vibration     1          0.593              1.984              5.897
 Vibration     2          0.600              1.961              3.839
 Vibration     3          0.601              1.958              3.714
 Vibration     4          0.640              1.834              2.093
 Vibration     5          0.668              1.746              1.663
 Vibration     6          0.690              1.680              1.437
 Vibration     7          0.713              1.613              1.255
 Vibration     8          0.744              1.529              1.069
 Vibration     9          0.781              1.432              0.900
 Vibration    10          0.828              1.315              0.735
 Vibration    11          0.880              1.195              0.599
 Vibration    12          0.890              1.173              0.576

 Normal termination of Gaussian 09 at Mon Jan 27 15:07:36 2020.
