 Gaussian 09, Revision D.01,
 Gaussian 09:  ES64L-G09RevD.01 24-Apr-2013

 -----------------------------
 # b3lyp 6-31G(2df,p) opt Freq
 -----------------------------

 -----
 titel
 -----
 Symbolic Z-matrix:
 Charge =  0 Multiplicity = 1

 SCF Done:  E(RB3LYP) =  -423.115187990     A.U. after   13 cycles
 Optimization completed.
    -- Stationary point found.
 Normal termination of Gaussian 09 at Mon Jan 27 22:03:45 2020.

 ----------------------------------------------------------------------
 #N Geom=AllCheck Guess=TCheck SCRF=Check GenChk RB3LYP/6-31G(2df,p) Fr
 eq
 ----------------------------------------------------------------------

 Structure from the checkpoint file:  "/scratch/puck/g09_0e944391-a67a-42b6-831f-9f84ecbcde22/Gau-72796.chk"
 -----
 titel
 -----
 Charge =  0 Multiplicity = 1

                         Standard orientation:
 ---------------------------------------------------------------------
 Center     Atomic      Atomic             Coordinates (Angstroms)
 Number     Number       Type             X           Y           Z
 ---------------------------------------------------------------------
      1          6           0        1.829589    1.542715   -0.468247
      2          6           0        1.097379    0.804088    0.629695
      3          6           0        1.178979   -0.723733    0.735757
      4          8           0        1.845459   -1.451438   -0.247134
      5          6           0       -0.094370   -0.054948    0.326705
      6          8           0       -0.515047   -0.300346   -1.037996
      7          6           0       -1.859297   -0.507142   -0.568410
      8          6           0       -2.404597    0.740373    0.048373
      9          6           0       -1.498270   -0.171176    0.859008
     10          1           0        2.846120    1.795060   -0.149904
     11          1           0        1.905054    0.928733   -1.367333
     12          1           0        1.315308    2.472162   -0.732649
     13          1           0        1.048679    1.317137    1.588388
     14          1           0        1.257655   -1.164949    1.727338
     15          1           0        1.209260   -1.578061   -0.965672
     16          1           0       -2.430142   -1.309256   -1.019119
     17          1           0       -2.050427    1.707388   -0.295995
     18          1           0       -3.453223    0.700817    0.327441
     19          1           0       -1.788055   -0.635819    1.791261
 ---------------------------------------------------------------------

 SCF Done:  E(RB3LYP) =  -423.115187990     A.U. after    1 cycles

 The electronic state is 1-A.
 Alpha  occ. eigenvalues --  -19.15509 -19.13424 -10.24929 -10.24302 -10.22850
 Alpha  occ. eigenvalues --  -10.20527 -10.19741 -10.18610 -10.17259  -1.06807
 Alpha  occ. eigenvalues --   -1.01843  -0.84453  -0.83892  -0.70885  -0.64484
 Alpha  occ. eigenvalues --   -0.61183  -0.57872  -0.53984  -0.53117  -0.50073
 Alpha  occ. eigenvalues --   -0.46686  -0.46027  -0.43082  -0.40654  -0.39958
 Alpha  occ. eigenvalues --   -0.39095  -0.36555  -0.36129  -0.34702  -0.32564
 Alpha  occ. eigenvalues --   -0.32283  -0.26617  -0.24288  -0.23239
 Alpha virt. eigenvalues --    0.05934   0.10075   0.10511   0.10902   0.12197
 Alpha virt. eigenvalues --    0.13573   0.14739   0.14849   0.15685   0.17296
 Alpha virt. eigenvalues --    0.18133   0.18644   0.19259   0.20399   0.21772

 Mulliken charges:
               1
     1  C   -0.399357
     2  C   -0.142462
     3  C    0.020989
     4  O   -0.429788
     5  C    0.402194
     6  O   -0.327804
     7  C    0.100021
     8  C   -0.298523
     9  C   -0.228720
    10  H    0.118955
    11  H    0.131841
    12  H    0.114712
    13  H    0.087532
    14  H    0.094345
    15  H    0.295453
    16  H    0.111326
    17  H    0.123168
    18  H    0.118182
    19  H    0.107938
 Sum of Mulliken charges =   0.00000

 Dipole moment (field-independent basis, Debye):
    X=             -2.3677    Y=              0.4287    Z=              1.0339  Tot=              2.6189
 Quadrupole moment (field-independent basis, Debye-Ang):
   XX=            -53.0663   YY=            -53.0857   ZZ=            -51.8710
   XY=              4.0287   XZ=             -0.0088   YZ=              0.6281

  Exact polarizability:  88.459   0.585  71.918   1.604   0.232  66.818
 Approx polarizability: 115.696  -2.620 105.179   3.604   3.557 106.413

                      1                      2                      3
                      A                      A                      A
 Frequencies --    122.1362               128.4761               158.5982
 Red. masses --      2.8192                 1.0936                 3.7132
 Frc consts  --      0.0248                 0.0106                 0.0550
 IR Inten    --      0.1051                 0.4206                 1.4920

                      4                      5                      6
                      A                      A                      A
 Frequencies --    169.6724               239.0980               310.1110
 Red. masses --      4.0255                 4.0830                 3.4422
 Frc consts  --      0.0683                 0.1375                 0.1950
 IR Inten    --      4.2018                 3.0745                 2.1391

                      7                      8                      9
                      A                      A                      A
 Frequencies --    400.3507               426.9340               481.3543
 Red. masses --      3.0067                 1.2395                 2.1649
 Frc consts  --      0.2839                 0.1331                 0.2955
 IR Inten    --     11.8429                38.4438                16.3399

                     10                     11                     12
                      A                      A                      A
 Frequencies --    560.8900               606.4458               637.4929
 Red. masses --      3.2094                 4.0242                 3.4816
 Frc consts  --      0.5949                 0.8720                 0.8336
 IR Inten    --      2.0670                11.9582                 2.2593

                     13                     14                     15
                      A                      A                      A
 Frequencies --    753.6050               784.1504               821.5292
 Red. masses --      1.6822                 2.4874                 1.9894
 Frc consts  --      0.5629                 0.9011                 0.7911
 IR Inten    --      5.7988                11.2029                 6.5167

                     16                     17                     18
                      A                      A                      A
 Frequencies --    884.2548               888.4103               947.5667
 Red. masses --      3.6175                 2.2591                 2.3858
 Frc consts  --      1.6665                 1.0506                 1.2621
 IR Inten    --     21.6715                36.2772                28.6467

                     19                     20                     21
                      A                      A                      A
 Frequencies --    957.4930               971.7822               993.5779
 Red. masses --      2.2087                 1.5445                 1.7419
 Frc consts  --      1.1931                 0.8594                 1.0132
 IR Inten    --     17.6263                 2.5828                26.2646

                     22                     23                     24
                      A                      A                      A
 Frequencies --   1044.1151              1045.1354              1058.9816
 Red. masses --      1.4239                 1.4976                 1.6308
 Frc consts  --      0.9146                 0.9638                 1.0775
 IR Inten    --     22.7660                28.2945                 6.6173

                     25                     26                     27
                      A                      A                      A
 Frequencies --   1080.1507              1089.3735              1101.6361
 Red. masses --      1.5717                 1.9762                 2.4285
 Frc consts  --      1.0804                 1.3818                 1.7365
 IR Inten    --     19.5370                34.8982                16.3976

                     28                     29                     30
                      A                      A                      A
 Frequencies --   1143.3596              1156.6185              1174.4799
 Red. masses --      1.7179                 2.4786                 1.9968
 Frc consts  --      1.3232                 1.9536                 1.6229
 IR Inten    --      3.2698                48.2457                 1.5492

                     31                     32                     33
                      A                      A                      A
 Frequencies --   1195.7073              1264.6612              1297.6985
 Red. masses --      2.0643                 1.7822                 1.5355
 Frc consts  --      1.7389                 1.6794                 1.5235
 IR Inten    --     16.4999                 4.0591                 2.6464

                     34                     35                     36
                      A                      A                      A
 Frequencies --   1335.9778              1345.9411              1397.2663
 Red. masses --      1.5418                 1.8848                 1.2794
 Frc consts  --      1.6213                 2.0117                 1.4716
 IR Inten    --     13.4065                13.0001                72.6507

                     37                     38                     39
                      A                      A                      A
 Frequencies --   1416.1265              1466.6340              1480.9535
 Red. masses --      1.2624                 1.4607                 1.6425
 Frc consts  --      1.4915                 1.8512                 2.1225
 IR Inten    --      2.2175                17.9999                 3.9245

                     40                     41                     42
                      A                      A                      A
 Frequencies --   1489.7510              1506.5401              3041.2898
 Red. masses --      1.0861                 1.3630                 1.0375
 Frc consts  --      1.4202                 1.8227                 5.6541
 IR Inten    --      4.4022                20.1892                34.4270

                     43                     44                     45
                      A                      A                      A
 Frequencies --   3099.2674              3118.2466              3120.2458
 Red. masses --      1.1018                 1.0872                 1.0533
 Frc consts  --      6.2356                 6.2282                 6.0420
 IR Inten    --     22.7010                 6.9660                11.4289

                     46                     47                     48
                      A                      A                      A
 Frequencies --   3127.1787              3140.7691              3192.0177
 Red. masses --      1.0903                 1.0962                 1.0919
 Frc consts  --      6.2822                 6.3710                 6.5550
 IR Inten    --     20.5355                23.1931                17.5429

                     49                     50                     51
                      A                      A                      A
 Frequencies --   3206.7826              3215.8533              3727.6943
 Red. masses --      1.1063                 1.1078                 1.0656
 Frc consts  --      6.7029                 6.7502                 8.7241
 IR Inten    --      1.3968                15.8216                46.9944

 - Thermochemistry -
 -------------------
 Temperature   298.150 Kelvin.  Pressure   1.00000 Atm.
 Atom     1 has atomic number  6 and mass  12.00000

 Molecular mass:   126.06808 amu.
 Principal axes and moments of inertia in atomic units:
                           1         2         3
     Eigenvalues --   601.503641324.085551500.99192
           X            0.99944   0.03148  -0.01110
           Y           -0.03188   0.99880  -0.03724
           Z            0.00992   0.03758   0.99924
 This molecule is an asymmetric top.
 Rotational symmetry number  1.
 Warning -- assumption of classical behavior for rotation
           may cause significant error
 Rotational temperatures (Kelvin)      0.14400     0.06541     0.05770
 Rotational constants (GHZ):           3.00038     1.36301     1.20237
 Zero-point vibrational energy     414651.9 (Joules/Mol)
                                   99.10418 (Kcal/Mol)
 Warning -- explicit consideration of  11 degrees of freedom as
           vibrations may cause significant error
 Vibrational temperatures:    175.73   184.85   228.19   244.12   344.01
          (Kelvin)            446.18   576.01   614.26   692.56   806.99
                              872.54   917.21  1084.27  1128.22  1182.00
                             1272.24  1278.22  1363.34  1377.62  1398.18
                             1429.54  1502.25  1503.71  1523.64  1554.09
                             1567.36  1585.01  1645.04  1664.11  1689.81
                             1720.35  1819.56  1867.10  1922.17  1936.51
                             2010.35  2037.49  2110.16  2130.76  2143.42
                             2167.57  4375.73  4459.15  4486.46  4489.33
                             4499.31  4518.86  4592.60  4613.84  4626.89
                             5363.31

 Zero-point correction=                           0.157933 (Hartree/Particle)
 Thermal correction to Energy=                    0.166452
 Thermal correction to Enthalpy=                  0.167396
 Thermal correction to Gibbs Free Energy=         0.124984
 Sum of electronic and zero-point Energies=           -422.957255
 Sum of electronic and thermal Energies=              -422.948736
 Sum of electronic and thermal Enthalpies=            -422.947792
 Sum of electronic and thermal Free Energies=         -422.990204

                     E (Thermal)             CV                S
                      KCal/Mol        Cal/Mol-Kelvin    Cal/Mol-Kelvin
 Total                  104.450             32.855             89.265
 Electronic               0.000              0.000              0.000
 Translational            0.889              2.981             40.409
 Rotational               0.889              2.981             28.571
 Vibrational            102.673             26.893             20.285
 Vibration     1          0.610              1.931              3.066
 Vibration     2          0.611              1.925              2.969
 Vibration     3          0.621              1.893              2.566
 Vibration     4          0.625              1.880              2.439
 Vibration     5          0.657              1.781              1.810
 Vibration     6          0.699              1.654              1.362
 Vibration     7          0.766              1.469              0.961
 Vibration     8          0.789              1.412              0.869
 Vibration     9          0.838              1.291              0.706
 Vibration    10          0.917              1.116              0.522
 Vibration    11          0.965              1.018              0.439

 Normal termination of Gaussian 09 at Mon Jan 27 22:48:24 2020.
