 Gaussian 09, Revision D.01,
 Gaussian 09:  ES64L-G09RevD.01 24-Apr-2013

 -----------------------------
 # b3lyp 6-31G(2df,p) opt Freq
 -----------------------------

 -----
 titel
 -----
 Symbolic Z-matrix:
 Charge =  0 Multiplicity = 1

 SCF Done:  E(RB3LYP) =  -423.128627678     A.U. after   14 cycles
 Optimization completed.
    -- Stationary point found.
 Normal termination of Gaussian 09 at Tue Jan 28 08:43:53 2020.

 ----------------------------------------------------------------------
 #N Geom=AllCheck Guess=TCheck SCRF=Check GenChk RB3LYP/6-31G(2df,p) Fr
 eq
 ----------------------------------------------------------------------

 Structure from the checkpoint file:  "/scratch/puck/g09_b945e257-a239-45ee-a9dd-a556c32be2f4/Gau-187533.chk"
 -----
 titel
 -----
 Charge =  0 Multiplicity = 1

                         Standard orientation:
 ---------------------------------------------------------------------
 Center     Atomic      Atomic             Coordinates (Angstroms)
 Number     Number       Type             X           Y           Z
 ---------------------------------------------------------------------
      1          6           0       -2.390945   -1.207221    0.394472
      2          6           0       -1.309023   -0.795146   -0.612830
      3          6           0       -0.473798    0.413244   -0.181007
      4          6           0       -1.269091    1.711884   -0.089331
      5          6           0        0.946759    0.568944   -0.824620
      6          8           0        1.392779    1.310552    0.384533
      7          6           0        0.581101    0.204521    0.960434
      8          6           0        1.412532   -0.671268   -0.015497
      9          8           0        2.129490   -1.614902   -0.061261
     10          1           0       -3.135727   -0.419904    0.541846
     11          1           0       -2.919246   -2.098892    0.045124
     12          1           0       -1.955749   -1.443439    1.371556
     13          1           0       -0.650483   -1.653677   -0.793067
     14          1           0       -1.775759   -0.564277   -1.578888
     15          1           0       -1.747939    1.931637   -1.049753
     16          1           0       -2.059120    1.637245    0.663688
     17          1           0       -0.620319    2.547260    0.176600
     18          1           0        1.240920    0.965512   -1.795117
     19          1           0        0.460063    0.183584    2.042100
 ---------------------------------------------------------------------

 SCF Done:  E(RB3LYP) =  -423.128627678     A.U. after    1 cycles

 The electronic state is 1-A.
 Alpha  occ. eigenvalues --  -19.16504 -19.15012 -10.28531 -10.25687 -10.25646
 Alpha  occ. eigenvalues --  -10.22151 -10.19653 -10.18689 -10.18437  -1.08638
 Alpha  occ. eigenvalues --   -1.05253  -0.82921  -0.75250  -0.72810  -0.67643
 Alpha  occ. eigenvalues --   -0.63947  -0.58559  -0.53874  -0.49207  -0.47232
 Alpha  occ. eigenvalues --   -0.46271  -0.44300  -0.44095  -0.42136  -0.40158
 Alpha  occ. eigenvalues --   -0.39700  -0.39033  -0.38075  -0.36536  -0.34673
 Alpha  occ. eigenvalues --   -0.32753  -0.31993  -0.26801  -0.25515
 Alpha virt. eigenvalues --   -0.00872   0.07617   0.08357   0.10253   0.11169
 Alpha virt. eigenvalues --    0.12073   0.13214   0.14280   0.14729   0.15371
 Alpha virt. eigenvalues --    0.16112   0.17552   0.17717   0.18557   0.20358

 Mulliken charges:
               1
     1  C   -0.384658
     2  C   -0.272841
     3  C    0.340282
     4  C   -0.477330
     5  C   -0.124429
     6  O   -0.305004
     7  C   -0.111877
     8  C    0.460767
     9  O   -0.319515
    10  H    0.123977
    11  H    0.122749
    12  H    0.121247
    13  H    0.119196
    14  H    0.104623
    15  H    0.118410
    16  H    0.123487
    17  H    0.143751
    18  H    0.108089
    19  H    0.109074
 Sum of Mulliken charges =   0.00000

 Dipole moment (field-independent basis, Debye):
    X=             -3.0112    Y=              0.8201    Z=             -0.4094  Tot=              3.1476
 Quadrupole moment (field-independent basis, Debye-Ang):
   XX=            -58.8824   YY=            -58.2665   ZZ=            -49.7356
   XY=              3.0057   XZ=             -0.7846   YZ=             -1.4148

  Exact polarizability:  80.960  -3.809  76.688  -1.201  -1.240  68.935
 Approx polarizability: 112.170  -7.461 122.043  -0.998   0.616 109.807

                      1                      2                      3
                      A                      A                      A
 Frequencies --     68.5819               146.2754               165.9496
 Red. masses --      2.3555                 4.6581                 2.6797
 Frc consts  --      0.0065                 0.0587                 0.0435
 IR Inten    --      0.4187                 2.5358                 0.1340

                      4                      5                      6
                      A                      A                      A
 Frequencies --    218.3266               229.4935               275.5279
 Red. masses --      1.3097                 1.2938                 1.9604
 Frc consts  --      0.0368                 0.0401                 0.0877
 IR Inten    --      0.7049                 0.1669                 0.7812

                      7                      8                      9
                      A                      A                      A
 Frequencies --    337.1201               365.4780               420.3279
 Red. masses --      3.6798                 2.1900                 3.6544
 Frc consts  --      0.2464                 0.1724                 0.3804
 IR Inten    --      6.2145                 0.2115                 1.3087

                     10                     11                     12
                      A                      A                      A
 Frequencies --    481.6580               544.7987               625.5808
 Red. masses --      2.8979                 6.3944                 3.3502
 Frc consts  --      0.3961                 1.1182                 0.7725
 IR Inten    --      1.5301                 3.9273                 0.8111

                     13                     14                     15
                      A                      A                      A
 Frequencies --    697.9993               764.3587               790.2021
 Red. masses --      2.9531                 2.4891                 1.8973
 Frc consts  --      0.8477                 0.8568                 0.6980
 IR Inten    --      0.2664                 1.6192                 9.3481

                     16                     17                     18
                      A                      A                      A
 Frequencies --    792.5295               828.8080               876.4317
 Red. masses --      4.2252                 3.2777                 3.1945
 Frc consts  --      1.5636                 1.3266                 1.4457
 IR Inten    --      6.2353                17.4446                28.4731

                     19                     20                     21
                      A                      A                      A
 Frequencies --    920.6813               953.9368              1005.8323
 Red. masses --      2.0603                 3.4357                 1.8255
 Frc consts  --      1.0290                 1.8421                 1.0881
 IR Inten    --     12.1182                 8.4917                 3.2202

                     22                     23                     24
                      A                      A                      A
 Frequencies --   1021.5897              1035.5190              1085.1619
 Red. masses --      1.5361                 1.6210                 1.7139
 Frc consts  --      0.9446                 1.0241                 1.1891
 IR Inten    --      2.7484                 2.9305                 1.7516

                     25                     26                     27
                      A                      A                      A
 Frequencies --   1122.6064              1137.2764              1150.1082
 Red. masses --      4.7759                 1.3011                 1.6264
 Frc consts  --      3.5461                 0.9915                 1.2676
 IR Inten    --      1.6502                 1.8769                 5.3612

                     28                     29                     30
                      A                      A                      A
 Frequencies --   1171.2580              1218.5637              1250.9396
 Red. masses --      2.1589                 1.5502                 2.6920
 Frc consts  --      1.7450                 1.3562                 2.4820
 IR Inten    --      0.9855                 5.9454                 9.4850

                     31                     32                     33
                      A                      A                      A
 Frequencies --   1274.2418              1341.7984              1377.6718
 Red. masses --      1.7675                 1.5587                 1.4660
 Frc consts  --      1.6909                 1.6534                 1.6394
 IR Inten    --      2.8627                 3.3360                 0.4987

                     34                     35                     36
                      A                      A                      A
 Frequencies --   1404.6213              1413.7654              1482.9667
 Red. masses --      1.2982                 1.2154                 1.0589
 Frc consts  --      1.5091                 1.4313                 1.3721
 IR Inten    --      9.6199                 2.0889                 0.9759

                     37                     38                     39
                      A                      A                      A
 Frequencies --   1495.9356              1498.5624              1507.7881
 Red. masses --      1.0567                 1.0419                 1.0777
 Frc consts  --      1.3933                 1.3785                 1.4436
 IR Inten    --      2.4684                 7.7115                 7.6772

                     40                     41                     42
                      A                      A                      A
 Frequencies --   1511.8595              1934.2397              3022.7854
 Red. masses --      1.0470                12.2485                 1.0597
 Frc consts  --      1.4100                26.9993                 5.7051
 IR Inten    --      3.8100               362.8491                16.1756

                     43                     44                     45
                      A                      A                      A
 Frequencies --   3038.9241              3042.5749              3055.9802
 Red. masses --      1.0368                 1.0390                 1.1010
 Frc consts  --      5.6413                 5.6669                 6.0579
 IR Inten    --     16.0148                24.6943                14.4807

                     46                     47                     48
                      A                      A                      A
 Frequencies --   3100.9612              3106.3955              3115.6007
 Red. masses --      1.1000                 1.1006                 1.1010
 Frc consts  --      6.2322                 6.2573                 6.2969
 IR Inten    --     22.7448                28.0102                28.5640

                     49                     50                     51
                      A                      A                      A
 Frequencies --   3140.7168              3144.0163              3146.0119
 Red. masses --      1.0908                 1.0983                 1.0964
 Frc consts  --      6.3397                 6.3965                 6.3932
 IR Inten    --     38.1924                 6.4950                 2.9814

 - Thermochemistry -
 -------------------
 Temperature   298.150 Kelvin.  Pressure   1.00000 Atm.
 Atom     1 has atomic number  6 and mass  12.00000

 Molecular mass:   126.06808 amu.
 Principal axes and moments of inertia in atomic units:
                           1         2         3
     Eigenvalues --   741.691291180.898311616.57706
           X            0.99910   0.04154  -0.00878
           Y           -0.04168   0.99900  -0.01620
           Z            0.00810   0.01655   0.99983
 This molecule is an asymmetric top.
 Rotational symmetry number  1.
 Warning -- assumption of classical behavior for rotation
           may cause significant error
 Rotational temperatures (Kelvin)      0.11678     0.07335     0.05358
 Rotational constants (GHZ):           2.43328     1.52828     1.11640
 Zero-point vibrational energy     411876.3 (Joules/Mol)
                                   98.44080 (Kcal/Mol)
 Warning -- explicit consideration of  11 degrees of freedom as
           vibrations may cause significant error
 Vibrational temperatures:     98.67   210.46   238.76   314.12   330.19
          (Kelvin)            396.42   485.04   525.84   604.76   693.00
                              783.84   900.07  1004.26  1099.74  1136.92
                             1140.27  1192.47  1260.99  1324.65  1372.50
                             1447.17  1469.84  1489.88  1561.30  1615.18
                             1636.28  1654.75  1685.18  1753.24  1799.82
                             1833.35  1930.55  1982.16  2020.93  2034.09
                             2133.66  2152.31  2156.09  2169.37  2175.23
                             2782.94  4349.11  4372.33  4377.58  4396.87
                             4461.59  4469.40  4482.65  4518.79  4523.53
                             4526.40

 Zero-point correction=                           0.156875 (Hartree/Particle)
 Thermal correction to Energy=                    0.165757
 Thermal correction to Enthalpy=                  0.166702
 Thermal correction to Gibbs Free Energy=         0.123383
 Sum of electronic and zero-point Energies=           -422.971752
 Sum of electronic and thermal Energies=              -422.962870
 Sum of electronic and thermal Enthalpies=            -422.961926
 Sum of electronic and thermal Free Energies=         -423.005244

                     E (Thermal)             CV                S
                      KCal/Mol        Cal/Mol-Kelvin    Cal/Mol-Kelvin
 Total                  104.014             33.656             91.171
 Electronic               0.000              0.000              0.000
 Translational            0.889              2.981             40.409
 Rotational               0.889              2.981             28.739
 Vibrational            102.237             27.695             22.023
 Vibration     1          0.598              1.969              4.194
 Vibration     2          0.617              1.907              2.720
 Vibration     3          0.624              1.884              2.481
 Vibration     4          0.646              1.813              1.973
 Vibration     5          0.652              1.796              1.883
 Vibration     6          0.677              1.719              1.561
 Vibration     7          0.718              1.601              1.226
 Vibration     8          0.739              1.543              1.099
 Vibration     9          0.783              1.426              0.891
 Vibration    10          0.838              1.291              0.706
 Vibration    11          0.900              1.151              0.555

 Normal termination of Gaussian 09 at Tue Jan 28 09:19:01 2020.
