 Gaussian 09, Revision D.01,
 Gaussian 09:  ES64L-G09RevD.01 24-Apr-2013

 -----------------------------
 # b3lyp 6-31G(2df,p) opt Freq
 -----------------------------

 -----
 titel
 -----
 Symbolic Z-matrix:
 Charge =  0 Multiplicity = 1

 SCF Done:  E(RB3LYP) =  -423.087123593     A.U. after   14 cycles
 Optimization completed.
    -- Stationary point found.
 Normal termination of Gaussian 09 at Tue Jan 28 01:53:25 2020.

 ----------------------------------------------------------------------
 #N Geom=AllCheck Guess=TCheck SCRF=Check GenChk RB3LYP/6-31G(2df,p) Fr
 eq
 ----------------------------------------------------------------------

 Structure from the checkpoint file:  "/scratch/puck/g09_8481a10b-43fc-461b-9731-0b11a30e55a6/Gau-37960.chk"
 -----
 titel
 -----
 Charge =  0 Multiplicity = 1

                         Standard orientation:
 ---------------------------------------------------------------------
 Center     Atomic      Atomic             Coordinates (Angstroms)
 Number     Number       Type             X           Y           Z
 ---------------------------------------------------------------------
      1          6           0       -2.394594    0.862805    0.461211
      2          6           0       -1.591298    0.017878   -0.507293
      3          6           0       -1.386156   -1.468755   -0.233446
      4          6           0       -0.241581   -0.527077   -0.137970
      5          6           0        0.781226   -0.252813    0.978210
      6          8           0        1.644293   -1.301202    0.389626
      7          6           0        1.156949   -0.531400   -0.776430
      8          6           0        1.506591    0.760597    0.031622
      9          8           0        0.985292    2.010204   -0.282038
     10          1           0       -2.131222    1.925642    0.398469
     11          1           0       -3.467618    0.777040    0.260059
     12          1           0       -2.222336    0.544858    1.494431
     13          1           0       -1.730264    0.275400   -1.556025
     14          1           0       -1.798138   -1.866561    0.689256
     15          1           0       -1.425991   -2.157245   -1.071193
     16          1           0        0.655362   -0.249010    2.061273
     17          1           0        1.471208   -0.857203   -1.768711
     18          1           0        2.570332    0.867626    0.244676
     19          1           0        0.055163    1.900025   -0.508358
 ---------------------------------------------------------------------

 SCF Done:  E(RB3LYP) =  -423.087123593     A.U. after    1 cycles

 The electronic state is 1-A.
 Alpha  occ. eigenvalues --  -19.14625 -19.13682 -10.24512 -10.24508 -10.24172
 Alpha  occ. eigenvalues --  -10.20909 -10.20559 -10.19152 -10.19064  -1.06475
 Alpha  occ. eigenvalues --   -1.02559  -0.86947  -0.75816  -0.71980  -0.65729
 Alpha  occ. eigenvalues --   -0.64197  -0.58865  -0.54139  -0.52394  -0.50300
 Alpha  occ. eigenvalues --   -0.46908  -0.44213  -0.42582  -0.41358  -0.40269
 Alpha  occ. eigenvalues --   -0.38033  -0.37485  -0.36584  -0.35531  -0.32044
 Alpha  occ. eigenvalues --   -0.30071  -0.28248  -0.26523  -0.23917
 Alpha virt. eigenvalues --    0.05667   0.08732   0.09705   0.10277   0.12059
 Alpha virt. eigenvalues --    0.12430   0.13444   0.13899   0.15909   0.16325
 Alpha virt. eigenvalues --    0.16677   0.17931   0.18816   0.20902   0.21652

 Mulliken charges:
               1
     1  C   -0.410692
     2  C   -0.123721
     3  C   -0.400031
     4  C    0.436163
     5  C   -0.105607
     6  O   -0.297325
     7  C   -0.113275
     8  C    0.158351
     9  O   -0.430332
    10  H    0.118160
    11  H    0.126282
    12  H    0.122738
    13  H    0.093071
    14  H    0.118931
    15  H    0.119434
    16  H    0.094275
    17  H    0.094163
    18  H    0.104903
    19  H    0.294511
 Sum of Mulliken charges =   0.00000

 Dipole moment (field-independent basis, Debye):
    X=             -2.3095    Y=              0.1869    Z=             -0.5117  Tot=              2.3729
 Quadrupole moment (field-independent basis, Debye-Ang):
   XX=            -54.6445   YY=            -59.2500   ZZ=            -49.5668
   XY=             -0.0643   XZ=             -0.8038   YZ=              1.3255

  Exact polarizability:  84.904   0.128  74.324  -0.026   1.432  68.132
 Approx polarizability: 115.252  -2.771 113.324   1.592  -1.071 106.800

                      1                      2                      3
                      A                      A                      A
 Frequencies --    119.9943               131.8150               185.5033
 Red. masses --      2.9871                 3.7576                 1.2434
 Frc consts  --      0.0253                 0.0385                 0.0252
 IR Inten    --      1.5133                 0.3795                 0.0754

                      4                      5                      6
                      A                      A                      A
 Frequencies --    219.6071               302.4760               328.9304
 Red. masses --      2.2507                 2.6312                 2.1209
 Frc consts  --      0.0640                 0.1418                 0.1352
 IR Inten    --      1.7087                 9.5335                 9.5967

                      7                      8                      9
                      A                      A                      A
 Frequencies --    375.9482               392.7595               434.9470
 Red. masses --      2.6327                 1.6252                 2.8959
 Frc consts  --      0.2192                 0.1477                 0.3228
 IR Inten    --      5.0210                42.7971                10.9359

                     10                     11                     12
                      A                      A                      A
 Frequencies --    525.3457               618.8774               673.1892
 Red. masses --      3.9952                 5.6746                 3.4359
 Frc consts  --      0.6496                 1.2806                 0.9174
 IR Inten    --      2.2894                 2.0775                 4.4801

                     13                     14                     15
                      A                      A                      A
 Frequencies --    746.2798               814.9311               842.1785
 Red. masses --      3.9631                 1.9845                 2.4705
 Frc consts  --      1.3004                 0.7765                 1.0324
 IR Inten    --     17.9556                 5.4795                 6.0012

                     16                     17                     18
                      A                      A                      A
 Frequencies --    854.5295               882.7407               893.8094
 Red. masses --      2.8235                 2.1427                 2.4397
 Frc consts  --      1.2147                 0.9837                 1.1484
 IR Inten    --     24.1371                 3.7053                 5.6975

                     19                     20                     21
                      A                      A                      A
 Frequencies --    900.9691               971.8318               990.0965
 Red. masses --      1.7049                 1.9888                 1.7210
 Frc consts  --      0.8154                 1.1067                 0.9940
 IR Inten    --      4.0905                 9.4374                 5.2414

                     22                     23                     24
                      A                      A                      A
 Frequencies --   1052.7058              1073.6271              1086.8508
 Red. masses --      1.4096                 1.4662                 2.5438
 Frc consts  --      0.9204                 0.9957                 1.7704
 IR Inten    --     28.4543                 1.8286                10.5527

                     25                     26                     27
                      A                      A                      A
 Frequencies --   1117.5591              1131.5782              1134.0332
 Red. masses --      2.5601                 1.6398                 1.6023
 Frc consts  --      1.8839                 1.2371                 1.2140
 IR Inten    --     92.9063                 6.0692                 4.2156

                     28                     29                     30
                      A                      A                      A
 Frequencies --   1140.8467              1168.8738              1182.3086
 Red. masses --      2.3881                 1.5090                 1.6490
 Frc consts  --      1.8313                 1.2147                 1.3581
 IR Inten    --     31.6660                 1.0369                 0.3244

                     31                     32                     33
                      A                      A                      A
 Frequencies --   1219.4350              1239.4794              1254.5160
 Red. masses --      1.7202                 1.5196                 1.6831
 Frc consts  --      1.5071                 1.3755                 1.5607
 IR Inten    --      6.4798                12.3526                34.8577

                     34                     35                     36
                      A                      A                      A
 Frequencies --   1283.5760              1345.4412              1416.9065
 Red. masses --      1.7018                 1.5650                 1.2521
 Frc consts  --      1.6519                 1.6691                 1.4810
 IR Inten    --      0.8556                 2.0712                15.5031

                     37                     38                     39
                      A                      A                      A
 Frequencies --   1419.6415              1441.9466              1489.7511
 Red. masses --      1.3345                 1.4835                 1.0591
 Frc consts  --      1.5846                 1.8174                 1.3848
 IR Inten    --     54.7143                16.1569                 2.4575

                     40                     41                     42
                      A                      A                      A
 Frequencies --   1495.6321              1511.5803              3024.7027
 Red. masses --      1.1697                 1.8243                 1.0370
 Frc consts  --      1.5416                 2.4559                 5.5898
 IR Inten    --      3.7226                 1.4488                28.1763

                     43                     44                     45
                      A                      A                      A
 Frequencies --   3083.7651              3099.2720              3114.2363
 Red. masses --      1.0985                 1.0984                 1.0904
 Frc consts  --      6.1550                 6.2162                 6.2308
 IR Inten    --     23.5232                10.6539                62.3292

                     46                     47                     48
                      A                      A                      A
 Frequencies --   3117.3844              3122.6152              3123.5092
 Red. masses --      1.0909                 1.0864                 1.0582
 Frc consts  --      6.2462                 6.2415                 6.0830
 IR Inten    --      8.9868                31.3020                11.7905

                     49                     50                     51
                      A                      A                      A
 Frequencies --   3132.1622              3207.4138              3810.1060
 Red. masses --      1.0923                 1.1159                 1.0645
 Frc consts  --      6.3139                 6.7637                 9.1048
 IR Inten    --     30.8692                 7.2117                25.6325

 - Thermochemistry -
 -------------------
 Temperature   298.150 Kelvin.  Pressure   1.00000 Atm.
 Atom     1 has atomic number  6 and mass  12.00000

 Molecular mass:   126.06808 amu.
 Principal axes and moments of inertia in atomic units:
                           1         2         3
     Eigenvalues --   722.426461122.525221536.62527
           X            0.99987  -0.01022  -0.01211
           Y            0.01049   0.99969   0.02259
           Z            0.01187  -0.02272   0.99967
 This molecule is an asymmetric top.
 Rotational symmetry number  1.
 Warning -- assumption of classical behavior for rotation
           may cause significant error
 Rotational temperatures (Kelvin)      0.11989     0.07716     0.05637
 Rotational constants (GHZ):           2.49817     1.60775     1.17448
 Zero-point vibrational energy     414196.3 (Joules/Mol)
                                   98.99529 (Kcal/Mol)
 Warning -- explicit consideration of  11 degrees of freedom as
           vibrations may cause significant error
 Vibrational temperatures:    172.64   189.65   266.90   315.97   435.19
          (Kelvin)            473.26   540.90   565.09   625.79   755.85
                              890.43   968.57  1073.73  1172.50  1211.71
                             1229.48  1270.07  1285.99  1296.29  1398.25
                             1424.53  1514.61  1544.71  1563.73  1607.92
                             1628.09  1631.62  1641.42  1681.75  1701.08
                             1754.49  1783.33  1804.97  1846.78  1935.79
                             2038.61  2042.54  2074.64  2143.42  2151.88
                             2174.82  4351.87  4436.84  4459.16  4480.69
                             4485.22  4492.74  4494.03  4506.48  4614.75
                             5481.89

 Zero-point correction=                           0.157759 (Hartree/Particle)
 Thermal correction to Energy=                    0.166143
 Thermal correction to Enthalpy=                  0.167087
 Thermal correction to Gibbs Free Energy=         0.125095
 Sum of electronic and zero-point Energies=           -422.929365
 Sum of electronic and thermal Energies=              -422.920981
 Sum of electronic and thermal Enthalpies=            -422.920036
 Sum of electronic and thermal Free Energies=         -422.962028

                     E (Thermal)             CV                S
                      KCal/Mol        Cal/Mol-Kelvin    Cal/Mol-Kelvin
 Total                  104.256             32.813             88.379
 Electronic               0.000              0.000              0.000
 Translational            0.889              2.981             40.409
 Rotational               0.889              2.981             28.612
 Vibrational            102.479             26.852             19.358
 Vibration     1          0.609              1.933              3.100
 Vibration     2          0.612              1.922              2.919
 Vibration     3          0.632              1.860              2.272
 Vibration     4          0.647              1.811              1.962
 Vibration     5          0.694              1.669              1.403
 Vibration     6          0.712              1.618              1.265
 Vibration     7          0.747              1.521              1.055
 Vibration     8          0.760              1.486              0.990
 Vibration     9          0.796              1.394              0.843
 Vibration    10          0.880              1.194              0.598
 Vibration    11          0.979              0.992              0.418

 Normal termination of Gaussian 09 at Tue Jan 28 02:44:02 2020.
