 Gaussian 09, Revision D.01,
 Gaussian 09:  ES64L-G09RevD.01 24-Apr-2013

 -----------------------------
 # b3lyp 6-31G(2df,p) opt Freq
 -----------------------------

 -----
 titel
 -----
 Symbolic Z-matrix:
 Charge =  0 Multiplicity = 1

 SCF Done:  E(RB3LYP) =  -423.143982668     A.U. after   14 cycles
 Optimization completed.
    -- Stationary point found.
 Normal termination of Gaussian 09 at Mon Jan 27 12:12:53 2020.

 ----------------------------------------------------------------------
 #N Geom=AllCheck Guess=TCheck SCRF=Check GenChk RB3LYP/6-31G(2df,p) Fr
 eq
 ----------------------------------------------------------------------

 Structure from the checkpoint file:  "/scratch/puck/g09_70488501-d461-407d-b5f3-09e01842a488/Gau-153082.chk"
 -----
 titel
 -----
 Charge =  0 Multiplicity = 1

                         Standard orientation:
 ---------------------------------------------------------------------
 Center     Atomic      Atomic             Coordinates (Angstroms)
 Number     Number       Type             X           Y           Z
 ---------------------------------------------------------------------
      1          6           0        2.785168    0.359407    0.161140
      2          8           0        2.389947   -0.956553   -0.233546
      3          6           0        1.439935    0.102939   -0.366373
      4          6           0        0.218337    0.034308    0.523816
      5          6           0       -0.611966    1.343592    0.456221
      6          8           0       -1.590967    1.163804   -0.565404
      7          6           0       -1.851074   -0.212986   -0.676957
      8          6           0       -2.171608   -0.993872    0.570271
      9          6           0       -0.764970   -1.003742   -0.006327
     10          1           0        2.923248    0.502621    1.232514
     11          1           0        3.537193    0.831618   -0.469443
     12          1           0        1.234782    0.387680   -1.400406
     13          1           0        0.539736   -0.173158    1.549839
     14          1           0       -1.096053    1.541343    1.421815
     15          1           0       -0.012781    2.221510    0.195545
     16          1           0       -2.297406   -0.464710   -1.631170
     17          1           0       -2.366613   -0.462621    1.495880
     18          1           0       -2.754106   -1.900848    0.448858
     19          1           0       -0.362770   -1.919324   -0.422565
 ---------------------------------------------------------------------

 SCF Done:  E(RB3LYP) =  -423.143982669     A.U. after    1 cycles

 The electronic state is 1-A.
 Alpha  occ. eigenvalues --  -19.15075 -19.14357 -10.23838 -10.23487 -10.23425
 Alpha  occ. eigenvalues --  -10.23295 -10.19972 -10.19138 -10.18621  -1.07090
 Alpha  occ. eigenvalues --   -1.04493  -0.84968  -0.77869  -0.67584  -0.66051
 Alpha  occ. eigenvalues --   -0.60760  -0.57787  -0.57343  -0.52746  -0.50044
 Alpha  occ. eigenvalues --   -0.48639  -0.45230  -0.44249  -0.42141  -0.40724
 Alpha  occ. eigenvalues --   -0.38969  -0.38156  -0.36120  -0.33460  -0.32899
 Alpha  occ. eigenvalues --   -0.30453  -0.28661  -0.26603  -0.23262
 Alpha virt. eigenvalues --    0.08822   0.09146   0.10341   0.10825   0.11478
 Alpha virt. eigenvalues --    0.12852   0.12990   0.15062   0.15577   0.16406
 Alpha virt. eigenvalues --    0.17141   0.18377   0.19173   0.19665   0.22535

 Mulliken charges:
               1
     1  C   -0.192622
     2  O   -0.244421
     3  C    0.100581
     4  C   -0.058764
     5  C   -0.119610
     6  O   -0.256540
     7  C    0.125405
     8  C   -0.352612
     9  C   -0.066435
    10  H    0.112217
    11  H    0.116057
    12  H    0.101348
    13  H    0.082003
    14  H    0.100576
    15  H    0.111770
    16  H    0.102457
    17  H    0.116500
    18  H    0.116223
    19  H    0.105867
 Sum of Mulliken charges =   0.00000

 Dipole moment (field-independent basis, Debye):
    X=              0.0946    Y=              0.6076    Z=              0.8396  Tot=              1.0407
 Quadrupole moment (field-independent basis, Debye-Ang):
   XX=            -54.6930   YY=            -54.8705   ZZ=            -51.2241
   XY=              8.0575   XZ=              0.1793   YZ=              2.0357

  Exact polarizability:  89.050   7.157  68.588   0.994   1.372  65.845
 Approx polarizability: 114.359   4.043 105.781   3.648   0.353 101.639

                      1                      2                      3
                      A                      A                      A
 Frequencies --     70.6965               105.1351               165.3229
 Red. masses --      3.8300                 3.8186                 3.4121
 Frc consts  --      0.0113                 0.0249                 0.0549
 IR Inten    --      3.9026                 2.3056                 5.3484

                      4                      5                      6
                      A                      A                      A
 Frequencies --    270.7848               323.7649               354.6503
 Red. masses --      2.7246                 3.3838                 2.5124
 Frc consts  --      0.1177                 0.2090                 0.1862
 IR Inten    --      0.7500                 0.6339                 2.3483

                      7                      8                      9
                      A                      A                      A
 Frequencies --    445.6714               473.7990               704.7963
 Red. masses --      2.5499                 4.0399                 3.4887
 Frc consts  --      0.2984                 0.5343                 1.0210
 IR Inten    --      4.5563                 3.5304                 1.1557

                     10                     11                     12
                      A                      A                      A
 Frequencies --    727.7378               791.6999               813.2196
 Red. masses --      3.0909                 2.5725                 1.7170
 Frc consts  --      0.9644                 0.9500                 0.6690
 IR Inten    --      8.7437                26.5772                11.6341

                     13                     14                     15
                      A                      A                      A
 Frequencies --    819.5895               868.1828               902.9358
 Red. masses --      1.8454                 4.8378                 2.5607
 Frc consts  --      0.7303                 2.1484                 1.2300
 IR Inten    --      6.7115                16.6184                 6.7565

                     16                     17                     18
                      A                      A                      A
 Frequencies --    915.6218               962.9528               965.2629
 Red. masses --      2.3370                 2.8166                 2.2978
 Frc consts  --      1.1543                 1.5388                 1.2614
 IR Inten    --     18.1472                20.8092                12.0453

                     19                     20                     21
                      A                      A                      A
 Frequencies --    985.8733              1005.8377              1044.2574
 Red. masses --      1.8548                 1.6234                 1.9711
 Frc consts  --      1.0621                 0.9677                 1.2664
 IR Inten    --      2.8740                19.1314                 7.9336

                     22                     23                     24
                      A                      A                      A
 Frequencies --   1061.9850              1086.2035              1103.2398
 Red. masses --      1.6637                 1.3538                 1.2670
 Frc consts  --      1.1055                 0.9411                 0.9086
 IR Inten    --     11.1584                 1.0180                 0.8872

                     25                     26                     27
                      A                      A                      A
 Frequencies --   1116.7605              1154.0029              1160.9559
 Red. masses --      1.4979                 1.5480                 2.1835
 Frc consts  --      1.1007                 1.2146                 1.7340
 IR Inten    --      4.6487                 4.5410                48.6067

                     28                     29                     30
                      A                      A                      A
 Frequencies --   1168.8362              1185.3533              1202.0276
 Red. masses --      1.7518                 1.7460                 1.6982
 Frc consts  --      1.4101                 1.4454                 1.4457
 IR Inten    --     23.6730                 1.9559                 6.3486

                     31                     32                     33
                      A                      A                      A
 Frequencies --   1244.0670              1255.3392              1286.9888
 Red. masses --      1.2007                 1.7076                 1.3453
 Frc consts  --      1.0949                 1.5854                 1.3129
 IR Inten    --      0.5400                 7.7633                 5.4708

                     34                     35                     36
                      A                      A                      A
 Frequencies --   1292.3448              1325.8751              1370.8231
 Red. masses --      1.5307                 1.3274                 1.7890
 Frc consts  --      1.5063                 1.3749                 1.9808
 IR Inten    --      3.9503                 6.7259                 6.4882

                     37                     38                     39
                      A                      A                      A
 Frequencies --   1398.9232              1452.1277              1476.6643
 Red. masses --      1.4480                 1.7237                 1.2927
 Frc consts  --      1.6696                 2.1415                 1.6608
 IR Inten    --      8.9618                 7.6854                 8.7971

                     40                     41                     42
                      A                      A                      A
 Frequencies --   1522.2269              1530.8980              3008.7619
 Red. masses --      1.0882                 1.3693                 1.0685
 Frc consts  --      1.4856                 1.8907                 5.6991
 IR Inten    --      1.6897                 3.7023                43.9742

                     43                     44                     45
                      A                      A                      A
 Frequencies --   3055.4748              3077.3770              3080.3699
 Red. masses --      1.0838                 1.0966                 1.0504
 Frc consts  --      5.9617                 6.1189                 5.8723
 IR Inten    --     18.2437                30.0225                28.4979

                     46                     47                     48
                      A                      A                      A
 Frequencies --   3094.8543              3131.9322              3166.5685
 Red. masses --      1.0883                 1.0544                 1.1192
 Frc consts  --      6.1418                 6.0934                 6.6122
 IR Inten    --     22.3133                12.4054                27.8695

                     49                     50                     51
                      A                      A                      A
 Frequencies --   3183.6341              3192.2113              3217.7776
 Red. masses --      1.0891                 1.0965                 1.1146
 Frc consts  --      6.5038                 6.5834                 6.7993
 IR Inten    --      7.5141                10.5200                11.4809

 - Thermochemistry -
 -------------------
 Temperature   298.150 Kelvin.  Pressure   1.00000 Atm.
 Atom     1 has atomic number  6 and mass  12.00000

 Molecular mass:   126.06808 amu.
 Principal axes and moments of inertia in atomic units:
                           1         2         3
     Eigenvalues --   487.873291569.670251796.63010
           X            0.99932   0.03666  -0.00283
           Y           -0.03656   0.99883   0.03173
           Z            0.00399  -0.03161   0.99949
 This molecule is an asymmetric top.
 Rotational symmetry number  1.
 Warning -- assumption of classical behavior for rotation
           may cause significant error
 Rotational temperatures (Kelvin)      0.17753     0.05518     0.04821
 Rotational constants (GHZ):           3.69920     1.14976     1.00451
 Zero-point vibrational energy     420621.3 (Joules/Mol)
                                  100.53091 (Kcal/Mol)
 Warning -- explicit consideration of   8 degrees of freedom as
           vibrations may cause significant error
 Vibrational temperatures:    101.72   151.27   237.86   389.60   465.82
          (Kelvin)            510.26   641.22   681.69  1014.04  1047.05
                             1139.08  1170.04  1179.21  1249.12  1299.12
                             1317.37  1385.47  1388.80  1418.45  1447.17
                             1502.45  1527.96  1562.80  1587.31  1606.77
                             1660.35  1670.35  1681.69  1705.46  1729.45
                             1789.93  1806.15  1851.69  1859.39  1907.64
                             1972.31  2012.74  2089.29  2124.59  2190.14
                             2202.62  4328.93  4396.14  4427.65  4431.96
                             4452.80  4506.15  4555.98  4580.53  4592.87
                             4629.66

 Zero-point correction=                           0.160206 (Hartree/Particle)
 Thermal correction to Energy=                    0.167980
 Thermal correction to Enthalpy=                  0.168925
 Thermal correction to Gibbs Free Energy=         0.127361
 Sum of electronic and zero-point Energies=           -422.983776
 Sum of electronic and thermal Energies=              -422.976002
 Sum of electronic and thermal Enthalpies=            -422.975058
 Sum of electronic and thermal Free Energies=         -423.016621

                     E (Thermal)             CV                S
                      KCal/Mol        Cal/Mol-Kelvin    Cal/Mol-Kelvin
 Total                  105.409             29.905             87.477
 Electronic               0.000              0.000              0.000
 Translational            0.889              2.981             40.409
 Rotational               0.889              2.981             28.711
 Vibrational            103.632             23.943             18.358
 Vibration     1          0.598              1.968              4.134
 Vibration     2          0.605              1.945              3.357
 Vibration     3          0.624              1.885              2.488
 Vibration     4          0.674              1.727              1.591
 Vibration     5          0.708              1.628              1.291
 Vibration     6          0.730              1.566              1.145
 Vibration     7          0.805              1.370              0.809
 Vibration     8          0.831              1.308              0.727

 Optimization completed.
    -- Stationary point found.
 Normal termination of Gaussian 09 at Mon Jan 27 12:54:41 2020.
