 Gaussian 09, Revision D.01,
 Gaussian 09:  ES64L-G09RevD.01 24-Apr-2013

 -----------------------------
 # b3lyp 6-31G(2df,p) opt Freq
 -----------------------------

 -----
 titel
 -----
 Symbolic Z-matrix:
 Charge =  0 Multiplicity = 1

 SCF Done:  E(RB3LYP) =  -423.190413027     A.U. after   14 cycles
 Optimization completed.
    -- Stationary point found.
 Normal termination of Gaussian 09 at Mon Jan 27 14:01:01 2020.

 ----------------------------------------------------------------------
 #N Geom=AllCheck Guess=TCheck SCRF=Check GenChk RB3LYP/6-31G(2df,p) Fr
 eq
 ----------------------------------------------------------------------

 Structure from the checkpoint file:  "/scratch/puck/g09_ad9d6267-493a-4e31-93e4-d46be2f6d8fe/Gau-4009.chk"
 -----
 titel
 -----
 Charge =  0 Multiplicity = 1

                         Standard orientation:
 ---------------------------------------------------------------------
 Center     Atomic      Atomic             Coordinates (Angstroms)
 Number     Number       Type             X           Y           Z
 ---------------------------------------------------------------------
      1          8           0       -4.010598    0.231903   -0.163288
      2          6           0       -2.930817   -0.284934   -0.272877
      3          6           0       -1.657521    0.284064    0.329148
      4          8           0       -0.577137   -0.489818   -0.122018
      5          6           0        0.668385   -0.173100    0.490087
      6          6           0        1.306421    1.146097   -0.024040
      7          6           0        2.812600    0.833387   -0.216365
      8          6           0        2.849323   -0.675388   -0.241633
      9          6           0        1.694056   -1.217467    0.134525
     10          1           0       -2.772811   -1.238295   -0.823813
     11          1           0       -1.575235    1.344900    0.044271
     12          1           0       -1.751255    0.254370    1.429799
     13          1           0        0.509105   -0.140491    1.583170
     14          1           0        0.846538    1.371132   -0.991630
     15          1           0        1.131055    1.997522    0.637597
     16          1           0        3.227142    1.284075   -1.125110
     17          1           0        3.413857    1.220830    0.617240
     18          1           0        3.742008   -1.231588   -0.506578
     19          1           0        1.476792   -2.275078    0.224431
 ---------------------------------------------------------------------

 SCF Done:  E(RB3LYP) =  -423.190413027     A.U. after    1 cycles

 The electronic state is 1-A.
 Alpha  occ. eigenvalues --  -19.15104 -19.14251 -10.27327 -10.24163 -10.24154
 Alpha  occ. eigenvalues --  -10.19282 -10.19005 -10.18759 -10.18296  -1.05413
 Alpha  occ. eigenvalues --   -1.04209  -0.84611  -0.74796  -0.71704  -0.68164
 Alpha  occ. eigenvalues --   -0.58791  -0.58392  -0.53899  -0.51373  -0.50790
 Alpha  occ. eigenvalues --   -0.47079  -0.46088  -0.44484  -0.43174  -0.39735
 Alpha  occ. eigenvalues --   -0.38999  -0.37220  -0.36180  -0.35873  -0.35121
 Alpha  occ. eigenvalues --   -0.32397  -0.27057  -0.25508  -0.25155
 Alpha virt. eigenvalues --   -0.02627   0.01253   0.08460   0.09816   0.11767
 Alpha virt. eigenvalues --    0.13414   0.13930   0.14577   0.15541   0.16351
 Alpha virt. eigenvalues --    0.16505   0.18429   0.19675   0.20695   0.21065

 Mulliken charges:
               1
     1  O   -0.239712
     2  C    0.140769
     3  C   -0.150012
     4  O   -0.265579
     5  C    0.117550
     6  C   -0.236417
     7  C   -0.262126
     8  C   -0.060032
     9  C   -0.091244
    10  H    0.095799
    11  H    0.122851
    12  H    0.118181
    13  H    0.070103
    14  H    0.117496
    15  H    0.099806
    16  H    0.109850
    17  H    0.112152
    18  H    0.099231
    19  H    0.101334
 Sum of Mulliken charges =   0.00000

 Dipole moment (field-independent basis, Debye):
    X=              3.1148    Y=              0.1858    Z=              0.7011  Tot=              3.1981
 Quadrupole moment (field-independent basis, Debye-Ang):
   XX=            -64.3706   YY=            -51.6140   ZZ=            -52.4624
   XY=              2.3048   XZ=             -1.1671   YZ=             -0.2363

  Exact polarizability: 103.852   0.994  73.771  -4.753   1.521  58.438
 Approx polarizability: 137.154   2.455 108.768  -8.964   1.756  91.754

                      1                      2                      3
                      A                      A                      A
 Frequencies --     45.5078                60.0718                77.7109
 Red. masses --      4.9636                 2.1128                 3.1278
 Frc consts  --      0.0061                 0.0045                 0.0111
 IR Inten    --      1.7933                 7.0020                 0.9769

                      4                      5                      6
                      A                      A                      A
 Frequencies --    106.9141               152.9971               297.1195
 Red. masses --      2.4249                 3.2423                 3.3065
 Frc consts  --      0.0163                 0.0447                 0.1720
 IR Inten    --      4.4016                 2.9889                 4.8824

                      7                      8                      9
                      A                      A                      A
 Frequencies --    310.6033               393.6893               487.9060
 Red. masses --      4.4817                 3.3700                 2.9121
 Frc consts  --      0.2547                 0.3077                 0.4084
 IR Inten    --      0.8485                 2.9211                17.6636

                     10                     11                     12
                      A                      A                      A
 Frequencies --    578.7013               630.5383               743.0646
 Red. masses --      2.5045                 3.4793                 1.2813
 Frc consts  --      0.4942                 0.8150                 0.4168
 IR Inten    --      1.6116                 1.7569                 0.8759

                     13                     14                     15
                      A                      A                      A
 Frequencies --    758.2027               783.4578               851.8430
 Red. masses --      1.7856                 2.9948                 1.5620
 Frc consts  --      0.6048                 1.0831                 0.6678
 IR Inten    --     16.3006                 8.9351                 1.5238

                     16                     17                     18
                      A                      A                      A
 Frequencies --    880.9038               926.1863               972.3004
 Red. masses --      2.3491                 2.5973                 1.5597
 Frc consts  --      1.0740                 1.3127                 0.8687
 IR Inten    --      8.9536                 3.4744                 2.4635

                     19                     20                     21
                      A                      A                      A
 Frequencies --    989.9707              1026.3927              1033.0656
 Red. masses --      1.8718                 2.4546                 2.5389
 Frc consts  --      1.0808                 1.5235                 1.5965
 IR Inten    --     15.7600                25.8252                38.2816

                     22                     23                     24
                      A                      A                      A
 Frequencies --   1077.0346              1090.7540              1116.3554
 Red. masses --      2.2709                 2.5875                 1.7929
 Frc consts  --      1.5521                 1.8138                 1.3165
 IR Inten    --     10.6379                 1.3494                 3.7667

                     25                     26                     27
                      A                      A                      A
 Frequencies --   1128.6983              1159.1600              1181.3684
 Red. masses --      1.3787                 2.6715                 1.6369
 Frc consts  --      1.0348                 2.1149                 1.3460
 IR Inten    --     23.9700               153.0989                57.7775

                     28                     29                     30
                      A                      A                      A
 Frequencies --   1228.4260              1237.8173              1288.1942
 Red. masses --      1.3266                 1.1174                 1.2588
 Frc consts  --      1.1795                 1.0088                 1.2308
 IR Inten    --      0.6984                 2.6782                 0.9478

                     31                     32                     33
                      A                      A                      A
 Frequencies --   1307.4018              1330.2644              1342.7366
 Red. masses --      1.3058                 1.4684                 1.3559
 Frc consts  --      1.3151                 1.5309                 1.4403
 IR Inten    --      4.3600                19.1543                23.8672

                     34                     35                     36
                      A                      A                      A
 Frequencies --   1366.9992              1393.9111              1416.3315
 Red. masses --      1.4011                 1.3987                 1.4132
 Frc consts  --      1.5426                 1.6012                 1.6703
 IR Inten    --      1.8294                36.1950                12.3172

                     37                     38                     39
                      A                      A                      A
 Frequencies --   1479.7261              1484.3930              1498.1583
 Red. masses --      1.0825                 1.0986                 1.0981
 Frc consts  --      1.3965                 1.4262                 1.4521
 IR Inten    --      1.0958                12.2814                 1.4377

                     40                     41                     42
                      A                      A                      A
 Frequencies --   1691.9631              1844.4095              2898.9414
 Red. masses --      6.3961                10.6698                 1.0845
 Frc consts  --     10.7882                21.3855                 5.3696
 IR Inten    --      3.1386               173.0975                80.8096

                     43                     44                     45
                      A                      A                      A
 Frequencies --   2932.2703              2951.7578              2999.4103
 Red. masses --      1.0811                 1.0630                 1.0936
 Frc consts  --      5.4769                 5.4567                 5.7966
 IR Inten    --     48.7162                43.7443                23.1075

                     46                     47                     48
                      A                      A                      A
 Frequencies --   3017.9602              3051.4080              3061.9481
 Red. masses --      1.0663                 1.0807                 1.0750
 Frc consts  --      5.7224                 5.9287                 5.9385
 IR Inten    --     37.3117                15.2165                30.8795

                     49                     50                     51
                      A                      A                      A
 Frequencies --   3109.0916              3187.2592              3216.1795
 Red. masses --      1.1044                 1.0859                 1.1035
 Frc consts  --      6.2899                 6.4996                 6.7251
 IR Inten    --     25.8922                 8.0261                14.1462

 - Thermochemistry -
 -------------------
 Temperature   298.150 Kelvin.  Pressure   1.00000 Atm.
 Atom     1 has atomic number  8 and mass  15.99491

 Molecular mass:   126.06808 amu.
 Principal axes and moments of inertia in atomic units:
                           1         2         3
     Eigenvalues --   319.248482574.048342780.13163
           X            0.99997   0.00746  -0.00370
           Y           -0.00743   0.99993   0.00965
           Z            0.00377  -0.00963   0.99995
 This molecule is an asymmetric top.
 Rotational symmetry number  1.
 Rotational temperatures (Kelvin)      0.27131     0.03365     0.03115
 Rotational constants (GHZ):           5.65309     0.70113     0.64916
 Zero-point vibrational energy     413892.8 (Joules/Mol)
                                   98.92276 (Kcal/Mol)
 Warning -- explicit consideration of  10 degrees of freedom as
           vibrations may cause significant error
 Vibrational temperatures:     65.48    86.43   111.81   153.83   220.13
          (Kelvin)            427.49   446.89   566.43   701.99   832.62
                              907.20  1069.10  1090.88  1127.22  1225.61
                             1267.42  1332.57  1398.92  1424.35  1476.75
                             1486.35  1549.61  1569.35  1606.18  1623.94
                             1667.77  1699.72  1767.43  1780.94  1853.42
                             1881.06  1913.95  1931.90  1966.80  2005.52
                             2037.78  2128.99  2135.71  2155.51  2434.35
                             2653.69  4170.92  4218.88  4246.92  4315.48
                             4342.17  4390.29  4405.45  4473.28  4585.75
                             4627.36

 Zero-point correction=                           0.157643 (Hartree/Particle)
 Thermal correction to Energy=                    0.166805
 Thermal correction to Enthalpy=                  0.167749
 Thermal correction to Gibbs Free Energy=         0.121901
 Sum of electronic and zero-point Energies=           -423.032770
 Sum of electronic and thermal Energies=              -423.023608
 Sum of electronic and thermal Enthalpies=            -423.022664
 Sum of electronic and thermal Free Energies=         -423.068512

                     E (Thermal)             CV                S
                      KCal/Mol        Cal/Mol-Kelvin    Cal/Mol-Kelvin
 Total                  104.672             32.171             96.497
 Electronic               0.000              0.000              0.000
 Translational            0.889              2.981             40.409
 Rotational               0.889              2.981             29.215
 Vibrational            102.894             26.210             26.874
 Vibration     1          0.595              1.979              5.004
 Vibration     2          0.597              1.973              4.455
 Vibration     3          0.599              1.964              3.948
 Vibration     4          0.606              1.944              3.324
 Vibration     5          0.619              1.899              2.635
 Vibration     6          0.691              1.679              1.433
 Vibration     7          0.699              1.654              1.359
 Vibration     8          0.761              1.484              0.986
 Vibration     9          0.844              1.277              0.689
 Vibration    10          0.935              1.077              0.488

 Optimization completed.
    -- Stationary point found.
 Normal termination of Gaussian 09 at Mon Jan 27 15:35:57 2020.
