 Gaussian 09, Revision D.01,
 Gaussian 09:  ES64L-G09RevD.01 24-Apr-2013

 -----------------------------
 # b3lyp 6-31G(2df,p) opt Freq
 -----------------------------

 -----
 titel
 -----
 Symbolic Z-matrix:
 Charge =  0 Multiplicity = 1

 SCF Done:  E(RB3LYP) =  -423.068360257     A.U. after   14 cycles
 Optimization completed.
    -- Stationary point found.
 Normal termination of Gaussian 09 at Tue Jan 28 14:10:51 2020.

 ----------------------------------------------------------------------
 #N Geom=AllCheck Guess=TCheck SCRF=Check GenChk RB3LYP/6-31G(2df,p) Fr
 eq
 ----------------------------------------------------------------------

 Structure from the checkpoint file:  "/scratch/puck/g09_2b7910c1-22e3-4fd7-b746-73a07d298bf1/Gau-144536.chk"
 -----
 titel
 -----
 Charge =  0 Multiplicity = 1

                         Standard orientation:
 ---------------------------------------------------------------------
 Center     Atomic      Atomic             Coordinates (Angstroms)
 Number     Number       Type             X           Y           Z
 ---------------------------------------------------------------------
      1          6           0        3.538933   -0.377068   -0.081283
      2          8           0        2.287756   -0.075408    0.486957
      3          6           0        1.347120    0.384390   -0.460848
      4          6           0        0.056140    0.697934    0.266727
      5          6           0       -1.238161    0.865005   -0.563097
      6          6           0       -1.472117   -0.678656   -0.658501
      7          8           0       -2.844876   -0.624962   -0.170795
      8          6           0       -2.127200    0.367551    0.619561
      9          6           0       -0.822828   -0.477964    0.750550
     10          1           0        3.994238    0.504425   -0.560666
     11          1           0        4.192740   -0.716610    0.725794
     12          1           0        3.464563   -1.175371   -0.837208
     13          1           0        1.727962    1.285899   -0.972886
     14          1           0        1.182081   -0.380398   -1.240409
     15          1           0        0.228077    1.475807    1.018476
     16          1           0       -1.504810    1.614356   -1.308827
     17          1           0       -1.234613   -1.382244   -1.455091
     18          1           0       -2.670750    0.938449    1.371782
     19          1           0       -0.613845   -1.248513    1.491085
 ---------------------------------------------------------------------

 SCF Done:  E(RB3LYP) =  -423.068360257     A.U. after    1 cycles

 The electronic state is 1-A.
 Alpha  occ. eigenvalues --  -19.14128 -19.12717 -10.24856 -10.24828 -10.22926
 Alpha  occ. eigenvalues --  -10.22558 -10.20364 -10.20037 -10.19637  -1.06072
 Alpha  occ. eigenvalues --   -1.03431  -0.87066  -0.74092  -0.66205  -0.65532
 Alpha  occ. eigenvalues --   -0.64486  -0.59877  -0.52767  -0.50847  -0.49259
 Alpha  occ. eigenvalues --   -0.48292  -0.46845  -0.44626  -0.41835  -0.41343
 Alpha  occ. eigenvalues --   -0.39004  -0.36975  -0.32821  -0.31947  -0.31210
 Alpha  occ. eigenvalues --   -0.30472  -0.30014  -0.25740  -0.23198
 Alpha virt. eigenvalues --    0.07636   0.08575   0.10561   0.11577   0.12174
 Alpha virt. eigenvalues --    0.12682   0.13791   0.14782   0.15498   0.15948
 Alpha virt. eigenvalues --    0.17139   0.17446   0.18046   0.19816   0.19932

 Mulliken charges:
               1
     1  C   -0.224789
     2  O   -0.232803
     3  C   -0.081039
     4  C   -0.046449
     5  C   -0.114755
     6  C    0.086063
     7  O   -0.328735
     8  C    0.084078
     9  C   -0.085576
    10  H    0.103061
    11  H    0.127573
    12  H    0.102843
    13  H    0.084737
    14  H    0.081302
    15  H    0.078338
    16  H    0.082882
    17  H    0.097293
    18  H    0.096804
    19  H    0.089173
 Sum of Mulliken charges =   0.00000

 Dipole moment (field-independent basis, Debye):
    X=              1.9632    Y=              0.8413    Z=             -0.6884  Tot=              2.2441
 Quadrupole moment (field-independent basis, Debye-Ang):
   XX=            -57.7309   YY=            -52.0649   ZZ=            -51.8356
   XY=             -3.9152   XZ=             -3.5454   YZ=              0.6483

  Exact polarizability:  90.798  -1.377  68.925  -0.841   0.471  68.238
 Approx polarizability: 114.808   0.262 106.455   0.116   1.708 107.516

                      1                      2                      3
                      A                      A                      A
 Frequencies --     66.5631                93.7205               131.3091
 Red. masses --      3.4964                 2.2417                 3.4129
 Frc consts  --      0.0091                 0.0116                 0.0347
 IR Inten    --      0.2604                 3.8928                 1.0891

                      4                      5                      6
                      A                      A                      A
 Frequencies --    213.9542               252.6824               342.7880
 Red. masses --      1.7414                 1.7119                 3.1657
 Frc consts  --      0.0470                 0.0644                 0.2192
 IR Inten    --      2.1101                 1.1860                 2.3814

                      7                      8                      9
                      A                      A                      A
 Frequencies --    371.3664               547.9002               580.7270
 Red. masses --      5.5501                 3.8831                 2.7400
 Frc consts  --      0.4510                 0.6868                 0.5444
 IR Inten    --      1.9903                 1.4705                 1.3171

                     10                     11                     12
                      A                      A                      A
 Frequencies --    747.8015               764.2243               797.9443
 Red. masses --      3.5981                 3.5204                 2.8516
 Frc consts  --      1.1855                 1.2114                 1.0698
 IR Inten    --      0.3614                 2.2692                10.7678

                     13                     14                     15
                      A                      A                      A
 Frequencies --    828.2164               846.3328               882.2809
 Red. masses --      1.8777                 1.9319                 3.4863
 Frc consts  --      0.7589                 0.8153                 1.5989
 IR Inten    --      2.6969                10.2395                11.8446

                     16                     17                     18
                      A                      A                      A
 Frequencies --    900.3289               934.0668               966.9188
 Red. masses --      2.6341                 2.2877                 1.3598
 Frc consts  --      1.2580                 1.1760                 0.7490
 IR Inten    --     32.8564                23.1526                 4.5768

                     19                     20                     21
                      A                      A                      A
 Frequencies --   1005.0229              1029.9006              1049.3607
 Red. masses --      2.8368                 4.2448                 1.5411
 Frc consts  --      1.6882                 2.6528                 0.9998
 IR Inten    --     13.9210                 3.7009                 1.3979

                     22                     23                     24
                      A                      A                      A
 Frequencies --   1108.0474              1110.1072              1133.2954
 Red. masses --      1.7294                 1.7663                 1.6406
 Frc consts  --      1.2510                 1.2825                 1.2415
 IR Inten    --      7.1878                 5.0560                 6.7612

                     25                     26                     27
                      A                      A                      A
 Frequencies --   1152.3619              1162.2450              1170.0795
 Red. masses --      3.4057                 2.8844                 1.7231
 Frc consts  --      2.6646                 2.2957                 1.3899
 IR Inten    --     39.1713                86.1923                21.5928

                     28                     29                     30
                      A                      A                      A
 Frequencies --   1172.3150              1183.9163              1187.7693
 Red. masses --      1.5212                 1.6552                 1.4547
 Frc consts  --      1.2318                 1.3669                 1.2091
 IR Inten    --      0.4391                17.5145                 3.8592

                     31                     32                     33
                      A                      A                      A
 Frequencies --   1218.9104              1240.3826              1267.2866
 Red. masses --      1.6390                 1.6786                 1.2368
 Frc consts  --      1.4347                 1.5217                 1.1703
 IR Inten    --     34.4772                21.2221                 3.9678

                     34                     35                     36
                      A                      A                      A
 Frequencies --   1279.9142              1336.5122              1381.2028
 Red. masses --      1.6319                 1.8460                 1.3892
 Frc consts  --      1.5751                 1.9428                 1.5615
 IR Inten    --     12.6043                11.0001                16.5456

                     37                     38                     39
                      A                      A                      A
 Frequencies --   1436.4535              1481.4328              1485.6662
 Red. masses --      1.4953                 1.1649                 1.0570
 Frc consts  --      1.8178                 1.5063                 1.3745
 IR Inten    --     18.1435                 1.1083                 4.5732

                     40                     41                     42
                      A                      A                      A
 Frequencies --   1502.4653              1524.8479              2940.3086
 Red. masses --      1.0658                 1.0893                 1.0530
 Frc consts  --      1.4176                 1.4923                 5.3637
 IR Inten    --     10.0827                 1.1078                34.8843

                     43                     44                     45
                      A                      A                      A
 Frequencies --   2965.7367              2968.6226              3010.1909
 Red. masses --      1.1041                 1.0383                 1.1030
 Frc consts  --      5.7217                 5.3911                 5.8885
 IR Inten    --     56.2258                73.8111                57.2695

                     46                     47                     48
                      A                      A                      A
 Frequencies --   3054.6487              3113.1065              3113.2704
 Red. masses --      1.0847                 1.0884                 1.0951
 Frc consts  --      5.9633                 6.2146                 6.2538
 IR Inten    --     41.5367                33.0762                19.6179

                     49                     50                     51
                      A                      A                      A
 Frequencies --   3124.1803              3127.4421              3142.5531
 Red. masses --      1.0905                 1.0908                 1.1011
 Frc consts  --      6.2709                 6.2863                 6.4066
 IR Inten    --     73.3487                44.5146                 6.7574

 - Thermochemistry -
 -------------------
 Temperature   298.150 Kelvin.  Pressure   1.00000 Atm.
 Atom     1 has atomic number  6 and mass  12.00000

 Molecular mass:   126.06808 amu.
 Principal axes and moments of inertia in atomic units:
                           1         2         3
     Eigenvalues --   317.032932122.935332146.33115
           X            0.99988  -0.00999  -0.01193
           Y            0.01048   0.99906   0.04217
           Z            0.01150  -0.04229   0.99904
 This molecule is an asymmetric top.
 Rotational symmetry number  1.
 Rotational temperatures (Kelvin)      0.27320     0.04080     0.04035
 Rotational constants (GHZ):           5.69260     0.85012     0.84085
 Zero-point vibrational energy     415395.4 (Joules/Mol)
                                   99.28187 (Kcal/Mol)
 Warning -- explicit consideration of   9 degrees of freedom as
           vibrations may cause significant error
 Vibrational temperatures:     95.77   134.84   188.92   307.83   363.55
          (Kelvin)            493.19   534.31   788.31   835.54  1075.92
                             1099.55  1148.06  1191.62  1217.68  1269.40
                             1295.37  1343.91  1391.18  1446.00  1481.80
                             1509.79  1594.23  1597.19  1630.56  1657.99
                             1672.21  1683.48  1686.70  1703.39  1708.93
                             1753.74  1784.63  1823.34  1841.51  1922.94
                             1987.24  2066.73  2131.45  2137.54  2161.71
                             2193.91  4230.44  4267.03  4271.18  4330.99
                             4394.95  4479.06  4479.30  4494.99  4499.69
                             4521.43

 Zero-point correction=                           0.158216 (Hartree/Particle)
 Thermal correction to Energy=                    0.166345
 Thermal correction to Enthalpy=                  0.167289
 Thermal correction to Gibbs Free Energy=         0.124775
 Sum of electronic and zero-point Energies=           -422.910145
 Sum of electronic and thermal Energies=              -422.902015
 Sum of electronic and thermal Enthalpies=            -422.901071
 Sum of electronic and thermal Free Energies=         -422.943585

                     E (Thermal)             CV                S
                      KCal/Mol        Cal/Mol-Kelvin    Cal/Mol-Kelvin
 Total                  104.383             30.431             89.478
 Electronic               0.000              0.000              0.000
 Translational            0.889              2.981             40.409
 Rotational               0.889              2.981             28.759
 Vibrational            102.606             24.469             20.311
 Vibration     1          0.598              1.970              4.253
 Vibration     2          0.603              1.954              3.581
 Vibration     3          0.612              1.922              2.927
 Vibration     4          0.644              1.820              2.010
 Vibration     5          0.664              1.758              1.712
 Vibration     6          0.722              1.590              1.199
 Vibration     7          0.743              1.531              1.074
 Vibration     8          0.903              1.144              0.549
 Vibration     9          0.937              1.073              0.484

 Optimization completed.
    -- Stationary point found.
 Normal termination of Gaussian 09 at Tue Jan 28 14:55:05 2020.
