 Gaussian 09, Revision D.01,
 Gaussian 09:  ES64L-G09RevD.01 24-Apr-2013

 -----------------------------
 # b3lyp 6-31G(2df,p) opt Freq
 -----------------------------

 -----
 titel
 -----
 Symbolic Z-matrix:
 Charge =  0 Multiplicity = 1

 SCF Done:  E(RB3LYP) =  -423.223135676     A.U. after   14 cycles
 Optimization completed.
    -- Stationary point found.
 Normal termination of Gaussian 09 at Mon Jan 27 13:08:26 2020.

 ----------------------------------------------------------------------
 #N Geom=AllCheck Guess=TCheck SCRF=Check GenChk RB3LYP/6-31G(2df,p) Fr
 eq
 ----------------------------------------------------------------------

 Structure from the checkpoint file:  "/scratch/puck/g09_4f3fcd66-6838-4dfe-9b99-cb601f3a2ec9/Gau-28418.chk"
 -----
 titel
 -----
 Charge =  0 Multiplicity = 1

                         Standard orientation:
 ---------------------------------------------------------------------
 Center     Atomic      Atomic             Coordinates (Angstroms)
 Number     Number       Type             X           Y           Z
 ---------------------------------------------------------------------
      1          8           0        2.501072   -0.879381   -0.199249
      2          6           0        1.465452   -0.290639   -0.038722
      3          6           0        1.234071    0.960218    0.804332
      4          6           0        0.152876    1.736938    0.025490
      5          6           0       -0.644603    0.692578   -0.828701
      6          6           0       -2.039783    0.344166   -0.278968
      7          6           0       -1.715051   -0.716033    0.772948
      8          8           0       -0.616361   -1.453702    0.241621
      9          6           0        0.117073   -0.644224   -0.691522
     10          1           0        0.863356    0.638355    1.786011
     11          1           0        2.164261    1.507088    0.966821
     12          1           0       -0.510226    2.302334    0.685865
     13          1           0        0.630178    2.462967   -0.638856
     14          1           0       -0.701593    1.021165   -1.867813
     15          1           0       -2.566632    1.210095    0.130704
     16          1           0       -2.659444   -0.089595   -1.070147
     17          1           0       -1.442361   -0.251742    1.733953
     18          1           0       -2.530772   -1.420576    0.960053
     19          1           0        0.255339   -1.213448   -1.614712
 ---------------------------------------------------------------------

 SCF Done:  E(RB3LYP) =  -423.223135676     A.U. after    1 cycles

 The electronic state is 1-A.
 Alpha  occ. eigenvalues --  -19.14695 -19.13128 -10.26291 -10.23480 -10.23285
 Alpha  occ. eigenvalues --  -10.20239 -10.19748 -10.19469 -10.19216  -1.04804
 Alpha  occ. eigenvalues --   -1.03281  -0.83504  -0.77438  -0.73036  -0.67007
 Alpha  occ. eigenvalues --   -0.61226  -0.57690  -0.53454  -0.51743  -0.48764
 Alpha  occ. eigenvalues --   -0.45883  -0.45300  -0.43875  -0.42418  -0.39858
 Alpha  occ. eigenvalues --   -0.38728  -0.38173  -0.36274  -0.35828  -0.33847
 Alpha  occ. eigenvalues --   -0.33105  -0.31956  -0.27597  -0.22815
 Alpha virt. eigenvalues --   -0.02039   0.06495   0.08558   0.12267   0.12979
 Alpha virt. eigenvalues --    0.13043   0.14462   0.15405   0.15913   0.16986
 Alpha virt. eigenvalues --    0.17241   0.18151   0.19827   0.20513   0.22067

 Mulliken charges:
               1
     1  O   -0.308300
     2  C    0.402167
     3  C   -0.324862
     4  C   -0.233421
     5  C   -0.052062
     6  C   -0.231942
     7  C   -0.074902
     8  O   -0.273691
     9  C    0.018386
    10  H    0.136213
    11  H    0.124726
    12  H    0.105022
    13  H    0.114228
    14  H    0.084757
    15  H    0.104891
    16  H    0.111060
    17  H    0.092484
    18  H    0.114423
    19  H    0.090822
 Sum of Mulliken charges =   0.00000

 Dipole moment (field-independent basis, Debye):
    X=             -2.9045    Y=              2.7853    Z=              0.0042  Tot=              4.0241
 Quadrupole moment (field-independent basis, Debye-Ang):
   XX=            -57.9542   YY=            -55.8664   ZZ=            -50.4283
   XY=              3.9355   XZ=              0.3734   YZ=              0.3317

  Exact polarizability:  84.795  -0.161  71.135  -1.318   2.396  66.632
 Approx polarizability: 119.251  -5.217 105.629  -5.343   3.686 101.294

                      1                      2                      3
                      A                      A                      A
 Frequencies --     50.2826               119.1218               179.0931
 Red. masses --      3.7920                 2.6486                 2.3337
 Frc consts  --      0.0056                 0.0221                 0.0441
 IR Inten    --      0.8619                 2.3091                 0.0722

                      4                      5                      6
                      A                      A                      A
 Frequencies --    222.5200               357.0098               430.6494
 Red. masses --      4.4899                 2.3818                 3.9610
 Frc consts  --      0.1310                 0.1789                 0.4328
 IR Inten    --      5.8939                 2.4661                 2.4236

                      7                      8                      9
                      A                      A                      A
 Frequencies --    516.6110               537.2686               645.2355
 Red. masses --      2.4846                 3.4738                 2.4174
 Frc consts  --      0.3907                 0.5908                 0.5930
 IR Inten    --      5.4556                 4.1249                 1.9003

                     10                     11                     12
                      A                      A                      A
 Frequencies --    679.3585               736.6101               783.1636
 Red. masses --      4.6060                 1.9326                 4.5050
 Frc consts  --      1.2525                 0.6178                 1.6280
 IR Inten    --      3.9039                 3.5993                 4.1059

                     13                     14                     15
                      A                      A                      A
 Frequencies --    819.4451               872.5956               888.6442
 Red. masses --      4.4022                 1.9125                 2.0922
 Frc consts  --      1.7417                 0.8580                 0.9734
 IR Inten    --      6.6845                 2.3762                 4.8843

                     16                     17                     18
                      A                      A                      A
 Frequencies --    919.1166               927.7020               958.0258
 Red. masses --      1.9733                 3.4081                 2.3183
 Frc consts  --      0.9822                 1.7281                 1.2537
 IR Inten    --      7.6535                16.8784                 3.5783

                     19                     20                     21
                      A                      A                      A
 Frequencies --    982.2084              1013.4501              1061.6641
 Red. masses --      1.9022                 1.8901                 1.9277
 Frc consts  --      1.0812                 1.1438                 1.2802
 IR Inten    --      0.3512                 3.9096                 1.8619

                     22                     23                     24
                      A                      A                      A
 Frequencies --   1078.9208              1113.1969              1159.5486
 Red. masses --      3.1774                 2.5224                 1.3624
 Frc consts  --      2.1792                 1.8417                 1.0793
 IR Inten    --     61.4260                26.5579                 4.1883

                     25                     26                     27
                      A                      A                      A
 Frequencies --   1172.4991              1201.9781              1214.8066
 Red. masses --      2.9673                 1.4704                 1.4588
 Frc consts  --      2.4034                 1.2516                 1.2684
 IR Inten    --     30.8255                 7.1419                 3.9168

                     28                     29                     30
                      A                      A                      A
 Frequencies --   1225.4916              1256.8255              1283.1301
 Red. masses --      1.2947                 1.6081                 1.2998
 Frc consts  --      1.1456                 1.4966                 1.2609
 IR Inten    --      3.1932                 4.6832                 3.9720

                     31                     32                     33
                      A                      A                      A
 Frequencies --   1301.7620              1311.3627              1329.7441
 Red. masses --      1.3332                 1.3751                 1.2928
 Frc consts  --      1.3311                 1.3932                 1.3469
 IR Inten    --      0.9634                 0.6721                 1.7631

                     34                     35                     36
                      A                      A                      A
 Frequencies --   1344.7309              1354.0389              1387.3897
 Red. masses --      1.3750                 1.4465                 1.3299
 Frc consts  --      1.4649                 1.5625                 1.5082
 IR Inten    --      3.4658                 0.7915                 5.4339

                     37                     38                     39
                      A                      A                      A
 Frequencies --   1458.7418              1489.0843              1499.5425
 Red. masses --      1.0839                 1.0985                 1.0874
 Frc consts  --      1.3589                 1.4352                 1.4406
 IR Inten    --      8.7579                 3.7542                 3.6011

                     40                     41                     42
                      A                      A                      A
 Frequencies --   1523.4853              1854.8275              2974.1748
 Red. masses --      1.0912                12.2097                 1.0721
 Frc consts  --      1.4922                24.7493                 5.5876
 IR Inten    --      1.3199               218.0351                58.2900

                     43                     44                     45
                      A                      A                      A
 Frequencies --   3037.5059              3052.4541              3055.3314
 Red. masses --      1.0678                 1.0623                 1.0612
 Frc consts  --      5.8044                 5.8319                 5.8365
 IR Inten    --      7.5389                17.3999                23.7514

                     46                     47                     48
                      A                      A                      A
 Frequencies --   3073.3209              3080.8923              3090.3583
 Red. masses --      1.0870                 1.0906                 1.0953
 Frc consts  --      6.0493                 6.0989                 6.1632
 IR Inten    --     28.5065                36.9094                12.6422

                     49                     50                     51
                      A                      A                      A
 Frequencies --   3099.0905              3106.8673              3122.8945
 Red. masses --      1.0964                 1.1033                 1.0967
 Frc consts  --      6.2040                 6.2744                 6.3015
 IR Inten    --     22.0285                38.9968                15.1892

 - Thermochemistry -
 -------------------
 Temperature   298.150 Kelvin.  Pressure   1.00000 Atm.
 Atom     1 has atomic number  8 and mass  15.99491

 Molecular mass:   126.06808 amu.
 Principal axes and moments of inertia in atomic units:
                           1         2         3
     Eigenvalues --   644.105001133.319471436.57091
           X            0.99958   0.02837   0.00607
           Y           -0.02845   0.99950   0.01381
           Z           -0.00567  -0.01398   0.99989
 This molecule is an asymmetric top.
 Rotational symmetry number  1.
 Warning -- assumption of classical behavior for rotation
           may cause significant error
 Rotational temperatures (Kelvin)      0.13447     0.07642     0.06029
 Rotational constants (GHZ):           2.80194     1.59244     1.25628
 Zero-point vibrational energy     424397.8 (Joules/Mol)
                                  101.43351 (Kcal/Mol)
 Warning -- explicit consideration of   8 degrees of freedom as
           vibrations may cause significant error
 Vibrational temperatures:     72.35   171.39   257.67   320.16   513.66
          (Kelvin)            619.61   743.29   773.01   928.35   977.44
                             1059.82  1126.80  1179.00  1255.47  1278.56
                             1322.40  1334.75  1378.38  1413.18  1458.13
                             1527.50  1552.32  1601.64  1668.33  1686.96
                             1729.38  1747.83  1763.21  1808.29  1846.14
                             1872.94  1886.76  1913.20  1934.77  1948.16
                             1996.14  2098.80  2142.46  2157.50  2191.95
                             2668.68  4279.17  4370.29  4391.80  4395.93
                             4421.82  4432.71  4446.33  4458.89  4470.08
                             4493.14

 Zero-point correction=                           0.161645 (Hartree/Particle)
 Thermal correction to Energy=                    0.169291
 Thermal correction to Enthalpy=                  0.170235
 Thermal correction to Gibbs Free Energy=         0.128833
 Sum of electronic and zero-point Energies=           -423.061491
 Sum of electronic and thermal Energies=              -423.053844
 Sum of electronic and thermal Enthalpies=            -423.052900
 Sum of electronic and thermal Free Energies=         -423.094302

                     E (Thermal)             CV                S
                      KCal/Mol        Cal/Mol-Kelvin    Cal/Mol-Kelvin
 Total                  106.232             29.305             87.138
 Electronic               0.000              0.000              0.000
 Translational            0.889              2.981             40.409
 Rotational               0.889              2.981             28.441
 Vibrational            104.454             23.343             18.289
 Vibration     1          0.595              1.977              4.806
 Vibration     2          0.609              1.933              3.115
 Vibration     3          0.629              1.868              2.338
 Vibration     4          0.648              1.807              1.938
 Vibration     5          0.732              1.561              1.135
 Vibration     6          0.792              1.403              0.857
 Vibration     7          0.872              1.213              0.618
 Vibration     8          0.892              1.168              0.571

 Optimization completed.
    -- Stationary point found.
 Normal termination of Gaussian 09 at Mon Jan 27 13:57:53 2020.
