 Gaussian 09, Revision D.01,
 Gaussian 09:  ES64L-G09RevD.01 24-Apr-2013

 -----------------------------
 # b3lyp 6-31G(2df,p) opt Freq
 -----------------------------

 -----
 titel
 -----
 Symbolic Z-matrix:
 Charge =  0 Multiplicity = 1

 SCF Done:  E(RB3LYP) =  -423.122945362     A.U. after   14 cycles
 Optimization completed.
    -- Stationary point found.
 Normal termination of Gaussian 09 at Mon Jan 27 11:30:56 2020.

 ----------------------------------------------------------------------
 #N Geom=AllCheck Guess=TCheck SCRF=Check GenChk RB3LYP/6-31G(2df,p) Fr
 eq
 ----------------------------------------------------------------------

 Structure from the checkpoint file:  "/scratch/puck/g09_3e5fde06-a3c5-43f2-bd56-29a46f93a941/Gau-60969.chk"
 -----
 titel
 -----
 Charge =  0 Multiplicity = 1

                         Standard orientation:
 ---------------------------------------------------------------------
 Center     Atomic      Atomic             Coordinates (Angstroms)
 Number     Number       Type             X           Y           Z
 ---------------------------------------------------------------------
      1          6           0       -0.365443   -0.977171    1.165280
      2          6           0        0.661719   -1.407095    0.083970
      3          6           0       -0.519925   -1.387252   -0.962645
      4          6           0       -1.055133   -0.307772   -0.009274
      5          8           0       -2.085058    0.657607    0.080950
      6          6           0       -0.778103    1.066369   -0.390001
      7          6           0        0.404378    1.693176    0.310578
      8          8           0        1.506540    1.025570   -0.321806
      9          6           0        1.790876   -0.349260   -0.033684
     10          1           0       -0.950638   -1.824949    1.534348
     11          1           0       -0.019185   -0.381620    2.011924
     12          1           0        1.147294   -2.377451    0.222028
     13          1           0       -0.310200   -1.091600   -1.992022
     14          1           0       -1.055285   -2.341423   -0.941305
     15          1           0       -0.779490    1.288418   -1.456835
     16          1           0        0.546796    2.752982    0.083849
     17          1           0        0.389975    1.568758    1.399493
     18          1           0        2.478826   -0.639433   -0.834792
     19          1           0        2.349836   -0.405076    0.914814
 ---------------------------------------------------------------------

 SCF Done:  E(RB3LYP) =  -423.122945362     A.U. after    1 cycles

 The electronic state is 1-A.
 Alpha  occ. eigenvalues --  -19.15619 -19.14575 -10.23826 -10.23754 -10.23690
 Alpha  occ. eigenvalues --  -10.22671 -10.20742 -10.19539 -10.18755  -1.07126
 Alpha  occ. eigenvalues --   -1.02703  -0.85887  -0.75938  -0.68602  -0.67673
 Alpha  occ. eigenvalues --   -0.63296  -0.56973  -0.54569  -0.50157  -0.49852
 Alpha  occ. eigenvalues --   -0.47882  -0.46901  -0.45001  -0.42711  -0.40239
 Alpha  occ. eigenvalues --   -0.38519  -0.38145  -0.35487  -0.33520  -0.32711
 Alpha  occ. eigenvalues --   -0.30235  -0.27355  -0.26774  -0.25767
 Alpha virt. eigenvalues --    0.07397   0.07921   0.10880   0.11133   0.12106
 Alpha virt. eigenvalues --    0.13430   0.14189   0.14350   0.15530   0.16129
 Alpha virt. eigenvalues --    0.17260   0.18453   0.19184   0.19376   0.22755

 Mulliken charges:
               1
     1  C   -0.292812
     2  C   -0.031727
     3  C   -0.315566
     4  C    0.410130
     5  O   -0.320253
     6  C    0.002354
     7  C   -0.144348
     8  O   -0.265706
     9  C   -0.069943
    10  H    0.101996
    11  H    0.100620
    12  H    0.078366
    13  H    0.109811
    14  H    0.104261
    15  H    0.101536
    16  H    0.111946
    17  H    0.107433
    18  H    0.114632
    19  H    0.097271
 Sum of Mulliken charges =   0.00000

 Dipole moment (field-independent basis, Debye):
    X=              1.3818    Y=             -1.3079    Z=              0.3207  Tot=              1.9295
 Quadrupole moment (field-independent basis, Debye-Ang):
   XX=            -60.0172   YY=            -50.2878   ZZ=            -51.7383
   XY=             -0.2550   XZ=              1.5196   YZ=              0.3894

  Exact polarizability:  73.410  -0.452  82.382   0.423  -0.283  68.370
 Approx polarizability: 112.013  -1.986 118.941  -2.933  -1.980 104.578

                      1                      2                      3
                      A                      A                      A
 Frequencies --    176.1759               270.9786               309.5873
 Red. masses --      2.8785                 2.8594                 3.4563
 Frc consts  --      0.0526                 0.1237                 0.1952
 IR Inten    --      3.4646                 5.9485                 1.9391

                      4                      5                      6
                      A                      A                      A
 Frequencies --    374.5863               402.1993               407.4625
 Red. masses --      2.4654                 3.6373                 3.3634
 Frc consts  --      0.2038                 0.3467                 0.3290
 IR Inten    --      2.4205                 0.8883                 4.4864

                      7                      8                      9
                      A                      A                      A
 Frequencies --    445.6999               514.4120               558.8022
 Red. masses --      3.9863                 2.3090                 3.2863
 Frc consts  --      0.4666                 0.3600                 0.6046
 IR Inten    --      2.9143                 0.2889                 7.9499

                     10                     11                     12
                      A                      A                      A
 Frequencies --    653.4114               737.3247               824.5081
 Red. masses --      3.5646                 3.4019                 2.9919
 Frc consts  --      0.8967                 1.0897                 1.1984
 IR Inten    --      8.2141                 3.8554                 3.0732

                     13                     14                     15
                      A                      A                      A
 Frequencies --    860.4119               874.4663               885.3287
 Red. masses --      3.0103                 3.0115                 3.1997
 Frc consts  --      1.3130                 1.3568                 1.4776
 IR Inten    --     12.6959                 9.4747                17.5589

                     16                     17                     18
                      A                      A                      A
 Frequencies --    897.0475               952.9329               979.2108
 Red. masses --      1.4697                 3.4928                 1.8426
 Frc consts  --      0.6968                 1.8688                 1.0410
 IR Inten    --      6.6820                24.7597                10.1267

                     19                     20                     21
                      A                      A                      A
 Frequencies --   1012.2889              1020.5904              1041.4619
 Red. masses --      1.3391                 2.3028                 2.4092
 Frc consts  --      0.8085                 1.4132                 1.5396
 IR Inten    --      0.1525                10.2429                62.5226

                     22                     23                     24
                      A                      A                      A
 Frequencies --   1077.3812              1104.0370              1119.1411
 Red. masses --      1.6437                 2.5834                 1.8914
 Frc consts  --      1.1241                 1.8553                 1.3957
 IR Inten    --      7.3408                 3.0272                11.8923

                     25                     26                     27
                      A                      A                      A
 Frequencies --   1135.5572              1141.3035              1172.1007
 Red. masses --      2.5711                 1.6306                 1.4643
 Frc consts  --      1.9534                 1.2514                 1.1853
 IR Inten    --     48.0586                 2.6688                 1.6330

                     28                     29                     30
                      A                      A                      A
 Frequencies --   1192.9301              1229.3001              1249.7698
 Red. masses --      1.6267                 1.2512                 1.5861
 Frc consts  --      1.3639                 1.1140                 1.4597
 IR Inten    --      1.9150                18.0241                10.3549

                     31                     32                     33
                      A                      A                      A
 Frequencies --   1260.4101              1321.6423              1334.7650
 Red. masses --      1.5845                 1.2893                 1.3790
 Frc consts  --      1.4831                 1.3269                 1.4476
 IR Inten    --      0.6342                 3.4654                 2.2537

                     34                     35                     36
                      A                      A                      A
 Frequencies --   1347.5091              1379.8095              1414.6040
 Red. masses --      1.2644                 1.3019                 1.2345
 Frc consts  --      1.3527                 1.4604                 1.4555
 IR Inten    --      4.8620                 5.4401                 5.5594

                     37                     38                     39
                      A                      A                      A
 Frequencies --   1480.2957              1490.7356              1497.9011
 Red. masses --      1.1026                 1.0939                 1.2550
 Frc consts  --      1.4235                 1.4323                 1.6591
 IR Inten    --      1.8515                 1.6354                 5.3493

                     40                     41                     42
                      A                      A                      A
 Frequencies --   1516.0311              1528.8151              2971.0132
 Red. masses --      2.0724                 1.3547                 1.0705
 Frc consts  --      2.8063                 1.8656                 5.5675
 IR Inten    --     20.3089                11.5658                56.7848

                     43                     44                     45
                      A                      A                      A
 Frequencies --   3036.1211              3053.9269              3057.2429
 Red. masses --      1.0618                 1.0598                 1.0649
 Frc consts  --      5.7666                 5.8234                 5.8642
 IR Inten    --     32.2570                40.0028                20.0504

                     46                     47                     48
                      A                      A                      A
 Frequencies --   3067.8530              3076.2654              3094.6285
 Red. masses --      1.0890                 1.0849                 1.0991
 Frc consts  --      6.0388                 6.0488                 6.2019
 IR Inten    --     27.5999                55.5004                25.7546

                     49                     50                     51
                      A                      A                      A
 Frequencies --   3114.0464              3118.3495              3125.8166
 Red. masses --      1.0989                 1.0980                 1.1055
 Frc consts  --      6.2788                 6.2908                 6.3639
 IR Inten    --     20.7594                23.6637                35.5759

 - Thermochemistry -
 -------------------
 Temperature   298.150 Kelvin.  Pressure   1.00000 Atm.
 Atom     1 has atomic number  6 and mass  12.00000

 Molecular mass:   126.06808 amu.
 Principal axes and moments of inertia in atomic units:
                           1         2         3
     Eigenvalues --   750.55576 865.945861264.61373
           X            0.99985   0.00857   0.01519
           Y           -0.00870   0.99992   0.00865
           Z           -0.01511  -0.00878   0.99985
 This molecule is an asymmetric top.
 Rotational symmetry number  1.
 Warning -- assumption of classical behavior for rotation
           may cause significant error
 Rotational temperatures (Kelvin)      0.11540     0.10002     0.06849
 Rotational constants (GHZ):           2.40454     2.08413     1.42711
 Zero-point vibrational energy     424125.2 (Joules/Mol)
                                  101.36835 (Kcal/Mol)
 Warning -- explicit consideration of   9 degrees of freedom as
           vibrations may cause significant error
 Vibrational temperatures:    253.48   389.88   445.43   538.95   578.67
          (Kelvin)            586.25   641.26   740.12   803.99   940.11
                             1060.84  1186.28  1237.94  1258.16  1273.79
                             1290.65  1371.06  1408.86  1456.46  1468.40
                             1498.43  1550.11  1588.46  1610.19  1633.81
                             1642.08  1686.39  1716.36  1768.69  1798.14
                             1813.45  1901.55  1920.43  1938.76  1985.24
                             2035.30  2129.81  2144.83  2155.14  2181.23
                             2199.62  4274.62  4368.30  4393.91  4398.69
                             4413.95  4426.05  4452.47  4480.41  4486.60
                             4497.35

 Zero-point correction=                           0.161541 (Hartree/Particle)
 Thermal correction to Energy=                    0.168433
 Thermal correction to Enthalpy=                  0.169378
 Thermal correction to Gibbs Free Energy=         0.130708
 Sum of electronic and zero-point Energies=           -422.961405
 Sum of electronic and thermal Energies=              -422.954512
 Sum of electronic and thermal Enthalpies=            -422.953568
 Sum of electronic and thermal Free Energies=         -422.992237

                     E (Thermal)             CV                S
                      KCal/Mol        Cal/Mol-Kelvin    Cal/Mol-Kelvin
 Total                  105.694             28.946             81.387
 Electronic               0.000              0.000              0.000
 Translational            0.889              2.981             40.409
 Rotational               0.889              2.981             28.199
 Vibrational            103.916             22.984             12.779
 Vibration     1          0.628              1.872              2.369
 Vibration     2          0.675              1.727              1.590
 Vibration     3          0.699              1.655              1.365
 Vibration     4          0.746              1.524              1.061
 Vibration     5          0.768              1.465              0.955
 Vibration     6          0.772              1.454              0.936
 Vibration     7          0.805              1.370              0.809
 Vibration     8          0.869              1.218              0.623
 Vibration     9          0.914              1.120              0.526

 Normal termination of Gaussian 09 at Mon Jan 27 13:57:21 2020.
