 Gaussian 09, Revision D.01,
 Gaussian 09:  ES64L-G09RevD.01 24-Apr-2013

 -----------------------------
 # b3lyp 6-31G(2df,p) opt Freq
 -----------------------------

 -----
 titel
 -----
 Symbolic Z-matrix:
 Charge =  0 Multiplicity = 1

 SCF Done:  E(RB3LYP) =  -423.096091537     A.U. after   14 cycles
 Optimization completed.
    -- Stationary point found.
 Normal termination of Gaussian 09 at Mon Jan 27 22:05:13 2020.

 ----------------------------------------------------------------------
 #N Geom=AllCheck Guess=TCheck SCRF=Check GenChk RB3LYP/6-31G(2df,p) Fr
 eq
 ----------------------------------------------------------------------

 Structure from the checkpoint file:  "/scratch/puck/g09_6fc7abc4-1bfe-47ac-9beb-062674d369cc/Gau-15121.chk"
 -----
 titel
 -----
 Charge =  0 Multiplicity = 1

                         Standard orientation:
 ---------------------------------------------------------------------
 Center     Atomic      Atomic             Coordinates (Angstroms)
 Number     Number       Type             X           Y           Z
 ---------------------------------------------------------------------
      1          6           0        0.417901    2.324815    0.351528
      2          6           0        0.210833    1.089385   -0.512262
      3          6           0       -0.925907    0.097482   -0.152055
      4          6           0       -2.412548    0.295164   -0.132980
      5          6           0       -0.063875   -0.610888    0.954961
      6          8           0       -0.304215   -1.951609    0.437100
      7          6           0       -0.160569   -1.126177   -0.754801
      8          6           0        0.964440   -0.212767   -0.142255
      9          8           0        2.317452   -0.438423   -0.041696
     10          1           0        1.402780    2.769018    0.172072
     11          1           0       -0.334179    3.091694    0.137246
     12          1           0        0.355436    2.084490    1.418388
     13          1           0        0.252211    1.341903   -1.580415
     14          1           0       -2.792335    0.556517   -1.126693
     15          1           0       -2.906458   -0.626859    0.190676
     16          1           0       -2.700316    1.096878    0.555612
     17          1           0       -0.038515   -0.466202    2.034246
     18          1           0       -0.249799   -1.592156   -1.736759
     19          1           0        2.723630   -0.277109   -0.900424
 ---------------------------------------------------------------------

 SCF Done:  E(RB3LYP) =  -423.096091537     A.U. after    1 cycles

 The electronic state is 1-A.
 Alpha  occ. eigenvalues --  -19.15427 -19.12522 -10.24510 -10.23917 -10.23755
 Alpha  occ. eigenvalues --  -10.20416 -10.19263 -10.18185 -10.17853  -1.06440
 Alpha  occ. eigenvalues --   -1.03069  -0.86621  -0.73531  -0.72757  -0.65569
 Alpha  occ. eigenvalues --   -0.60880  -0.60413  -0.52181  -0.51500  -0.47684
 Alpha  occ. eigenvalues --   -0.45718  -0.44717  -0.42302  -0.40189  -0.39715
 Alpha  occ. eigenvalues --   -0.38917  -0.38627  -0.36804  -0.35040  -0.30391
 Alpha  occ. eigenvalues --   -0.29937  -0.28825  -0.26697  -0.22513
 Alpha virt. eigenvalues --    0.07050   0.08794   0.10283   0.11220   0.11778
 Alpha virt. eigenvalues --    0.12894   0.14071   0.14665   0.15235   0.16158
 Alpha virt. eigenvalues --    0.17377   0.19206   0.19393   0.20373   0.22075

 Mulliken charges:
               1
     1  C   -0.415986
     2  C   -0.145842
     3  C    0.315220
     4  C   -0.526641
     5  C   -0.014943
     6  O   -0.330177
     7  C   -0.047141
     8  C    0.363346
     9  O   -0.463263
    10  H    0.120039
    11  H    0.117245
    12  H    0.117784
    13  H    0.059478
    14  H    0.120311
    15  H    0.137879
    16  H    0.122791
    17  H    0.095066
    18  H    0.087529
    19  H    0.287305
 Sum of Mulliken charges =   0.00000

 Dipole moment (field-independent basis, Debye):
    X=             -0.1699    Y=              2.2955    Z=             -1.7754  Tot=              2.9069
 Quadrupole moment (field-independent basis, Debye-Ang):
   XX=            -52.2427   YY=            -58.6717   ZZ=            -48.9868
   XY=              0.2645   XZ=             -3.7357   YZ=              2.4112

  Exact polarizability:  79.141   0.628  76.578  -0.916   1.080  69.453
 Approx polarizability: 110.175   0.516 110.435  -0.775  -0.716 111.141

                      1                      2                      3
                      A                      A                      A
 Frequencies --    173.5331               178.6772               190.7110
 Red. masses --      1.5269                 3.0720                 1.4155
 Frc consts  --      0.0271                 0.0578                 0.0303
 IR Inten    --      0.0779                 3.5732                 0.2313

                      4                      5                      6
                      A                      A                      A
 Frequencies --    208.7821               234.9394               253.0081
 Red. masses --      1.5758                 1.1522                 1.9157
 Frc consts  --      0.0405                 0.0375                 0.0723
 IR Inten    --     31.1733                 0.7278                53.8021

                      7                      8                      9
                      A                      A                      A
 Frequencies --    256.0721               323.7577               417.8486
 Red. masses --      2.2630                 5.3468                 2.6735
 Frc consts  --      0.0874                 0.3302                 0.2750
 IR Inten    --      3.6447                18.2128                 5.7323

                     10                     11                     12
                      A                      A                      A
 Frequencies --    531.3457               583.8780               596.2672
 Red. masses --      3.3326                 3.0454                 5.2434
 Frc consts  --      0.5544                 0.6117                 1.0984
 IR Inten    --      1.3540                 3.8855                 2.8568

                     13                     14                     15
                      A                      A                      A
 Frequencies --    722.4733               738.7161               741.0197
 Red. masses --      2.6811                 3.5312                 3.2308
 Frc consts  --      0.8245                 1.1354                 1.0452
 IR Inten    --      7.2871                 0.0679                 1.8495

                     16                     17                     18
                      A                      A                      A
 Frequencies --    826.0258               857.6002               905.9131
 Red. masses --      2.2020                 6.8787                 3.0299
 Frc consts  --      0.8852                 2.9808                 1.4651
 IR Inten    --      3.2620                16.9394                41.5562

                     19                     20                     21
                      A                      A                      A
 Frequencies --    921.5346               959.1896              1015.2035
 Red. masses --      2.1493                 3.0731                 1.4395
 Frc consts  --      1.0754                 1.6658                 0.8741
 IR Inten    --      9.2746                10.7205                 1.5898

                     22                     23                     24
                      A                      A                      A
 Frequencies --   1038.1559              1061.5840              1079.1634
 Red. masses --      1.3672                 1.6513                 1.7230
 Frc consts  --      0.8682                 1.0964                 1.1822
 IR Inten    --     18.4303                22.7669                 5.8640

                     25                     26                     27
                      A                      A                      A
 Frequencies --   1101.4511              1113.2418              1146.9558
 Red. masses --      2.2572                 3.1985                 1.9258
 Frc consts  --      1.6134                 2.3355                 1.4926
 IR Inten    --      2.5158                 4.7740                 2.0248

                     28                     29                     30
                      A                      A                      A
 Frequencies --   1171.1494              1175.7011              1213.3913
 Red. masses --      1.4177                 1.7269                 2.3964
 Frc consts  --      1.1457                 1.4064                 2.0788
 IR Inten    --      0.4383                 6.7612                53.4087

                     31                     32                     33
                      A                      A                      A
 Frequencies --   1282.2207              1290.3182              1342.2089
 Red. masses --      1.8014                 2.6081                 2.0660
 Frc consts  --      1.7449                 2.5584                 2.1929
 IR Inten    --      7.3832               175.0311                 4.6503

                     34                     35                     36
                      A                      A                      A
 Frequencies --   1372.4234              1405.9741              1412.9720
 Red. masses --      1.7628                 1.3297                 1.2522
 Frc consts  --      1.9563                 1.5487                 1.4730
 IR Inten    --      3.8679                 4.2236                 4.7954

                     37                     38                     39
                      A                      A                      A
 Frequencies --   1453.5318              1489.3643              1492.0509
 Red. masses --      2.8751                 1.0499                 1.0535
 Frc consts  --      3.5790                 1.3722                 1.3819
 IR Inten    --     24.1218                 4.2564                 6.3456

                     40                     41                     42
                      A                      A                      A
 Frequencies --   1493.1781              1501.5046              3014.3851
 Red. masses --      1.0489                 1.0890                 1.0833
 Frc consts  --      1.3778                 1.4465                 5.7996
 IR Inten    --      5.6754                 5.7162                38.8895

                     43                     44                     45
                      A                      A                      A
 Frequencies --   3028.4613              3030.1322              3092.6482
 Red. masses --      1.0349                 1.0354                 1.1008
 Frc consts  --      5.5922                 5.6014                 6.2035
 IR Inten    --     25.4973                26.1260                19.1654

                     46                     47                     48
                      A                      A                      A
 Frequencies --   3094.6670              3098.2405              3103.3041
 Red. masses --      1.1011                 1.1009                 1.1009
 Frc consts  --      6.2128                 6.2261                 6.2467
 IR Inten    --     20.2422                27.3711                13.9584

                     49                     50                     51
                      A                      A                      A
 Frequencies --   3113.1848              3130.1703              3803.5677
 Red. masses --      1.0911                 1.0938                 1.0658
 Frc consts  --      6.2307                 6.3142                 9.0843
 IR Inten    --     53.9914                19.3681                32.0829

 - Thermochemistry -
 -------------------
 Temperature   298.150 Kelvin.  Pressure   1.00000 Atm.
 Atom     1 has atomic number  6 and mass  12.00000

 Molecular mass:   126.06808 amu.
 Principal axes and moments of inertia in atomic units:
                           1         2         3
     Eigenvalues --   831.25781 912.313531455.14225
           X            0.99960   0.02811  -0.00376
           Y           -0.02802   0.99933   0.02355
           Z            0.00442  -0.02343   0.99972
 This molecule is an asymmetric top.
 Rotational symmetry number  1.
 Warning -- assumption of classical behavior for rotation
           may cause significant error
 Rotational temperatures (Kelvin)      0.10420     0.09494     0.05952
 Rotational constants (GHZ):           2.17110     1.97820     1.24025
 Zero-point vibrational energy     411406.5 (Joules/Mol)
                                   98.32852 (Kcal/Mol)
 Warning -- explicit consideration of  12 degrees of freedom as
           vibrations may cause significant error
 Vibrational temperatures:    249.68   257.08   274.39   300.39   338.02
          (Kelvin)            364.02   368.43   465.81   601.19   764.49
                              840.07   857.89  1039.48  1062.85  1066.16
                             1188.47  1233.89  1303.41  1325.88  1380.06
                             1460.65  1493.67  1527.38  1552.67  1584.74
                             1601.70  1650.21  1685.02  1691.57  1745.80
                             1844.83  1856.48  1931.14  1974.61  2022.88
                             2032.95  2091.31  2142.86  2146.73  2148.35
                             2160.33  4337.02  4357.27  4359.68  4449.63
                             4452.53  4457.67  4464.96  4479.17  4503.61
                             5472.48

 Zero-point correction=                           0.156696 (Hartree/Particle)
 Thermal correction to Energy=                    0.165441
 Thermal correction to Enthalpy=                  0.166385
 Thermal correction to Gibbs Free Energy=         0.124001
 Sum of electronic and zero-point Energies=           -422.939395
 Sum of electronic and thermal Energies=              -422.930651
 Sum of electronic and thermal Enthalpies=            -422.929706
 Sum of electronic and thermal Free Energies=         -422.972091

                     E (Thermal)             CV                S
                      KCal/Mol        Cal/Mol-Kelvin    Cal/Mol-Kelvin
 Total                  103.816             33.780             89.205
 Electronic               0.000              0.000              0.000
 Translational            0.889              2.981             40.409
 Rotational               0.889              2.981             28.492
 Vibrational            102.038             27.818             20.305
 Vibration     1          0.627              1.875              2.397
 Vibration     2          0.629              1.869              2.342
 Vibration     3          0.634              1.853              2.221
 Vibration     4          0.642              1.827              2.054
 Vibration     5          0.655              1.787              1.841
 Vibration     6          0.664              1.758              1.710
 Vibration     7          0.666              1.753              1.688
 Vibration     8          0.708              1.628              1.291
 Vibration     9          0.781              1.431              0.899
 Vibration    10          0.886              1.181              0.584
 Vibration    11          0.941              1.066              0.478
 Vibration    12          0.954              1.040              0.456

 Normal termination of Gaussian 09 at Mon Jan 27 22:56:31 2020.
