 Gaussian 09, Revision D.01,
 Gaussian 09:  ES64L-G09RevD.01 24-Apr-2013

 -----------------------------
 # b3lyp 6-31G(2df,p) opt Freq
 -----------------------------

 -----
 titel
 -----
 Symbolic Z-matrix:
 Charge =  0 Multiplicity = 1

 SCF Done:  E(RB3LYP) =  -423.230588846     A.U. after   14 cycles
 Optimization completed.
    -- Stationary point found.
 Normal termination of Gaussian 09 at Tue Jan 28 03:59:47 2020.

 ----------------------------------------------------------------------
 #N Geom=AllCheck Guess=TCheck SCRF=Check GenChk RB3LYP/6-31G(2df,p) Fr
 eq
 ----------------------------------------------------------------------

 Structure from the checkpoint file:  "/scratch/puck/g09_4f70b0c5-6152-4639-a8d6-dd67c8ded0ea/Gau-90790.chk"
 -----
 titel
 -----
 Charge =  0 Multiplicity = 1

                         Standard orientation:
 ---------------------------------------------------------------------
 Center     Atomic      Atomic             Coordinates (Angstroms)
 Number     Number       Type             X           Y           Z
 ---------------------------------------------------------------------
      1          6           0       -2.892023    0.452632    0.263074
      2          6           0       -1.433560    0.183446    0.037470
      3          6           0       -0.530698    1.176196   -0.067331
      4          6           0        0.909206    0.937979   -0.212153
      5          8           0        1.729431    1.839963   -0.206391
      6          6           0        1.385729   -0.522782   -0.265978
      7          8           0        1.717436   -0.919337    1.065741
      8          6           0        0.307014   -1.464755   -0.778934
      9          6           0       -1.014702   -1.264270   -0.028455
     10          1           0       -3.239999   -0.053089    1.172735
     11          1           0       -3.103096    1.520128    0.357398
     12          1           0       -3.491820    0.048304   -0.562184
     13          1           0       -0.829235    2.218889   -0.001857
     14          1           0        2.274159   -0.556663   -0.911777
     15          1           0        2.345529   -0.270440    1.403874
     16          1           0        0.155881   -1.266141   -1.846525
     17          1           0        0.652395   -2.498869   -0.682761
     18          1           0       -1.811641   -1.859248   -0.489306
     19          1           0       -0.912907   -1.638551    0.999448
 ---------------------------------------------------------------------

 SCF Done:  E(RB3LYP) =  -423.230588846     A.U. after    1 cycles

 The electronic state is 1-A.
 Alpha  occ. eigenvalues --  -19.14275 -19.11977 -10.25616 -10.23271 -10.21944
 Alpha  occ. eigenvalues --  -10.19708 -10.19588 -10.19058 -10.18338  -1.03656
 Alpha  occ. eigenvalues --   -1.01319  -0.84474  -0.77135  -0.72740  -0.69280
 Alpha  occ. eigenvalues --   -0.61411  -0.57822  -0.53673  -0.50171  -0.47250
 Alpha  occ. eigenvalues --   -0.45326  -0.44851  -0.42158  -0.41624  -0.41215
 Alpha  occ. eigenvalues --   -0.39618  -0.39153  -0.36994  -0.35589  -0.34024
 Alpha  occ. eigenvalues --   -0.33209  -0.28770  -0.26088  -0.23101
 Alpha virt. eigenvalues --   -0.04917   0.05904   0.08052   0.10201   0.11817
 Alpha virt. eigenvalues --    0.12704   0.14089   0.15130   0.16219   0.16823
 Alpha virt. eigenvalues --    0.17695   0.18732   0.20334   0.21448   0.23054

 Mulliken charges:
               1
     1  C   -0.478843
     2  C    0.324148
     3  C   -0.247573
     4  C    0.353195
     5  O   -0.354167
     6  C    0.037338
     7  O   -0.441305
     8  C   -0.240710
     9  C   -0.292481
    10  H    0.138280
    11  H    0.132227
    12  H    0.135790
    13  H    0.096075
    14  H    0.079899
    15  H    0.293627
    16  H    0.107317
    17  H    0.111424
    18  H    0.104139
    19  H    0.141621
 Sum of Mulliken charges =   0.00000

 Dipole moment (field-independent basis, Debye):
    X=             -2.5789    Y=             -1.6368    Z=             -0.2257  Tot=              3.0628
 Quadrupole moment (field-independent basis, Debye-Ang):
   XX=            -50.6047   YY=            -57.9066   ZZ=            -52.3610
   XY=             -3.1753   XZ=              0.6271   YZ=              2.6080

  Exact polarizability: 100.326   8.871  82.904  -2.599   0.261  58.284
 Approx polarizability: 146.875  30.550 130.924  -3.788  -4.326  91.265

                      1                      2                      3
                      A                      A                      A
 Frequencies --     62.9856               140.3739               180.5162
 Red. masses --      4.4531                 2.5633                 1.7950
 Frc consts  --      0.0104                 0.0298                 0.0345
 IR Inten    --      4.4658                 0.4723                 3.5961

                      4                      5                      6
                      A                      A                      A
 Frequencies --    200.0723               262.0910               308.1231
 Red. masses --      1.5863                 4.4494                 2.8832
 Frc consts  --      0.0374                 0.1801                 0.1613
 IR Inten    --      0.3776                 3.2412                 2.1230

                      7                      8                      9
                      A                      A                      A
 Frequencies --    354.2231               399.5275               434.9512
 Red. masses --      2.4610                 1.1906                 2.2480
 Frc consts  --      0.1819                 0.1120                 0.2506
 IR Inten    --      4.2171               108.0662                15.0072

                     10                     11                     12
                      A                      A                      A
 Frequencies --    490.6925               496.9884               519.2337
 Red. masses --      3.9075                 3.1947                 5.2339
 Frc consts  --      0.5543                 0.4649                 0.8314
 IR Inten    --     14.4079                 8.4848                 2.6156

                     13                     14                     15
                      A                      A                      A
 Frequencies --    645.8682               740.0949               768.6614
 Red. masses --      4.1641                 2.9254                 1.9060
 Frc consts  --      1.0234                 0.9441                 0.6635
 IR Inten    --      4.3236                 2.5009                 2.1221

                     16                     17                     18
                      A                      A                      A
 Frequencies --    855.5807               896.4354               915.0691
 Red. masses --      2.4123                 2.9498                 1.8077
 Frc consts  --      1.0404                 1.3966                 0.8918
 IR Inten    --      1.6199                 1.5296                23.1007

                     19                     20                     21
                      A                      A                      A
 Frequencies --    958.5112               980.9262              1030.5600
 Red. masses --      1.9431                 2.3152                 1.6243
 Frc consts  --      1.0518                 1.3125                 1.0164
 IR Inten    --     11.6279                 9.4588                11.4293

                     22                     23                     24
                      A                      A                      A
 Frequencies --   1044.3174              1067.9681              1100.9789
 Red. masses --      1.5545                 1.8402                 2.6417
 Frc consts  --      0.9988                 1.2366                 1.8866
 IR Inten    --     26.1165                19.8486                14.5796

                     25                     26                     27
                      A                      A                      A
 Frequencies --   1161.3457              1190.7753              1206.2445
 Red. masses --      2.2322                 1.2831                 1.4860
 Frc consts  --      1.7738                 1.0719                 1.2739
 IR Inten    --      1.3302                38.2106                29.8400

                     28                     29                     30
                      A                      A                      A
 Frequencies --   1277.2110              1278.1848              1334.6786
 Red. masses --      1.4305                 1.2995                 1.6227
 Frc consts  --      1.3749                 1.2509                 1.7031
 IR Inten    --     36.5169                20.4243                13.7970

                     31                     32                     33
                      A                      A                      A
 Frequencies --   1355.3620              1375.0561              1392.7670
 Red. masses --      1.5824                 1.7823                 1.5254
 Frc consts  --      1.7127                 1.9855                 1.7434
 IR Inten    --      7.3342                17.7973                 4.8310

                     34                     35                     36
                      A                      A                      A
 Frequencies --   1409.2777              1423.6285              1464.9562
 Red. masses --      1.3141                 1.6306                 1.0849
 Frc consts  --      1.5378                 1.9471                 1.3718
 IR Inten    --      7.0594                13.2177                 8.9655

                     37                     38                     39
                      A                      A                      A
 Frequencies --   1477.5523              1479.2846              1481.3500
 Red. masses --      1.0637                 1.0897                 1.0736
 Frc consts  --      1.3682                 1.4050                 1.3881
 IR Inten    --      3.7172                 6.2867                14.3925

                     40                     41                     42
                      A                      A                      A
 Frequencies --   1685.7078              1758.7122              3007.2895
 Red. masses --      6.7122                11.4054                 1.0830
 Frc consts  --     11.2377                20.7849                 5.7706
 IR Inten    --     66.1094               239.3106                39.0474

                     43                     44                     45
                      A                      A                      A
 Frequencies --   3019.1303              3024.6924              3040.7751
 Red. masses --      1.0452                 1.0554                 1.0660
 Frc consts  --      5.6134                 5.6888                 5.8076
 IR Inten    --      3.1598                24.7729                28.0766

                     46                     47                     48
                      A                      A                      A
 Frequencies --   3061.1773              3069.7719              3088.3877
 Red. masses --      1.0938                 1.0976                 1.1029
 Frc consts  --      6.0389                 6.0943                 6.1977
 IR Inten    --     24.3895                16.8693                22.2811

                     49                     50                     51
                      A                      A                      A
 Frequencies --   3124.3197              3170.0211              3797.7712
 Red. masses --      1.0997                 1.0905                 1.0661
 Frc consts  --      6.3247                 6.4566                 9.0592
 IR Inten    --     15.4878                10.4579                29.6512

 - Thermochemistry -
 -------------------
 Temperature   298.150 Kelvin.  Pressure   1.00000 Atm.
 Atom     1 has atomic number  6 and mass  12.00000

 Molecular mass:   126.06808 amu.
 Principal axes and moments of inertia in atomic units:
                           1         2         3
     Eigenvalues --   734.128291272.352691734.37144
           X            0.99940  -0.03333  -0.00920
           Y            0.03360   0.99898   0.03029
           Z            0.00818  -0.03058   0.99950
 This molecule is an asymmetric top.
 Rotational symmetry number  1.
 Warning -- assumption of classical behavior for rotation
           may cause significant error
 Rotational temperatures (Kelvin)      0.11798     0.06807     0.04994
 Rotational constants (GHZ):           2.45835     1.41843     1.04057
 Zero-point vibrational energy     418753.9 (Joules/Mol)
                                  100.08458 (Kcal/Mol)
 Warning -- explicit consideration of  12 degrees of freedom as
           vibrations may cause significant error
 Vibrational temperatures:     90.62   201.97   259.72   287.86   377.09
          (Kelvin)            443.32   509.65   574.83   625.80   706.00
                              715.05   747.06   929.26  1064.83  1105.93
                             1230.99  1289.77  1316.58  1379.08  1411.33
                             1482.74  1502.54  1536.57  1584.06  1670.92
                             1713.26  1735.51  1837.62  1839.02  1920.30
                             1950.06  1978.40  2003.88  2027.63  2048.28
                             2107.74  2125.87  2128.36  2131.33  2425.35
                             2530.39  4326.81  4343.85  4351.85  4374.99
                             4404.35  4416.71  4443.50  4495.19  4560.95
                             5464.14

 Zero-point correction=                           0.159495 (Hartree/Particle)
 Thermal correction to Energy=                    0.168282
 Thermal correction to Enthalpy=                  0.169226
 Thermal correction to Gibbs Free Energy=         0.125980
 Sum of electronic and zero-point Energies=           -423.071094
 Sum of electronic and thermal Energies=              -423.062307
 Sum of electronic and thermal Enthalpies=            -423.061363
 Sum of electronic and thermal Free Energies=         -423.104609

                     E (Thermal)             CV                S
                      KCal/Mol        Cal/Mol-Kelvin    Cal/Mol-Kelvin
 Total                  105.599             33.186             91.020
 Electronic               0.000              0.000              0.000
 Translational            0.889              2.981             40.409
 Rotational               0.889              2.981             28.873
 Vibrational            103.821             27.224             21.739
 Vibration     1          0.597              1.972              4.361
 Vibration     2          0.615              1.913              2.799
 Vibration     3          0.629              1.866              2.323
 Vibration     4          0.638              1.840              2.132
 Vibration     5          0.669              1.742              1.648
 Vibration     6          0.698              1.658              1.372
 Vibration     7          0.730              1.567              1.147
 Vibration     8          0.766              1.471              0.964
 Vibration     9          0.796              1.394              0.843
 Vibration    10          0.846              1.271              0.682
 Vibration    11          0.853              1.257              0.666
 Vibration    12          0.874              1.207              0.612

 Normal termination of Gaussian 09 at Tue Jan 28 04:40:12 2020.
