 Gaussian 09, Revision D.01,
 Gaussian 09:  ES64L-G09RevD.01 24-Apr-2013

 -----------------------------
 # b3lyp 6-31G(2df,p) opt Freq
 -----------------------------

 -----
 titel
 -----
 Symbolic Z-matrix:
 Charge =  0 Multiplicity = 1

 SCF Done:  E(RB3LYP) =  -423.143861073     A.U. after   13 cycles
 Optimization completed.
    -- Stationary point found.
 Normal termination of Gaussian 09 at Tue Jan 28 13:56:46 2020.

 ----------------------------------------------------------------------
 #N Geom=AllCheck Guess=TCheck SCRF=Check GenChk RB3LYP/6-31G(2df,p) Fr
 eq
 ----------------------------------------------------------------------

 Structure from the checkpoint file:  "/scratch/puck/g09_7ebe2ad0-6b7d-4ae8-8a90-dd6677e8f7f3/Gau-9465.chk"
 -----
 titel
 -----
 Charge =  0 Multiplicity = 1

                         Standard orientation:
 ---------------------------------------------------------------------
 Center     Atomic      Atomic             Coordinates (Angstroms)
 Number     Number       Type             X           Y           Z
 ---------------------------------------------------------------------
      1          6           0       -2.771745   -0.054216   -0.369955
      2          8           0       -1.562971   -0.586518    0.122936
      3          6           0       -0.683119    0.389786    0.608423
      4          6           0        0.097856    1.290607   -0.353777
      5          6           0        1.269998    0.533715   -0.951757
      6          6           0        1.240619   -0.991350   -0.917283
      7          8           0        1.088517   -1.333107    0.465717
      8          6           0        0.680088   -0.160672    1.140291
      9          6           0        1.372829    1.039470    0.454419
     10          1           0       -2.609167    0.614760   -1.228524
     11          1           0       -3.390411   -0.894950   -0.692720
     12          1           0       -3.314511    0.508345    0.406368
     13          1           0       -1.172630    1.007286    1.378855
     14          1           0       -0.243067    2.226919   -0.780122
     15          1           0        1.817499    1.036559   -1.740193
     16          1           0        0.407334   -1.406053   -1.495233
     17          1           0        2.180438   -1.422580   -1.282234
     18          1           0        0.773731   -0.323497    2.212584
     19          1           0        2.107256    1.726164    0.849833
 ---------------------------------------------------------------------

 SCF Done:  E(RB3LYP) =  -423.143861073     A.U. after    1 cycles

 The electronic state is 1-A.
 Alpha  occ. eigenvalues --  -19.13713 -19.12978 -10.23088 -10.23039 -10.22277
 Alpha  occ. eigenvalues --  -10.21947 -10.19711 -10.19482 -10.19275  -1.04397
 Alpha  occ. eigenvalues --   -1.02183  -0.88683  -0.75202  -0.69778  -0.64374
 Alpha  occ. eigenvalues --   -0.62913  -0.57553  -0.54066  -0.52880  -0.48321
 Alpha  occ. eigenvalues --   -0.47217  -0.44627  -0.43715  -0.43196  -0.41044
 Alpha  occ. eigenvalues --   -0.39587  -0.37647  -0.34706  -0.33242  -0.30317
 Alpha  occ. eigenvalues --   -0.29113  -0.27779  -0.24914  -0.23503
 Alpha virt. eigenvalues --    0.08258   0.09299   0.12259   0.12701   0.13977
 Alpha virt. eigenvalues --    0.14307   0.15098   0.15821   0.16140   0.16467
 Alpha virt. eigenvalues --    0.16881   0.18024   0.19167   0.19637   0.20630

 Mulliken charges:
               1
     1  C   -0.238709
     2  O   -0.237691
     3  C    0.138244
     4  C   -0.126998
     5  C   -0.080198
     6  C   -0.092748
     7  O   -0.250196
     8  C    0.018935
     9  C   -0.092983
    10  H    0.106189
    11  H    0.128264
    12  H    0.102371
    13  H    0.065206
    14  H    0.083307
    15  H    0.092843
    16  H    0.109346
    17  H    0.098759
    18  H    0.083200
    19  H    0.092858
 Sum of Mulliken charges =   0.00000

 Dipole moment (field-independent basis, Debye):
    X=             -0.3030    Y=              2.4454    Z=             -0.7468  Tot=              2.5748
 Quadrupole moment (field-independent basis, Debye-Ang):
   XX=            -49.6193   YY=            -55.2147   ZZ=            -50.3975
   XY=              0.7785   XZ=             -0.5837   YZ=              1.6864

  Exact polarizability:  82.793  -0.341  69.096  -0.997   2.761  71.364
 Approx polarizability: 109.865  -1.798 104.981   0.598   2.632 108.479

                      1                      2                      3
                      A                      A                      A
 Frequencies --     78.4173               155.3371               184.1472
 Red. masses --      2.8021                 2.3451                 1.7489
 Frc consts  --      0.0102                 0.0333                 0.0349
 IR Inten    --      1.9799                 1.4190                 0.2982

                      4                      5                      6
                      A                      A                      A
 Frequencies --    227.2772               308.6735               349.3893
 Red. masses --      2.2267                 2.8934                 3.0897
 Frc consts  --      0.0678                 0.1624                 0.2222
 IR Inten    --      5.8383                 2.4531                 0.9425

                      7                      8                      9
                      A                      A                      A
 Frequencies --    537.0499               568.8220               675.2029
 Red. masses --      4.5177                 3.4634                 6.3126
 Frc consts  --      0.7677                 0.6602                 1.6956
 IR Inten    --      3.9102                 2.5041                 6.2814

                     10                     11                     12
                      A                      A                      A
 Frequencies --    719.6924               778.6237               808.8718
 Red. masses --      4.2858                 2.9819                 1.7748
 Frc consts  --      1.3079                 1.0651                 0.6842
 IR Inten    --      2.3318                 2.4416                12.3249

                     13                     14                     15
                      A                      A                      A
 Frequencies --    812.3856               863.6423               897.9005
 Red. masses --      2.5121                 2.1926                 1.7602
 Frc consts  --      0.9768                 0.9636                 0.8361
 IR Inten    --      3.9492                18.1153                 4.7505

                     16                     17                     18
                      A                      A                      A
 Frequencies --    928.7620               967.9090               985.8300
 Red. masses --      2.3733                 1.8613                 3.1761
 Frc consts  --      1.2062                 1.0274                 1.8186
 IR Inten    --      7.9278                13.9647                12.1451

                     19                     20                     21
                      A                      A                      A
 Frequencies --   1005.4488              1042.0952              1055.1550
 Red. masses --      2.2271                 1.4155                 2.4273
 Frc consts  --      1.3265                 0.9057                 1.5922
 IR Inten    --     11.2530                 4.0114                23.1513

                     22                     23                     24
                      A                      A                      A
 Frequencies --   1061.1347              1079.1650              1088.1411
 Red. masses --      1.9761                 2.6175                 2.7411
 Frc consts  --      1.3110                 1.7960                 1.9122
 IR Inten    --     30.0015                23.7277                21.9550

                     25                     26                     27
                      A                      A                      A
 Frequencies --   1126.4458              1163.5487              1183.0719
 Red. masses --      2.2204                 3.1416                 1.3409
 Frc consts  --      1.6600                 2.5060                 1.1057
 IR Inten    --     64.7299               124.4702                 2.6110

                     28                     29                     30
                      A                      A                      A
 Frequencies --   1191.4758              1223.1487              1226.1122
 Red. masses --      1.8628                 1.3652                 1.1781
 Frc consts  --      1.5581                 1.2033                 1.0435
 IR Inten    --      3.3037                19.2900                 0.6098

                     31                     32                     33
                      A                      A                      A
 Frequencies --   1233.3489              1286.9591              1304.0693
 Red. masses --      1.7935                 1.7494                 1.3359
 Frc consts  --      1.6074                 1.7071                 1.3386
 IR Inten    --     48.4912                 7.6886                 7.8757

                     34                     35                     36
                      A                      A                      A
 Frequencies --   1338.4082              1366.2398              1382.4808
 Red. masses --      1.3691                 2.1456                 1.3404
 Frc consts  --      1.4450                 2.3597                 1.5094
 IR Inten    --      3.1986                14.9616                38.2166

                     37                     38                     39
                      A                      A                      A
 Frequencies --   1409.8969              1481.8735              1489.2806
 Red. masses --      1.7503                 1.1364                 1.0707
 Frc consts  --      2.0499                 1.4703                 1.3991
 IR Inten    --      4.7797                 2.0600                 2.7581

                     40                     41                     42
                      A                      A                      A
 Frequencies --   1508.5485              1514.5859              2968.3894
 Red. masses --      1.0589                 1.0931                 1.0582
 Frc consts  --      1.4198                 1.4774                 5.4934
 IR Inten    --      5.8864                 0.1835                31.9807

                     43                     44                     45
                      A                      A                      A
 Frequencies --   2976.6628              3019.8343              3026.3660
 Red. masses --      1.0623                 1.1017                 1.0568
 Frc consts  --      5.5459                 5.9195                 5.7029
 IR Inten    --     90.5022                49.6597                69.8376

                     46                     47                     48
                      A                      A                      A
 Frequencies --   3067.2361              3114.2463              3135.0820
 Red. masses --      1.1082                 1.0961                 1.0907
 Frc consts  --      6.1428                 6.2632                 6.3163
 IR Inten    --     31.7567                29.3561                30.4712

                     49                     50                     51
                      A                      A                      A
 Frequencies --   3175.1181              3188.8689              3220.1895
 Red. masses --      1.0909                 1.0904                 1.0974
 Frc consts  --      6.4795                 6.5332                 6.7048
 IR Inten    --     14.6821                12.8259                10.1369

 - Thermochemistry -
 -------------------
 Temperature   298.150 Kelvin.  Pressure   1.00000 Atm.
 Atom     1 has atomic number  6 and mass  12.00000

 Molecular mass:   126.06808 amu.
 Principal axes and moments of inertia in atomic units:
                           1         2         3
     Eigenvalues --   598.173161191.274271307.84870
           X            1.00000  -0.00268  -0.00127
           Y            0.00277   0.99700   0.07733
           Z            0.00106  -0.07733   0.99700
 This molecule is an asymmetric top.
 Rotational symmetry number  1.
 Warning -- assumption of classical behavior for rotation
           may cause significant error
 Rotational temperatures (Kelvin)      0.14480     0.07271     0.06623
 Rotational constants (GHZ):           3.01709     1.51497     1.37993
 Zero-point vibrational energy     421687.0 (Joules/Mol)
                                  100.78561 (Kcal/Mol)
 Warning -- explicit consideration of   8 degrees of freedom as
           vibrations may cause significant error
 Vibrational temperatures:    112.82   223.50   264.95   327.00   444.11
          (Kelvin)            502.69   772.69   818.41   971.47  1035.48
                             1120.26  1163.78  1168.84  1242.59  1291.88
                             1336.28  1392.60  1418.39  1446.61  1499.34
                             1518.13  1526.73  1552.68  1565.59  1620.70
                             1674.08  1702.17  1714.27  1759.84  1764.10
                             1774.51  1851.64  1876.26  1925.67  1965.71
                             1989.08  2028.52  2132.08  2142.74  2170.46
                             2179.15  4270.84  4282.75  4344.86  4354.26
                             4413.06  4480.70  4510.68  4568.28  4588.07
                             4633.13

 Zero-point correction=                           0.160612 (Hartree/Particle)
 Thermal correction to Energy=                    0.168195
 Thermal correction to Enthalpy=                  0.169139
 Thermal correction to Gibbs Free Energy=         0.128333
 Sum of electronic and zero-point Energies=           -422.983249
 Sum of electronic and thermal Energies=              -422.975667
 Sum of electronic and thermal Enthalpies=            -422.974722
 Sum of electronic and thermal Free Energies=         -423.015529

                     E (Thermal)             CV                S
                      KCal/Mol        Cal/Mol-Kelvin    Cal/Mol-Kelvin
 Total                  105.544             29.403             85.884
 Electronic               0.000              0.000              0.000
 Translational            0.889              2.981             40.409
 Rotational               0.889              2.981             28.324
 Vibrational            103.766             23.441             17.152
 Vibration     1          0.600              1.964              3.930
 Vibration     2          0.620              1.897              2.606
 Vibration     3          0.631              1.861              2.286
 Vibration     4          0.651              1.799              1.900
 Vibration     5          0.698              1.657              1.369
 Vibration     6          0.727              1.577              1.169
 Vibration     7          0.892              1.168              0.572
 Vibration     8          0.925              1.099              0.507

 Optimization completed.
    -- Stationary point found.
 Normal termination of Gaussian 09 at Tue Jan 28 14:47:33 2020.
