 Gaussian 09, Revision D.01,
 Gaussian 09:  ES64L-G09RevD.01 24-Apr-2013

 -----------------------------
 # b3lyp 6-31G(2df,p) opt Freq
 -----------------------------

 -----
 titel
 -----
 Symbolic Z-matrix:
 Charge =  0 Multiplicity = 1

 SCF Done:  E(RB3LYP) =  -423.166420079     A.U. after   14 cycles
 Optimization completed.
    -- Stationary point found.
 Normal termination of Gaussian 09 at Tue Jan 28 00:07:31 2020.

 ----------------------------------------------------------------------
 #N Geom=AllCheck Guess=TCheck SCRF=Check GenChk RB3LYP/6-31G(2df,p) Fr
 eq
 ----------------------------------------------------------------------

 Structure from the checkpoint file:  "/scratch/puck/g09_e39d2773-d125-4f25-aae5-4e2d0f5fa61f/Gau-56850.chk"
 -----
 titel
 -----
 Charge =  0 Multiplicity = 1

                         Standard orientation:
 ---------------------------------------------------------------------
 Center     Atomic      Atomic             Coordinates (Angstroms)
 Number     Number       Type             X           Y           Z
 ---------------------------------------------------------------------
      1          6           0        1.322421    2.061134   -0.364032
      2          6           0        1.276472    0.556125   -0.496679
      3          6           0        1.280744   -0.283153    0.751702
      4          6           0        1.297847   -1.759429    0.378232
      5          8           0        0.171819   -1.590190   -0.528656
      6          6           0        0.026411   -0.222373   -0.118000
      7          6           0       -1.329309    0.323862    0.134042
      8          6           0       -2.479217   -0.543655   -0.331912
      9          8           0       -1.490990    1.397283    0.679597
     10          1           0        0.923071    2.542602   -1.262042
     11          1           0        0.726818    2.402350    0.483678
     12          1           0        2.357179    2.396334   -0.233858
     13          1           0        1.787688    0.144235   -1.365973
     14          1           0        1.422597    0.138062    1.738106
     15          1           0        2.188298   -2.137959   -0.136513
     16          1           0        1.030005   -2.430566    1.201827
     17          1           0       -2.384257   -0.759985   -1.401704
     18          1           0       -2.447939   -1.511491    0.178441
     19          1           0       -3.422310   -0.035382   -0.129617
 ---------------------------------------------------------------------

 SCF Done:  E(RB3LYP) =  -423.166420079     A.U. after    1 cycles

 The electronic state is 1-A.
 Alpha  occ. eigenvalues --  -19.14875 -19.12455 -10.27090 -10.24836 -10.24568
 Alpha  occ. eigenvalues --  -10.20957 -10.20923 -10.18341 -10.17908  -1.06330
 Alpha  occ. eigenvalues --   -1.03363  -0.84988  -0.75528  -0.72266  -0.69656
 Alpha  occ. eigenvalues --   -0.62124  -0.57700  -0.51995  -0.50086  -0.48314
 Alpha  occ. eigenvalues --   -0.46574  -0.44051  -0.43243  -0.42137  -0.41088
 Alpha  occ. eigenvalues --   -0.39462  -0.38754  -0.37365  -0.35735  -0.34616
 Alpha  occ. eigenvalues --   -0.32481  -0.28684  -0.25341  -0.23319
 Alpha virt. eigenvalues --   -0.01968   0.07506   0.10498   0.10813   0.12324
 Alpha virt. eigenvalues --    0.13030   0.13645   0.14653   0.16313   0.16994
 Alpha virt. eigenvalues --    0.17299   0.18230   0.18503   0.19759   0.21010

 Mulliken charges:
               1
     1  C   -0.430087
     2  C   -0.059176
     3  C   -0.174555
     4  C   -0.105018
     5  O   -0.324939
     6  C    0.343392
     7  C    0.281433
     8  C   -0.477822
     9  O   -0.319602
    10  H    0.124709
    11  H    0.153837
    12  H    0.116760
    13  H    0.095655
    14  H    0.116829
    15  H    0.111194
    16  H    0.114191
    17  H    0.147590
    18  H    0.149576
    19  H    0.136034
 Sum of Mulliken charges =   0.00000

 Dipole moment (field-independent basis, Debye):
    X=              1.5725    Y=             -1.2866    Z=             -0.0331  Tot=              2.0320
 Quadrupole moment (field-independent basis, Debye-Ang):
   XX=            -50.6169   YY=            -56.1647   ZZ=            -52.5222
   XY=              2.4867   XZ=              2.3210   YZ=             -4.1561

  Exact polarizability:  86.993  -0.365  83.287   0.741  -0.913  62.618
 Approx polarizability: 119.265  -4.276 120.866   1.109   4.840 100.221

                      1                      2                      3
                      A                      A                      A
 Frequencies --     60.0361               117.6203               153.0820
 Red. masses --      3.5394                 1.0817                 2.1849
 Frc consts  --      0.0075                 0.0088                 0.0302
 IR Inten    --      4.9457                 0.0735                 0.3870

                      4                      5                      6
                      A                      A                      A
 Frequencies --    186.6341               208.1396               256.6617
 Red. masses --      3.4162                 1.3379                 2.6111
 Frc consts  --      0.0701                 0.0341                 0.1013
 IR Inten    --      8.3767                 0.8849                 1.1014

                      7                      8                      9
                      A                      A                      A
 Frequencies --    266.7139               362.8831               406.2074
 Red. masses --      2.5596                 3.4655                 3.3450
 Frc consts  --      0.1073                 0.2689                 0.3252
 IR Inten    --      0.7829                 1.8750                 5.9595

                     10                     11                     12
                      A                      A                      A
 Frequencies --    440.5215               535.9605               591.3390
 Red. masses --      3.8936                 5.2346                 2.4694
 Frc consts  --      0.4452                 0.8859                 0.5088
 IR Inten    --      0.0791                 6.2277                 4.7172

                     13                     14                     15
                      A                      A                      A
 Frequencies --    634.4777               747.6286               793.9754
 Red. masses --      3.2332                 3.4126                 3.6649
 Frc consts  --      0.7669                 1.1238                 1.3612
 IR Inten    --     10.3438                14.6767                 6.6870

                     16                     17                     18
                      A                      A                      A
 Frequencies --    897.2508               924.7942               946.3474
 Red. masses --      1.9134                 1.8290                 2.1396
 Frc consts  --      0.9076                 0.9216                 1.1290
 IR Inten    --      0.5082                10.3929                39.9539

                     19                     20                     21
                      A                      A                      A
 Frequencies --    974.3539               988.1424              1003.7895
 Red. masses --      2.1332                 2.1808                 1.5243
 Frc consts  --      1.1932                 1.2546                 0.9049
 IR Inten    --     13.8084                30.8018                 2.8526

                     22                     23                     24
                      A                      A                      A
 Frequencies --   1039.4516              1050.0563              1088.9192
 Red. masses --      1.9489                 2.1538                 3.5160
 Frc consts  --      1.2406                 1.3992                 2.4564
 IR Inten    --     21.1549                13.8533                19.1610

                     25                     26                     27
                      A                      A                      A
 Frequencies --   1116.4228              1137.3341              1156.5094
 Red. masses --      2.0579                 1.5932                 1.9326
 Frc consts  --      1.5112                 1.2142                 1.5229
 IR Inten    --      2.3120                27.6506                42.9076

                     28                     29                     30
                      A                      A                      A
 Frequencies --   1160.7176              1196.6366              1268.9287
 Red. masses --      1.4081                 1.7996                 1.6253
 Frc consts  --      1.1177                 1.5183                 1.5419
 IR Inten    --     11.3515                21.5890                21.5809

                     31                     32                     33
                      A                      A                      A
 Frequencies --   1338.2791              1359.0224              1383.2640
 Red. masses --      1.4400                 1.8927                 1.4430
 Frc consts  --      1.5196                 2.0596                 1.6268
 IR Inten    --      5.2061                24.0477                42.3255

                     34                     35                     36
                      A                      A                      A
 Frequencies --   1415.7546              1424.5942              1454.7098
 Red. masses --      1.5098                 2.1385                 1.0632
 Frc consts  --      1.7829                 2.5570                 1.3256
 IR Inten    --     28.0652                34.2090                14.3513

                     37                     38                     39
                      A                      A                      A
 Frequencies --   1465.7877              1490.9947              1504.0721
 Red. masses --      1.0496                 1.0728                 1.0662
 Frc consts  --      1.3287                 1.4051                 1.4211
 IR Inten    --      8.7531                11.3556                 1.9564

                     40                     41                     42
                      A                      A                      A
 Frequencies --   1517.8233              1780.6167              3027.4211
 Red. masses --      1.1158                10.7681                 1.0546
 Frc consts  --      1.5146                20.1155                 5.6951
 IR Inten    --      2.5505               135.6168                77.4247

                     43                     44                     45
                      A                      A                      A
 Frequencies --   3039.4655              3043.8748              3077.5181
 Red. masses --      1.0390                 1.0359                 1.1118
 Frc consts  --      5.6553                 5.6549                 6.2043
 IR Inten    --     31.2453                 1.0081                32.0273

                     46                     47                     48
                      A                      A                      A
 Frequencies --   3098.5257              3105.6962              3113.1891
 Red. masses --      1.1006                 1.0969                 1.0879
 Frc consts  --      6.2257                 6.2337                 6.2124
 IR Inten    --     19.7338                 4.7661                11.2165

                     49                     50                     51
                      A                      A                      A
 Frequencies --   3148.1748              3158.6000              3206.8448
 Red. masses --      1.0977                 1.1040                 1.0935
 Frc consts  --      6.4098                 6.4892                 6.6258
 IR Inten    --      6.7263                10.4136                 4.7984

 - Thermochemistry -
 -------------------
 Temperature   298.150 Kelvin.  Pressure   1.00000 Atm.
 Atom     1 has atomic number  6 and mass  12.00000

 Molecular mass:   126.06808 amu.
 Principal axes and moments of inertia in atomic units:
                           1         2         3
     Eigenvalues --   846.186231040.409421623.90998
           X            0.98684   0.16119   0.01242
           Y           -0.16084   0.98664  -0.02579
           Z           -0.01641   0.02345   0.99959
 This molecule is an asymmetric top.
 Rotational symmetry number  1.
 Warning -- assumption of classical behavior for rotation
           may cause significant error
 Rotational temperatures (Kelvin)      0.10236     0.08325     0.05334
 Rotational constants (GHZ):           2.13279     1.73465     1.11136
 Zero-point vibrational energy     411908.7 (Joules/Mol)
                                   98.44855 (Kcal/Mol)
 Warning -- explicit consideration of  12 degrees of freedom as
           vibrations may cause significant error
 Vibrational temperatures:     86.38   169.23   220.25   268.52   299.47
          (Kelvin)            369.28   383.74   522.11   584.44   633.81
                              771.13   850.80   912.87  1075.67  1142.35
                             1290.94  1330.57  1361.58  1401.88  1421.71
                             1444.23  1495.54  1510.79  1566.71  1606.28
                             1636.37  1663.96  1670.01  1721.69  1825.70
                             1925.48  1955.33  1990.21  2036.95  2049.67
                             2093.00  2108.94  2145.21  2164.02  2183.81
                             2561.91  4355.78  4373.11  4379.45  4427.86
                             4458.08  4468.40  4479.18  4529.52  4544.52
                             4613.93

 Zero-point correction=                           0.156888 (Hartree/Particle)
 Thermal correction to Energy=                    0.166082
 Thermal correction to Enthalpy=                  0.167026
 Thermal correction to Gibbs Free Energy=         0.122778
 Sum of electronic and zero-point Energies=           -423.009532
 Sum of electronic and thermal Energies=              -423.000338
 Sum of electronic and thermal Enthalpies=            -422.999394
 Sum of electronic and thermal Free Energies=         -423.043642

                     E (Thermal)             CV                S
                      KCal/Mol        Cal/Mol-Kelvin    Cal/Mol-Kelvin
 Total                  104.218             33.779             93.128
 Electronic               0.000              0.000              0.000
 Translational            0.889              2.981             40.409
 Rotational               0.889              2.981             28.749
 Vibrational            102.441             27.818             23.971
 Vibration     1          0.597              1.973              4.456
 Vibration     2          0.608              1.935              3.139
 Vibration     3          0.619              1.899              2.634
 Vibration     4          0.632              1.858              2.261
 Vibration     5          0.641              1.828              2.060
 Vibration     6          0.666              1.752              1.684
 Vibration     7          0.672              1.734              1.617
 Vibration     8          0.737              1.549              1.110
 Vibration     9          0.771              1.457              0.940
 Vibration    10          0.800              1.382              0.825
 Vibration    11          0.891              1.170              0.574
 Vibration    12          0.949              1.050              0.465

 Optimization completed.
    -- Stationary point found.
 Normal termination of Gaussian 09 at Tue Jan 28 01:26:58 2020.
