 Gaussian 09, Revision D.01,
 Gaussian 09:  ES64L-G09RevD.01 24-Apr-2013

 -----------------------------
 # b3lyp 6-31G(2df,p) opt Freq
 -----------------------------

 -----
 titel
 -----
 Symbolic Z-matrix:
 Charge =  0 Multiplicity = 1

 SCF Done:  E(RB3LYP) =  -423.144158481     A.U. after   14 cycles
 Optimization completed.
    -- Stationary point found.
 Normal termination of Gaussian 09 at Mon Jan 27 14:05:02 2020.

 ----------------------------------------------------------------------
 #N Geom=AllCheck Guess=TCheck SCRF=Check GenChk RB3LYP/6-31G(2df,p) Fr
 eq
 ----------------------------------------------------------------------

 Structure from the checkpoint file:  "/scratch/puck/g09_a66ffb28-13b0-4b5d-9a9d-712945ff3d32/Gau-171731.chk"
 -----
 titel
 -----
 Charge =  0 Multiplicity = 1

                         Standard orientation:
 ---------------------------------------------------------------------
 Center     Atomic      Atomic             Coordinates (Angstroms)
 Number     Number       Type             X           Y           Z
 ---------------------------------------------------------------------
      1          6           0        2.432725    0.428267    0.623396
      2          6           0        1.342941   -0.322781   -0.114616
      3          8           0        1.542736   -1.389979   -0.647872
      4          6           0       -0.030739    0.358969   -0.161865
      5          8           0        0.254055    1.687398   -0.536035
      6          6           0       -1.231616   -0.408153   -0.805692
      7          6           0       -1.225571   -1.339735    0.444586
      8          6           0       -1.048032    0.096847    1.014686
      9          6           0       -2.176351    0.518960    0.022385
     10          1           0        3.309622   -0.212152    0.725000
     11          1           0        2.691451    1.333424    0.066668
     12          1           0        2.083121    0.756389    1.607915
     13          1           0       -0.544974    2.218213   -0.469905
     14          1           0       -1.334199   -0.701765   -1.849669
     15          1           0       -2.184861   -1.806702    0.676494
     16          1           0       -0.401436   -2.041374    0.543735
     17          1           0       -0.936985    0.394455    2.058921
     18          1           0       -3.167823    0.115119    0.240038
     19          1           0       -2.268383    1.570794   -0.265228
 ---------------------------------------------------------------------

 SCF Done:  E(RB3LYP) =  -423.144158481     A.U. after    1 cycles

 The electronic state is 1-A.
 Alpha  occ. eigenvalues --  -19.15066 -19.12887 -10.26708 -10.24998 -10.21155
 Alpha  occ. eigenvalues --  -10.20462 -10.20194 -10.19010 -10.18094  -1.04732
 Alpha  occ. eigenvalues --   -1.03091  -0.90951  -0.74795  -0.68619  -0.66324
 Alpha  occ. eigenvalues --   -0.63560  -0.58515  -0.52419  -0.50500  -0.49855
 Alpha  occ. eigenvalues --   -0.46692  -0.43847  -0.42517  -0.41394  -0.39506
 Alpha  occ. eigenvalues --   -0.38671  -0.36709  -0.35239  -0.33977  -0.32909
 Alpha  occ. eigenvalues --   -0.32801  -0.31967  -0.26578  -0.23960
 Alpha virt. eigenvalues --   -0.01660   0.06968   0.10625   0.11989   0.12938
 Alpha virt. eigenvalues --    0.14084   0.14181   0.15255   0.15786   0.16237
 Alpha virt. eigenvalues --    0.17075   0.18515   0.19189   0.20449   0.22534

 Mulliken charges:
               1
     1  C   -0.473366
     2  C    0.333175
     3  O   -0.305014
     4  C    0.380056
     5  O   -0.501659
     6  C   -0.091225
     7  C   -0.226324
     8  C   -0.121542
     9  C   -0.266987
    10  H    0.133375
    11  H    0.161381
    12  H    0.131515
    13  H    0.285345
    14  H    0.084849
    15  H    0.093892
    16  H    0.126034
    17  H    0.076209
    18  H    0.103627
    19  H    0.076661
 Sum of Mulliken charges =   0.00000

 Dipole moment (field-independent basis, Debye):
    X=             -1.8470    Y=              1.8390    Z=              1.4716  Tot=              2.9931
 Quadrupole moment (field-independent basis, Debye-Ang):
   XX=            -51.6403   YY=            -54.8144   ZZ=            -53.4036
   XY=              1.2075   XZ=              2.5884   YZ=             -1.3035

  Exact polarizability:  86.480   0.117  75.829   1.011   1.756  64.604
 Approx polarizability: 113.531  -2.002 121.380  -1.774   6.165 103.338

                      1                      2                      3
                      A                      A                      A
 Frequencies --     52.3549               117.7527               137.7218
 Red. masses --      2.8012                 1.1751                 1.8813
 Frc consts  --      0.0045                 0.0096                 0.0210
 IR Inten    --      2.1060                 3.6386                23.4035

                      4                      5                      6
                      A                      A                      A
 Frequencies --    181.0866               230.1549               326.5365
 Red. masses --      1.4946                 4.6571                 3.7677
 Frc consts  --      0.0289                 0.1453                 0.2367
 IR Inten    --     39.6886                 4.2625                 5.6451

                      7                      8                      9
                      A                      A                      A
 Frequencies --    370.6442               400.6046               467.6393
 Red. masses --      4.1576                 3.6464                 3.9364
 Frc consts  --      0.3365                 0.3448                 0.5072
 IR Inten    --     12.4467                 2.5905                 1.0755

                     10                     11                     12
                      A                      A                      A
 Frequencies --    552.4454               586.4426               614.9539
 Red. masses --      2.6912                 2.2623                 3.0357
 Frc consts  --      0.4839                 0.4584                 0.6764
 IR Inten    --      0.1982                 5.9496                18.4129

                     13                     14                     15
                      A                      A                      A
 Frequencies --    660.6441               783.1083               798.3472
 Red. masses --      2.9952                 3.0775                 2.8987
 Frc consts  --      0.7702                 1.1120                 1.0885
 IR Inten    --      1.6093                 0.4459                 0.3299

                     16                     17                     18
                      A                      A                      A
 Frequencies --    888.2260               893.8204               907.7074
 Red. masses --      2.4942                 1.9567                 2.3330
 Frc consts  --      1.1594                 0.9210                 1.1325
 IR Inten    --      1.2100                 0.4913                15.0783

                     19                     20                     21
                      A                      A                      A
 Frequencies --    922.3970               988.8435              1000.5791
 Red. masses --      2.8195                 1.6050                 1.0507
 Frc consts  --      1.4134                 0.9246                 0.6198
 IR Inten    --      9.0677                31.7521                 0.8210

                     22                     23                     24
                      A                      A                      A
 Frequencies --   1027.7283              1029.8301              1069.5461
 Red. masses --      1.5168                 1.4922                 1.5898
 Frc consts  --      0.9439                 0.9324                 1.0715
 IR Inten    --      2.3797                14.1403                 6.6684

                     25                     26                     27
                      A                      A                      A
 Frequencies --   1083.1808              1088.0400              1111.1845
 Red. masses --      1.4083                 1.8517                 2.6190
 Frc consts  --      0.9735                 1.2915                 1.9053
 IR Inten    --      1.9315                28.8501                 3.2797

                     28                     29                     30
                      A                      A                      A
 Frequencies --   1174.7614              1176.9580              1187.8046
 Red. masses --      3.5783                 1.5071                 1.3878
 Frc consts  --      2.9096                 1.2301                 1.1536
 IR Inten    --     72.7236                10.0510                 0.8842

                     31                     32                     33
                      A                      A                      A
 Frequencies --   1193.9694              1234.0949              1241.4920
 Red. masses --      2.0692                 1.6420                 1.7417
 Frc consts  --      1.7379                 1.4734                 1.5816
 IR Inten    --    105.2827                18.9993                 4.9360

                     34                     35                     36
                      A                      A                      A
 Frequencies --   1261.8629              1368.7352              1383.0195
 Red. masses --      1.9967                 1.6254                 1.6685
 Frc consts  --      1.8732                 1.7941                 1.8804
 IR Inten    --     22.3869                37.7411                27.7031

                     37                     38                     39
                      A                      A                      A
 Frequencies --   1460.5955              1468.2825              1516.1819
 Red. masses --      1.0538                 1.0568                 1.0930
 Frc consts  --      1.3245                 1.3423                 1.4803
 IR Inten    --     13.4035                 8.3905                 6.0573

                     40                     41                     42
                      A                      A                      A
 Frequencies --   1551.7000              1809.2619              3043.1979
 Red. masses --      1.1218                11.1975                 1.0596
 Frc consts  --      1.5914                21.5961                 5.7819
 IR Inten    --      1.6981               121.6579                55.9968

                     43                     44                     45
                      A                      A                      A
 Frequencies --   3047.2463              3081.6798              3099.0219
 Red. masses --      1.0360                 1.0627                 1.0920
 Frc consts  --      5.6678                 5.9460                 6.1789
 IR Inten    --      2.6015                32.0495                47.4835

                     46                     47                     48
                      A                      A                      A
 Frequencies --   3106.3381              3114.1018              3126.8915
 Red. masses --      1.1019                 1.0965                 1.0928
 Frc consts  --      6.2646                 6.2651                 6.2952
 IR Inten    --     47.4236                 6.1029                30.9876

                     49                     50                     51
                      A                      A                      A
 Frequencies --   3155.3960              3175.6715              3829.7035
 Red. masses --      1.1042                 1.1037                 1.0649
 Frc consts  --      6.4774                 6.5582                 9.2020
 IR Inten    --     10.9147                13.5865                15.5144

 - Thermochemistry -
 -------------------
 Temperature   298.150 Kelvin.  Pressure   1.00000 Atm.
 Atom     1 has atomic number  6 and mass  12.00000

 Molecular mass:   126.06808 amu.
 Principal axes and moments of inertia in atomic units:
                           1         2         3
     Eigenvalues --   631.870611195.972031465.35463
           X            0.99937   0.02914   0.02028
           Y           -0.02905   0.99957  -0.00480
           Z           -0.02042   0.00421   0.99978
 This molecule is an asymmetric top.
 Rotational symmetry number  1.
 Warning -- assumption of classical behavior for rotation
           may cause significant error
 Rotational temperatures (Kelvin)      0.13708     0.07242     0.05911
 Rotational constants (GHZ):           2.85619     1.50902     1.23161
 Zero-point vibrational energy     413306.7 (Joules/Mol)
                                   98.78268 (Kcal/Mol)
 Warning -- explicit consideration of  12 degrees of freedom as
           vibrations may cause significant error
 Vibrational temperatures:     75.33   169.42   198.15   260.54   331.14
          (Kelvin)            469.81   533.27   576.38   672.83   794.84
                              843.76   884.78   950.52  1126.72  1148.64
                             1277.96  1286.01  1305.99  1327.12  1422.72
                             1439.61  1478.67  1481.69  1538.84  1558.45
                             1565.44  1598.74  1690.22  1693.38  1708.98
                             1717.85  1775.59  1786.23  1815.54  1969.30
                             1989.85  2101.47  2112.53  2181.44  2232.55
                             2603.12  4378.48  4384.30  4433.84  4458.80
                             4469.32  4480.49  4498.89  4539.91  4569.08
                             5510.08

 Zero-point correction=                           0.157420 (Hartree/Particle)
 Thermal correction to Energy=                    0.166250
 Thermal correction to Enthalpy=                  0.167194
 Thermal correction to Gibbs Free Energy=         0.123661
 Sum of electronic and zero-point Energies=           -422.986738
 Sum of electronic and thermal Energies=              -422.977908
 Sum of electronic and thermal Enthalpies=            -422.976964
 Sum of electronic and thermal Free Energies=         -423.020497

                     E (Thermal)             CV                S
                      KCal/Mol        Cal/Mol-Kelvin    Cal/Mol-Kelvin
 Total                  104.324             33.389             91.623
 Electronic               0.000              0.000              0.000
 Translational            0.889              2.981             40.409
 Rotational               0.889              2.981             28.495
 Vibrational            102.546             27.427             22.720
 Vibration     1          0.596              1.977              4.726
 Vibration     2          0.608              1.935              3.137
 Vibration     3          0.614              1.916              2.835
 Vibration     4          0.630              1.865              2.317
 Vibration     5          0.652              1.795              1.878
 Vibration     6          0.710              1.622              1.277
 Vibration     7          0.743              1.533              1.077
 Vibration     8          0.766              1.469              0.960
 Vibration     9          0.825              1.322              0.744
 Vibration    10          0.908              1.134              0.539
 Vibration    11          0.944              1.061              0.474
 Vibration    12          0.974              1.000              0.425

 Optimization completed.
    -- Stationary point found.
 Normal termination of Gaussian 09 at Mon Jan 27 14:49:03 2020.
