 Gaussian 09, Revision D.01,
 Gaussian 09:  ES64L-G09RevD.01 24-Apr-2013

 -----------------------------
 # b3lyp 6-31G(2df,p) opt Freq
 -----------------------------

 -----
 titel
 -----
 Symbolic Z-matrix:
 Charge =  0 Multiplicity = 1

 SCF Done:  E(RB3LYP) =  -423.181534944     A.U. after   14 cycles
 SCF Done:  E(RB3LYP) =  -423.181535071     A.U. after    6 cycles
 Optimization completed.
    -- Stationary point found.
 Normal termination of Gaussian 09 at Tue Jan 28 02:00:18 2020.

 ----------------------------------------------------------------------
 #N Geom=AllCheck Guess=TCheck SCRF=Check GenChk RB3LYP/6-31G(2df,p) Fr
 eq
 ----------------------------------------------------------------------

 Structure from the checkpoint file:  "/scratch/puck/g09_9eeb7b3f-9b86-49c6-9d5c-92f644cc9359/Gau-57375.chk"
 -----
 titel
 -----
 Charge =  0 Multiplicity = 1

                         Standard orientation:
 ---------------------------------------------------------------------
 Center     Atomic      Atomic             Coordinates (Angstroms)
 Number     Number       Type             X           Y           Z
 ---------------------------------------------------------------------
      1          6           0       -2.579604    0.079740   -0.578303
      2          6           0       -1.493206   -0.841773   -0.085956
      3          8           0       -0.850621   -0.505361    1.164352
      4          6           0       -0.073588   -0.479805   -0.046654
      5          6           0        1.089232   -1.466558   -0.124480
      6          6           0        2.293846   -0.554027   -0.084379
      7          6           0        1.962859    0.728844   -0.219095
      8          6           0        0.471776    0.923313   -0.403044
      9          8           0       -0.102001    1.950784    0.379112
     10          1           0       -2.799968   -0.129248   -1.630948
     11          1           0       -3.500591   -0.079897   -0.008007
     12          1           0       -2.278937    1.124247   -0.477829
     13          1           0       -1.724197   -1.906815   -0.157847
     14          1           0        1.048853   -2.179075    0.706740
     15          1           0        1.058036   -2.053485   -1.052758
     16          1           0        3.303521   -0.934911    0.021677
     17          1           0        2.645636    1.569971   -0.234618
     18          1           0        0.248949    1.170005   -1.451628
     19          1           0       -0.408209    1.517429    1.188969
 ---------------------------------------------------------------------

 SCF Done:  E(RB3LYP) =  -423.181535071     A.U. after    1 cycles

 The electronic state is 1-A.
 Alpha  occ. eigenvalues --  -19.15579 -19.12920 -10.24211 -10.24147 -10.23480
 Alpha  occ. eigenvalues --  -10.19349 -10.18896 -10.18159 -10.17997  -1.07512
 Alpha  occ. eigenvalues --   -1.01088  -0.83565  -0.74781  -0.70742  -0.68811
 Alpha  occ. eigenvalues --   -0.61477  -0.57311  -0.54856  -0.51414  -0.48399
 Alpha  occ. eigenvalues --   -0.45559  -0.45145  -0.42315  -0.41716  -0.41379
 Alpha  occ. eigenvalues --   -0.39015  -0.38765  -0.36119  -0.35987  -0.32116
 Alpha  occ. eigenvalues --   -0.30228  -0.27394  -0.26224  -0.25339
 Alpha virt. eigenvalues --    0.01420   0.08429   0.10234   0.10566   0.12441
 Alpha virt. eigenvalues --    0.13105   0.14455   0.15078   0.16211   0.16313
 Alpha virt. eigenvalues --    0.17621   0.18419   0.19287   0.20249   0.21129

 Mulliken charges:
               1
     1  C   -0.440143
     2  C    0.013402
     3  O   -0.298791
     4  C    0.339203
     5  C   -0.341733
     6  C   -0.075514
     7  C   -0.095590
     8  C    0.022839
     9  O   -0.436295
    10  H    0.122239
    11  H    0.126863
    12  H    0.151889
    13  H    0.088241
    14  H    0.124740
    15  H    0.114476
    16  H    0.099760
    17  H    0.103848
    18  H    0.090302
    19  H    0.290265
 Sum of Mulliken charges =   0.00000

 Dipole moment (field-independent basis, Debye):
    X=              0.1155    Y=             -1.7967    Z=             -1.3249  Tot=              2.2353
 Quadrupole moment (field-independent basis, Debye-Ang):
   XX=            -48.9347   YY=            -55.2188   ZZ=            -53.9508
   XY=              0.2294   XZ=              1.0650   YZ=              0.9094

  Exact polarizability:  90.555  -1.272  80.412   1.377  -0.864  57.612
 Approx polarizability: 114.740  -3.529 126.578   0.158  -1.435  95.878

                      1                      2                      3
                      A                      A                      A
 Frequencies --     88.2047               181.8789               208.2395
 Red. masses --      3.3290                 3.6259                 1.1431
 Frc consts  --      0.0153                 0.0707                 0.0292
 IR Inten    --      1.1447                 2.7750                 1.1536

                      4                      5                      6
                      A                      A                      A
 Frequencies --    227.9824               272.0089               305.6488
 Red. masses --      2.4677                 3.8595                 2.5855
 Frc consts  --      0.0756                 0.1682                 0.1423
 IR Inten    --      2.1028                14.1020                 3.7055

                      7                      8                      9
                      A                      A                      A
 Frequencies --    406.0041               430.2744               452.3485
 Red. masses --      2.6073                 1.4000                 2.8144
 Frc consts  --      0.2532                 0.1527                 0.3393
 IR Inten    --     15.2145                64.3090                 8.5133

                     10                     11                     12
                      A                      A                      A
 Frequencies --    490.4846               561.7108               584.9841
 Red. masses --      2.9261                 4.1996                 3.1407
 Frc consts  --      0.4147                 0.7807                 0.6332
 IR Inten    --     27.8384                 4.0097                 2.3630

                     13                     14                     15
                      A                      A                      A
 Frequencies --    705.0737               756.4445               775.7290
 Red. masses --      1.9497                 2.7254                 3.9978
 Frc consts  --      0.5711                 0.9188                 1.4174
 IR Inten    --     10.7143                20.8549                 3.2040

                     16                     17                     18
                      A                      A                      A
 Frequencies --    839.1446               898.9367               943.9596
 Red. masses --      2.8791                 2.8186                 1.7350
 Frc consts  --      1.1945                 1.3420                 0.9109
 IR Inten    --     26.5779                26.6128                16.9083

                     19                     20                     21
                      A                      A                      A
 Frequencies --    960.3853               980.5060              1008.9009
 Red. masses --      2.2077                 1.3067                 2.2602
 Frc consts  --      1.1997                 0.7402                 1.3555
 IR Inten    --      3.3554                 0.8652                10.0366

                     22                     23                     24
                      A                      A                      A
 Frequencies --   1028.1554              1037.4508              1090.8507
 Red. masses --      2.6076                 1.8894                 1.9342
 Frc consts  --      1.6241                 1.1982                 1.3561
 IR Inten    --     19.9756                 9.2233                60.3488

                     25                     26                     27
                      A                      A                      A
 Frequencies --   1122.9295              1137.6935              1160.0809
 Red. masses --      2.2995                 1.5325                 1.6853
 Frc consts  --      1.7084                 1.1687                 1.3363
 IR Inten    --      0.1353                39.2282                 3.2011

                     28                     29                     30
                      A                      A                      A
 Frequencies --   1173.9561              1224.8984              1254.8757
 Red. masses --      1.3870                 1.7399                 1.4949
 Frc consts  --      1.1262                 1.5381                 1.3870
 IR Inten    --      6.7310                 3.7916                16.3371

                     31                     32                     33
                      A                      A                      A
 Frequencies --   1286.9470              1314.5230              1360.9102
 Red. masses --      1.5665                 1.2832                 1.3611
 Frc consts  --      1.5286                 1.3064                 1.4853
 IR Inten    --      2.8851                 8.4551                 2.1168

                     34                     35                     36
                      A                      A                      A
 Frequencies --   1367.5184              1410.5015              1438.1405
 Red. masses --      1.7536                 1.2679                 1.2594
 Frc consts  --      1.9322                 1.4863                 1.5347
 IR Inten    --      6.0133                 7.3986                73.6265

                     37                     38                     39
                      A                      A                      A
 Frequencies --   1467.4232              1476.0239              1502.5353
 Red. masses --      1.3243                 1.1718                 1.0816
 Frc consts  --      1.6802                 1.5042                 1.4386
 IR Inten    --      3.8022                 7.2046                 5.5776

                     40                     41                     42
                      A                      A                      A
 Frequencies --   1515.0612              1682.9923              2995.0872
 Red. masses --      1.9267                 6.3349                 1.0824
 Frc consts  --      2.6057                10.5719                 5.7210
 IR Inten    --      6.5674                 2.5310                33.4475

                     43                     44                     45
                      A                      A                      A
 Frequencies --   3015.6857              3037.8830              3067.3482
 Red. masses --      1.0665                 1.0371                 1.0950
 Frc consts  --      5.7145                 5.6389                 6.0699
 IR Inten    --     25.2044                22.5328                12.3360

                     46                     47                     48
                      A                      A                      A
 Frequencies --   3084.6715              3099.2505              3141.4391
 Red. masses --      1.0868                 1.1003                 1.1010
 Frc consts  --      6.0926                 6.2270                 6.4014
 IR Inten    --     28.8200                17.1074                 6.4477

                     49                     50                     51
                      A                      A                      A
 Frequencies --   3188.2487              3215.9292              3731.9947
 Red. masses --      1.0859                 1.1036                 1.0649
 Frc consts  --      6.5033                 6.7245                 8.7386
 IR Inten    --      7.8940                16.3978                45.5389

 - Thermochemistry -
 -------------------
 Temperature   298.150 Kelvin.  Pressure   1.00000 Atm.
 Atom     1 has atomic number  6 and mass  12.00000

 Molecular mass:   126.06808 amu.
 Principal axes and moments of inertia in atomic units:
                           1         2         3
     Eigenvalues --   651.067881188.023571561.09093
           X            0.99975  -0.01538   0.01649
           Y            0.01533   0.99988   0.00306
           Z           -0.01653  -0.00281   0.99986
 This molecule is an asymmetric top.
 Rotational symmetry number  1.
 Warning -- assumption of classical behavior for rotation
           may cause significant error
 Rotational temperatures (Kelvin)      0.13303     0.07291     0.05548
 Rotational constants (GHZ):           2.77197     1.51911     1.15608
 Zero-point vibrational energy     416957.5 (Joules/Mol)
                                   99.65524 (Kcal/Mol)
 Warning -- explicit consideration of  12 degrees of freedom as
           vibrations may cause significant error
 Vibrational temperatures:    126.91   261.68   299.61   328.02   391.36
          (Kelvin)            439.76   584.15   619.07   650.83   705.70
                              808.18   841.66  1014.44  1088.35  1116.10
                             1207.34  1293.37  1358.15  1381.78  1410.73
                             1451.58  1479.28  1492.66  1569.49  1615.64
                             1636.89  1669.10  1689.06  1762.35  1805.48
                             1851.63  1891.30  1958.04  1967.55  2029.39
                             2069.16  2111.29  2123.67  2161.81  2179.83
                             2421.45  4309.26  4338.89  4370.83  4413.22
                             4438.15  4459.12  4519.82  4587.17  4627.00
                             5369.50

 Zero-point correction=                           0.158811 (Hartree/Particle)
 Thermal correction to Energy=                    0.167206
 Thermal correction to Enthalpy=                  0.168151
 Thermal correction to Gibbs Free Energy=         0.126156
 Sum of electronic and zero-point Energies=           -423.022724
 Sum of electronic and thermal Energies=              -423.014329
 Sum of electronic and thermal Enthalpies=            -423.013384
 Sum of electronic and thermal Free Energies=         -423.055379

                     E (Thermal)             CV                S
                      KCal/Mol        Cal/Mol-Kelvin    Cal/Mol-Kelvin
 Total                  104.924             32.802             88.385
 Electronic               0.000              0.000              0.000
 Translational            0.889              2.981             40.409
 Rotational               0.889              2.981             28.581
 Vibrational            103.146             26.840             19.395
 Vibration     1          0.601              1.957              3.700
 Vibration     2          0.630              1.864              2.309
 Vibration     3          0.642              1.828              2.059
 Vibration     4          0.651              1.798              1.895
 Vibration     5          0.675              1.725              1.583
 Vibration     6          0.696              1.663              1.386
 Vibration     7          0.771              1.457              0.941
 Vibration     8          0.791              1.404              0.858
 Vibration     9          0.811              1.356              0.789
 Vibration    10          0.846              1.271              0.682
 Vibration    11          0.917              1.114              0.520
 Vibration    12          0.942              1.064              0.476

 Normal termination of Gaussian 09 at Tue Jan 28 02:45:43 2020.
