 Gaussian 09, Revision D.01,
 Gaussian 09:  ES64L-G09RevD.01 24-Apr-2013

 -----------------------------
 # b3lyp 6-31G(2df,p) opt Freq
 -----------------------------

 -----
 titel
 -----
 Symbolic Z-matrix:
 Charge =  0 Multiplicity = 1

 SCF Done:  E(RB3LYP) =  -423.203962893     A.U. after   14 cycles
 Optimization completed.
    -- Stationary point found.
 Normal termination of Gaussian 09 at Mon Jan 27 22:03:46 2020.

 ----------------------------------------------------------------------
 #N Geom=AllCheck Guess=TCheck SCRF=Check GenChk RB3LYP/6-31G(2df,p) Fr
 eq
 ----------------------------------------------------------------------

 Structure from the checkpoint file:  "/scratch/puck/g09_f702c689-b4c5-4637-a907-75a093a556be/Gau-15065.chk"
 -----
 titel
 -----
 Charge =  0 Multiplicity = 1

                         Standard orientation:
 ---------------------------------------------------------------------
 Center     Atomic      Atomic             Coordinates (Angstroms)
 Number     Number       Type             X           Y           Z
 ---------------------------------------------------------------------
      1          6           0        0.848991    2.029203    0.223224
      2          6           0        0.759439    0.615790   -0.336964
      3          6           0       -0.128741   -0.477059    0.358247
      4          6           0       -1.450609   -0.881791   -0.302143
      5          6           0       -2.473135    0.233999   -0.275738
      6          8           0       -3.543852    0.170861    0.270420
      7          6           0        1.048269   -1.499157    0.266116
      8          6           0        1.959060   -0.320235   -0.106338
      9          8           0        3.143162   -0.148672   -0.104276
     10          1           0       -0.073204    2.592141    0.048917
     11          1           0        1.036532    2.012230    1.301599
     12          1           0        1.674097    2.570761   -0.248652
     13          1           0        0.543613    0.642058   -1.414617
     14          1           0       -0.307349   -0.201280    1.402670
     15          1           0       -1.259229   -1.139424   -1.354369
     16          1           0       -1.885200   -1.756424    0.191349
     17          1           0       -2.159673    1.162249   -0.808576
     18          1           0        1.317758   -2.062696    1.162303
     19          1           0        0.938529   -2.201620   -0.568198
 ---------------------------------------------------------------------

 SCF Done:  E(RB3LYP) =  -423.203962893     A.U. after    1 cycles

 The electronic state is 1-A.
 Alpha  occ. eigenvalues --  -19.14741 -19.14384 -10.27948 -10.27539 -10.21837
 Alpha  occ. eigenvalues --  -10.20803 -10.20651 -10.20259 -10.19236  -1.05408
 Alpha  occ. eigenvalues --   -1.05252  -0.86919  -0.77014  -0.74509  -0.64609
 Alpha  occ. eigenvalues --   -0.62234  -0.57963  -0.53667  -0.49569  -0.47096
 Alpha  occ. eigenvalues --   -0.46456  -0.46141  -0.43835  -0.43027  -0.41631
 Alpha  occ. eigenvalues --   -0.40600  -0.39605  -0.38562  -0.37040  -0.35127
 Alpha  occ. eigenvalues --   -0.34475  -0.32803  -0.25789  -0.24743
 Alpha virt. eigenvalues --   -0.03467  -0.02223   0.08113   0.09022   0.09783
 Alpha virt. eigenvalues --    0.11489   0.12606   0.13744   0.14764   0.15036
 Alpha virt. eigenvalues --    0.16386   0.17506   0.18552   0.19389   0.22479

 Mulliken charges:
               1
     1  C   -0.413368
     2  C   -0.105085
     3  C   -0.004950
     4  C   -0.301360
     5  C    0.161245
     6  O   -0.234709
     7  C   -0.373500
     8  C    0.395411
     9  O   -0.293499
    10  H    0.123736
    11  H    0.125801
    12  H    0.141080
    13  H    0.100227
    14  H    0.095830
    15  H    0.114063
    16  H    0.126665
    17  H    0.076216
    18  H    0.135154
    19  H    0.131044
 Sum of Mulliken charges =   0.00000

 Dipole moment (field-independent basis, Debye):
    X=             -0.1307    Y=             -0.4632    Z=             -0.8338  Tot=              0.9627
 Quadrupole moment (field-independent basis, Debye-Ang):
   XX=            -78.0526   YY=            -50.2136   ZZ=            -50.6082
   XY=              0.8125   XZ=              3.4098   YZ=             -0.1985

  Exact polarizability:  92.385  -0.094  78.258  -2.248  -2.608  60.831
 Approx polarizability: 133.389   1.487 107.148  -7.313  -3.964  97.954

                      1                      2                      3
                      A                      A                      A
 Frequencies --     42.8776                57.0128                88.1118
 Red. masses --      6.3685                 4.1140                 3.5417
 Frc consts  --      0.0069                 0.0079                 0.0162
 IR Inten    --     10.2019                 3.0806                 2.0217

                      4                      5                      6
                      A                      A                      A
 Frequencies --    175.8710               186.5228               214.6716
 Red. masses --      2.3282                 1.0526                 3.0764
 Frc consts  --      0.0424                 0.0216                 0.0835
 IR Inten    --      2.6907                 0.4970                 2.1524

                      7                      8                      9
                      A                      A                      A
 Frequencies --    260.4149               326.5459               373.8869
 Red. masses --      2.6987                 4.1490                 3.4872
 Frc consts  --      0.1078                 0.2607                 0.2872
 IR Inten    --      0.1351                 0.6594                 2.6171

                     10                     11                     12
                      A                      A                      A
 Frequencies --    459.1240               509.4681               562.4486
 Red. masses --      2.2618                 1.9964                 2.8753
 Frc consts  --      0.2809                 0.3053                 0.5359
 IR Inten    --      0.4104                 8.6801                 4.2904

                     13                     14                     15
                      A                      A                      A
 Frequencies --    656.3928               749.0768               763.9547
 Red. masses --      3.9679                 2.7123                 2.2725
 Frc consts  --      1.0072                 0.8967                 0.7814
 IR Inten    --      3.0867                 0.1678                 4.7512

                     16                     17                     18
                      A                      A                      A
 Frequencies --    822.8103               879.8463               921.9917
 Red. masses --      1.8775                 1.5347                 2.5168
 Frc consts  --      0.7489                 0.7000                 1.2605
 IR Inten    --      0.2875                 2.3202                15.1251

                     19                     20                     21
                      A                      A                      A
 Frequencies --    978.0631              1003.1737              1038.9208
 Red. masses --      1.2969                 1.3655                 3.8720
 Frc consts  --      0.7310                 0.8097                 2.4624
 IR Inten    --      4.1483                18.6754                20.7078

                     22                     23                     24
                      A                      A                      A
 Frequencies --   1064.8976              1098.0325              1122.4039
 Red. masses --      2.3744                 2.9156                 2.3787
 Frc consts  --      1.5864                 2.0712                 1.7656
 IR Inten    --      8.1822                 0.5521                34.8980

                     25                     26                     27
                      A                      A                      A
 Frequencies --   1142.1996              1161.4080              1199.3148
 Red. masses --      2.1260                 1.7107                 1.5107
 Frc consts  --      1.6342                 1.3595                 1.2803
 IR Inten    --      2.1704                 8.3179                10.3248

                     28                     29                     30
                      A                      A                      A
 Frequencies --   1218.5800              1247.7306              1273.7993
 Red. masses --      1.5286                 1.3172                 1.3621
 Frc consts  --      1.3374                 1.2082                 1.3022
 IR Inten    --      2.1173                 0.0902                 0.9080

                     31                     32                     33
                      A                      A                      A
 Frequencies --   1297.3272              1333.5190              1371.2762
 Red. masses --      1.4003                 1.6675                 1.4569
 Frc consts  --      1.3886                 1.7471                 1.6140
 IR Inten    --      3.5946                 8.3800                14.8784

                     34                     35                     36
                      A                      A                      A
 Frequencies --   1409.4743              1430.2589              1439.0603
 Red. masses --      1.2144                 1.1996                 1.1158
 Frc consts  --      1.4215                 1.4458                 1.3614
 IR Inten    --      4.0292                 5.5965                 6.0284

                     37                     38                     39
                      A                      A                      A
 Frequencies --   1464.8499              1493.5586              1494.9009
 Red. masses --      1.0965                 1.0441                 1.0488
 Frc consts  --      1.3863                 1.3723                 1.3809
 IR Inten    --      5.8948                 8.2480                 2.2932

                     40                     41                     42
                      A                      A                      A
 Frequencies --   1835.8182              1891.8233              2856.8377
 Red. masses --     10.0392                12.6315                 1.0814
 Frc consts  --     19.9347                26.6358                 5.2000
 IR Inten    --    186.2826               257.0472                99.6945

                     43                     44                     45
                      A                      A                      A
 Frequencies --   3007.1303              3013.6293              3038.2570
 Red. masses --      1.0656                 1.0808                 1.0352
 Frc consts  --      5.6771                 5.7835                 5.6302
 IR Inten    --      5.6793                10.0826                18.0537

                     46                     47                     48
                      A                      A                      A
 Frequencies --   3048.7755              3057.6819              3093.3343
 Red. masses --      1.0649                 1.0811                 1.0970
 Frc consts  --      5.8318                 5.9552                 6.1846
 IR Inten    --      3.4466                21.4953                13.6466

                     49                     50                     51
                      A                      A                      A
 Frequencies --   3107.2496              3114.6675              3116.3506
 Red. masses --      1.1020                 1.1013                 1.1021
 Frc consts  --      6.2685                 6.2949                 6.3061
 IR Inten    --     19.6983                13.4937                13.1505

 - Thermochemistry -
 -------------------
 Temperature   298.150 Kelvin.  Pressure   1.00000 Atm.
 Atom     1 has atomic number  6 and mass  12.00000

 Molecular mass:   126.06808 amu.
 Principal axes and moments of inertia in atomic units:
                           1         2         3
     Eigenvalues --   522.723592025.724202421.22413
           X            0.99993   0.00955   0.00712
           Y           -0.00956   0.99995   0.00056
           Z           -0.00711  -0.00063   0.99997
 This molecule is an asymmetric top.
 Rotational symmetry number  1.
 Warning -- assumption of classical behavior for rotation
           may cause significant error
 Rotational temperatures (Kelvin)      0.16570     0.04276     0.03577
 Rotational constants (GHZ):           3.45257     0.89091     0.74538
 Zero-point vibrational energy     409812.7 (Joules/Mol)
                                   97.94758 (Kcal/Mol)
 Warning -- explicit consideration of  12 degrees of freedom as
           vibrations may cause significant error
 Vibrational temperatures:     61.69    82.03   126.77   253.04   268.36
          (Kelvin)            308.86   374.68   469.83   537.94   660.58
                              733.01   809.24   944.40  1077.75  1099.16
                             1183.84  1265.90  1326.54  1407.21  1443.34
                             1494.77  1532.15  1579.82  1614.89  1643.37
                             1671.00  1725.54  1753.26  1795.20  1832.71
                             1866.56  1918.63  1972.96  2027.92  2057.82
                             2070.48  2107.59  2148.90  2150.83  2641.33
                             2721.91  4110.35  4326.58  4335.93  4371.37
                             4386.50  4399.32  4450.61  4470.63  4481.31
                             4483.73

 Zero-point correction=                           0.156089 (Hartree/Particle)
 Thermal correction to Energy=                    0.165767
 Thermal correction to Enthalpy=                  0.166711
 Thermal correction to Gibbs Free Energy=         0.120208
 Sum of electronic and zero-point Energies=           -423.047873
 Sum of electronic and thermal Energies=              -423.038196
 Sum of electronic and thermal Enthalpies=            -423.037252
 Sum of electronic and thermal Free Energies=         -423.083755

                     E (Thermal)             CV                S
                      KCal/Mol        Cal/Mol-Kelvin    Cal/Mol-Kelvin
 Total                  104.020             34.124             97.875
 Electronic               0.000              0.000              0.000
 Translational            0.889              2.981             40.409
 Rotational               0.889              2.981             29.329
 Vibrational            102.243             28.163             28.138
 Vibration     1          0.595              1.980              5.122
 Vibration     2          0.596              1.975              4.558
 Vibration     3          0.601              1.958              3.702
 Vibration     4          0.628              1.872              2.372
 Vibration     5          0.632              1.858              2.262
 Vibration     6          0.645              1.819              2.004
 Vibration     7          0.668              1.745              1.659
 Vibration     8          0.710              1.622              1.277
 Vibration     9          0.745              1.526              1.064
 Vibration    10          0.817              1.341              0.769
 Vibration    11          0.865              1.229              0.635
 Vibration    12          0.918              1.113              0.519

 Optimization completed.
    -- Stationary point found.
 Normal termination of Gaussian 09 at Mon Jan 27 22:47:38 2020.
