 Gaussian 09, Revision D.01,
 Gaussian 09:  ES64L-G09RevD.01 24-Apr-2013

 -----------------------------
 # b3lyp 6-31G(2df,p) opt Freq
 -----------------------------

 -----
 titel
 -----
 Symbolic Z-matrix:
 Charge =  0 Multiplicity = 1

 SCF Done:  E(RB3LYP) =  -423.198381685     A.U. after   14 cycles
 SCF Done:  E(RB3LYP) =  -423.198381366     A.U. after    9 cycles
 SCF Done:  E(RB3LYP) =  -423.198376098     A.U. after   10 cycles
 SCF Done:  E(RB3LYP) =  -423.198381748     A.U. after    9 cycles
 SCF Done:  E(RB3LYP) =  -423.198381825     A.U. after    7 cycles
 Optimization completed.
    -- Stationary point found.
 Normal termination of Gaussian 09 at Tue Jan 28 04:26:28 2020.

 ----------------------------------------------------------------------
 #N Geom=AllCheck Guess=TCheck SCRF=Check GenChk RB3LYP/6-31G(2df,p) Fr
 eq
 ----------------------------------------------------------------------

 Structure from the checkpoint file:  "/scratch/puck/g09_6ef322d9-6253-4eaf-a546-b37acedfe230/Gau-4135.chk"
 -----
 titel
 -----
 Charge =  0 Multiplicity = 1

                         Standard orientation:
 ---------------------------------------------------------------------
 Center     Atomic      Atomic             Coordinates (Angstroms)
 Number     Number       Type             X           Y           Z
 ---------------------------------------------------------------------
      1          6           0       -1.206666    2.019583   -0.323072
      2          6           0       -1.157949    0.510939   -0.487252
      3          6           0       -2.348902   -0.353405    0.013100
      4          6           0       -1.342067   -1.388605    0.577462
      5          6           0       -0.226518   -0.321545    0.483891
      6          6           0        1.096634   -0.727860   -0.087661
      7          8           0        1.319170   -1.773925   -0.657822
      8          6           0        2.249985    0.283340    0.005832
      9          8           0        2.147446    1.373683    0.504671
     10          1           0       -0.237552    2.477400   -0.543366
     11          1           0       -1.953065    2.459919   -0.993650
     12          1           0       -1.475921    2.292130    0.703320
     13          1           0       -0.918372    0.246254   -1.523350
     14          1           0       -2.898032    0.158645    0.809620
     15          1           0       -3.065051   -0.698339   -0.736173
     16          1           0       -1.544164   -1.804048    1.566524
     17          1           0       -1.144480   -2.207483   -0.117878
     18          1           0       -0.075234    0.241348    1.408916
     19          1           0        3.191848   -0.098571   -0.442550
 ---------------------------------------------------------------------

 SCF Done:  E(RB3LYP) =  -423.198381825     A.U. after    1 cycles

 The electronic state is 1-A.
 Alpha  occ. eigenvalues --  -19.17161 -19.15635 -10.28803 -10.28089 -10.20458
 Alpha  occ. eigenvalues --  -10.19977 -10.18735 -10.18714 -10.17869  -1.07713
 Alpha  occ. eigenvalues --   -1.05835  -0.85853  -0.73401  -0.72046  -0.66065
 Alpha  occ. eigenvalues --   -0.62441  -0.57311  -0.53875  -0.49801  -0.47921
 Alpha  occ. eigenvalues --   -0.46608  -0.45387  -0.44304  -0.41892  -0.41450
 Alpha  occ. eigenvalues --   -0.40360  -0.38561  -0.36744  -0.34521  -0.33250
 Alpha  occ. eigenvalues --   -0.32054  -0.30964  -0.30409  -0.24725
 Alpha virt. eigenvalues --   -0.09332   0.02785   0.09242   0.09446   0.11387
 Alpha virt. eigenvalues --    0.12559   0.13359   0.15683   0.16267   0.17245
 Alpha virt. eigenvalues --    0.17500   0.18261   0.18723   0.20558   0.21790

 Mulliken charges:
               1
     1  C   -0.409327
     2  C    0.034935
     3  C   -0.229753
     4  C   -0.252331
     5  C   -0.085852
     6  C    0.266873
     7  O   -0.288328
     8  C    0.091664
     9  O   -0.220678
    10  H    0.133471
    11  H    0.116856
    12  H    0.115981
    13  H    0.084689
    14  H    0.103045
    15  H    0.103110
    16  H    0.104639
    17  H    0.125818
    18  H    0.097447
    19  H    0.107741
 Sum of Mulliken charges =   0.00000

 Dipole moment (field-independent basis, Debye):
    X=             -1.2421    Y=              0.3389    Z=              0.1964  Tot=              1.3024
 Quadrupole moment (field-independent basis, Debye-Ang):
   XX=            -52.4850   YY=            -60.0980   ZZ=            -52.2743
   XY=             -0.9159   XZ=             -0.3037   YZ=             -3.3013

  Exact polarizability:  87.780  -1.353  82.267  -2.545   3.128  62.052
 Approx polarizability: 112.695  -5.474 130.182  -3.830  15.029 100.284

                      1                      2                      3
                      A                      A                      A
 Frequencies --     37.3550                89.9103               120.5417
 Red. masses --      5.2189                 2.6342                 3.5994
 Frc consts  --      0.0043                 0.0125                 0.0308
 IR Inten    --      0.1158                 0.0500                17.0958

                      4                      5                      6
                      A                      A                      A
 Frequencies --    139.4667               200.7595               230.6669
 Red. masses --      3.2217                 2.3871                 1.3064
 Frc consts  --      0.0369                 0.0567                 0.0410
 IR Inten    --      0.5215                 3.0607                 1.5763

                      7                      8                      9
                      A                      A                      A
 Frequencies --    257.2113               317.2625               402.5309
 Red. masses --      3.0116                 3.1983                 2.3554
 Frc consts  --      0.1174                 0.1897                 0.2249
 IR Inten    --      6.6139                 8.7402                 0.4210

                     10                     11                     12
                      A                      A                      A
 Frequencies --    511.7009               555.9593               592.4245
 Red. masses --      5.1708                 3.5841                 3.4908
 Frc consts  --      0.7977                 0.6527                 0.7218
 IR Inten    --      4.2642                31.5812                 5.1139

                     13                     14                     15
                      A                      A                      A
 Frequencies --    652.2157               750.9858               794.8546
 Red. masses --      3.3890                 2.2236                 1.4317
 Frc consts  --      0.8494                 0.7389                 0.5330
 IR Inten    --     25.1991                 2.0839                 0.3682

                     16                     17                     18
                      A                      A                      A
 Frequencies --    888.5513               905.7638               934.8711
 Red. masses --      2.3223                 2.1624                 1.6891
 Frc consts  --      1.0803                 1.0452                 0.8698
 IR Inten    --      3.9241                 3.2212                 1.1836

                     19                     20                     21
                      A                      A                      A
 Frequencies --    959.3015               980.7876              1006.6045
 Red. masses --      1.6619                 2.1052                 1.4879
 Frc consts  --      0.9011                 1.1932                 0.8883
 IR Inten    --      2.4365                 0.3906                 5.6708

                     22                     23                     24
                      A                      A                      A
 Frequencies --   1058.5994              1106.0428              1132.1727
 Red. masses --      2.2412                 2.8574                 1.9115
 Frc consts  --      1.4797                 2.0595                 1.4436
 IR Inten    --      7.6970                 5.5517                 2.1553

                     25                     26                     27
                      A                      A                      A
 Frequencies --   1159.5239              1180.0870              1224.3648
 Red. masses --      1.8568                 2.4690                 1.3048
 Frc consts  --      1.4709                 2.0258                 1.1524
 IR Inten    --      0.6333                23.1860                 5.8827

                     28                     29                     30
                      A                      A                      A
 Frequencies --   1236.3358              1264.8533              1273.6374
 Red. masses --      1.3244                 1.2987                 1.3954
 Frc consts  --      1.1927                 1.2241                 1.3336
 IR Inten    --      4.7539                 2.3720                 1.1747

                     31                     32                     33
                      A                      A                      A
 Frequencies --   1288.5363              1360.6831              1363.2507
 Red. masses --      1.3735                 1.4628                 1.2623
 Frc consts  --      1.3437                 1.5957                 1.3821
 IR Inten    --      2.8135                 2.9643                 6.9727

                     34                     35                     36
                      A                      A                      A
 Frequencies --   1380.8671              1413.3083              1485.0114
 Red. masses --      1.7444                 1.2737                 1.0741
 Frc consts  --      1.9597                 1.4989                 1.3956
 IR Inten    --     30.0987                 5.6296                 1.8249

                     37                     38                     39
                      A                      A                      A
 Frequencies --   1491.6016              1494.3176              1502.4768
 Red. masses --      1.0545                 1.0489                 1.1274
 Frc consts  --      1.3823                 1.3800                 1.4994
 IR Inten    --      6.5544                 1.6440                 3.2989

                     40                     41                     42
                      A                      A                      A
 Frequencies --   1788.4464              1820.3036              2920.9648
 Red. masses --     11.3359                11.0031                 1.0878
 Frc consts  --     21.3628                21.4810                 5.4681
 IR Inten    --     99.8508                92.5800               110.7112

                     43                     44                     45
                      A                      A                      A
 Frequencies --   3028.7304              3039.5356              3053.1775
 Red. masses --      1.0359                 1.0839                 1.0598
 Frc consts  --      5.5989                 5.8998                 5.8206
 IR Inten    --     19.0016                 7.6222                38.5983

                     46                     47                     48
                      A                      A                      A
 Frequencies --   3073.9257              3080.2720              3094.8195
 Red. masses --      1.0588                 1.0850                 1.1010
 Frc consts  --      5.8946                 6.0656                 6.2129
 IR Inten    --     29.2239                 3.8296                22.2557

                     49                     50                     51
                      A                      A                      A
 Frequencies --   3105.7841              3109.4564              3131.5055
 Red. masses --      1.1049                 1.1016                 1.1073
 Frc consts  --      6.2795                 6.2756                 6.3976
 IR Inten    --     30.5142                13.8305                27.0676

 - Thermochemistry -
 -------------------
 Temperature   298.150 Kelvin.  Pressure   1.00000 Atm.
 Atom     1 has atomic number  6 and mass  12.00000

 Molecular mass:   126.06808 amu.
 Principal axes and moments of inertia in atomic units:
                           1         2         3
     Eigenvalues --   800.298451317.092631889.44396
           X            0.99983  -0.01796  -0.00457
           Y            0.01784   0.99952  -0.02519
           Z            0.00502   0.02510   0.99967
 This molecule is an asymmetric top.
 Rotational symmetry number  1.
 Warning -- assumption of classical behavior for rotation
           may cause significant error
 Rotational temperatures (Kelvin)      0.10823     0.06576     0.04584
 Rotational constants (GHZ):           2.25509     1.37025     0.95517
 Zero-point vibrational energy     412665.7 (Joules/Mol)
                                   98.62947 (Kcal/Mol)
 Warning -- explicit consideration of  12 degrees of freedom as
           vibrations may cause significant error
 Vibrational temperatures:     53.75   129.36   173.43   200.66   288.85
          (Kelvin)            331.88   370.07   456.47   579.15   736.22
                              799.90   852.37   938.39  1080.50  1143.62
                             1278.43  1303.19  1345.07  1380.22  1411.13
                             1448.28  1523.09  1591.35  1628.94  1668.29
                             1697.88  1761.59  1778.81  1819.84  1832.48
                             1853.91  1957.72  1961.41  1986.76  2033.43
                             2136.60  2146.08  2149.99  2161.73  2573.17
                             2619.01  4202.61  4357.66  4373.21  4392.84
                             4422.69  4431.82  4452.75  4468.53  4473.81
                             4505.53

 Zero-point correction=                           0.157176 (Hartree/Particle)
 Thermal correction to Energy=                    0.166622
 Thermal correction to Enthalpy=                  0.167566
 Thermal correction to Gibbs Free Energy=         0.121884
 Sum of electronic and zero-point Energies=           -423.041206
 Sum of electronic and thermal Energies=              -423.031760
 Sum of electronic and thermal Enthalpies=            -423.030816
 Sum of electronic and thermal Free Energies=         -423.076498

                     E (Thermal)             CV                S
                      KCal/Mol        Cal/Mol-Kelvin    Cal/Mol-Kelvin
 Total                  104.557             33.569             96.146
 Electronic               0.000              0.000              0.000
 Translational            0.889              2.981             40.409
 Rotational               0.889              2.981             29.078
 Vibrational            102.779             27.607             26.659
 Vibration     1          0.594              1.982              5.395
 Vibration     2          0.602              1.956              3.662
 Vibration     3          0.609              1.932              3.092
 Vibration     4          0.615              1.914              2.811
 Vibration     5          0.638              1.839              2.126
 Vibration     6          0.652              1.794              1.874
 Vibration     7          0.667              1.751              1.681
 Vibration     8          0.704              1.641              1.324
 Vibration     9          0.768              1.465              0.953
 Vibration    10          0.867              1.224              0.630
 Vibration    11          0.911              1.127              0.532
 Vibration    12          0.950              1.048              0.463

 Normal termination of Gaussian 09 at Tue Jan 28 05:02:20 2020.
