 Gaussian 09, Revision D.01,
 Gaussian 09:  ES64L-G09RevD.01 24-Apr-2013

 -----------------------------
 # b3lyp 6-31G(2df,p) opt Freq
 -----------------------------

 -----
 titel
 -----
 Symbolic Z-matrix:
 Charge =  0 Multiplicity = 1

 SCF Done:  E(RB3LYP) =  -423.153293072     A.U. after   13 cycles
 Optimization completed.
    -- Stationary point found.
 Normal termination of Gaussian 09 at Mon Jan 27 22:52:13 2020.

 ----------------------------------------------------------------------
 #N Geom=AllCheck Guess=TCheck SCRF=Check GenChk RB3LYP/6-31G(2df,p) Fr
 eq
 ----------------------------------------------------------------------

 Structure from the checkpoint file:  "/scratch/puck/g09_16e97ea9-c80e-4b25-87a7-c4a263ab6156/Gau-183090.chk"
 -----
 titel
 -----
 Charge =  0 Multiplicity = 1

                         Standard orientation:
 ---------------------------------------------------------------------
 Center     Atomic      Atomic             Coordinates (Angstroms)
 Number     Number       Type             X           Y           Z
 ---------------------------------------------------------------------
      1          8           0        2.525130   -0.200941    0.008643
      2          6           0        1.318422   -0.901017    0.005248
      3          6           0        0.157290   -0.495892   -0.948075
      4          6           0       -0.823708   -1.254388    0.002909
      5          6           0       -2.179065   -0.537654    0.001634
      6          6           0       -1.698169    0.936072   -0.006533
      7          6           0       -0.186728    0.698579   -0.007378
      8          8           0        0.646663    1.831267   -0.088255
      9          6           0        0.153827   -0.500869    0.955700
     10          1           0        2.303443    0.739795   -0.026788
     11          1           0        1.570594   -1.965521    0.003567
     12          1           0        0.139321   -0.485683   -2.039735
     13          1           0       -0.806619   -2.344382   -0.001086
     14          1           0       -2.776825   -0.789180   -0.879575
     15          1           0       -2.775019   -0.784458    0.885530
     16          1           0       -2.016655    1.494482   -0.891868
     17          1           0       -2.023397    1.498118    0.876827
     18          1           0        0.427929    2.422154    0.640909
     19          1           0        0.131671   -0.496919    2.048084
 ---------------------------------------------------------------------

 SCF Done:  E(RB3LYP) =  -423.153293072     A.U. after    1 cycles

 The electronic state is 1-A.
 Alpha  occ. eigenvalues --  -19.16048 -19.11667 -10.24610 -10.22803 -10.19645
 Alpha  occ. eigenvalues --  -10.19030 -10.18880 -10.18531 -10.18497  -1.04589
 Alpha  occ. eigenvalues --   -1.00442  -0.91333  -0.77107  -0.68683  -0.63526
 Alpha  occ. eigenvalues --   -0.62829  -0.58307  -0.54597  -0.52227  -0.49761
 Alpha  occ. eigenvalues --   -0.46001  -0.43992  -0.43217  -0.39824  -0.39033
 Alpha  occ. eigenvalues --   -0.37070  -0.35804  -0.35549  -0.34290  -0.31359
 Alpha  occ. eigenvalues --   -0.30514  -0.28965  -0.26345  -0.24125
 Alpha virt. eigenvalues --    0.06245   0.09394   0.12477   0.12678   0.14367
 Alpha virt. eigenvalues --    0.14529   0.14742   0.15204   0.15532   0.17665
 Alpha virt. eigenvalues --    0.18168   0.19110   0.20433   0.20943   0.22306

 Mulliken charges:
               1
     1  O   -0.461420
     2  C    0.177332
     3  C   -0.156387
     4  C   -0.009462
     5  C   -0.243255
     6  C   -0.299488
     7  C    0.429042
     8  O   -0.498953
     9  C   -0.189838
    10  H    0.286585
    11  H    0.075350
    12  H    0.069377
    13  H    0.071073
    14  H    0.103202
    15  H    0.100856
    16  H    0.107220
    17  H    0.089825
    18  H    0.286404
    19  H    0.062536
 Sum of Mulliken charges =   0.00000

 Dipole moment (field-independent basis, Debye):
    X=             -2.5881    Y=              0.9201    Z=              0.9587  Tot=              2.9093
 Quadrupole moment (field-independent basis, Debye-Ang):
   XX=            -60.1339   YY=            -49.0518   ZZ=            -51.7342
   XY=              1.3260   XZ=              0.4730   YZ=              3.1143

  Exact polarizability:  81.650  -0.659  75.442  -0.062   1.317  65.964
 Approx polarizability: 112.074   1.184 112.028  -0.703   1.442 106.063

                      1                      2                      3
                      A                      A                      A
 Frequencies --    214.7070               236.5725               253.1721
 Red. masses --      2.2618                 2.3734                 4.6299
 Frc consts  --      0.0614                 0.0783                 0.1748
 IR Inten    --      2.0026                 2.5214                 1.0016

                      4                      5                      6
                      A                      A                      A
 Frequencies --    310.3260               391.9618               408.7771
 Red. masses --      1.2113                 3.9031                 3.1771
 Frc consts  --      0.0687                 0.3533                 0.3128
 IR Inten    --     57.6985                14.3951                 8.1499

                      7                      8                      9
                      A                      A                      A
 Frequencies --    443.7568               495.8817               590.3048
 Red. masses --      2.4180                 5.6092                 1.1567
 Frc consts  --      0.2805                 0.8127                 0.2375
 IR Inten    --      0.8166                 1.2510                87.5566

                     10                     11                     12
                      A                      A                      A
 Frequencies --    644.8232               710.4585               719.4628
 Red. masses --      5.5564                 3.6769                 4.0048
 Frc consts  --      1.3612                 1.0935                 1.2214
 IR Inten    --      9.0461                 1.0007                 2.5132

                     13                     14                     15
                      A                      A                      A
 Frequencies --    731.6616               829.3138               838.4028
 Red. masses --      3.1791                 1.4794                 1.9337
 Frc consts  --      1.0027                 0.5995                 0.8008
 IR Inten    --      1.6148                 0.1560                 0.9470

                     16                     17                     18
                      A                      A                      A
 Frequencies --    867.5855               923.1031               927.6932
 Red. masses --      2.3944                 2.1076                 1.9993
 Frc consts  --      1.0619                 1.0581                 1.0138
 IR Inten    --      2.3629                 5.3104                10.4024

                     19                     20                     21
                      A                      A                      A
 Frequencies --    953.1212              1004.9600              1034.4855
 Red. masses --      2.1797                 2.1672                 2.1763
 Frc consts  --      1.1667                 1.2896                 1.3722
 IR Inten    --      2.8205                 4.5873                22.7483

                     22                     23                     24
                      A                      A                      A
 Frequencies --   1046.2854              1066.1829              1090.9431
 Red. masses --      1.3425                 1.9241                 1.4321
 Frc consts  --      0.8659                 1.2887                 1.0042
 IR Inten    --      3.3744                 2.1620                 1.5305

                     25                     26                     27
                      A                      A                      A
 Frequencies --   1111.9552              1136.7576              1152.6671
 Red. masses --      3.4193                 1.6513                 1.8885
 Frc consts  --      2.4910                 1.2572                 1.4783
 IR Inten    --     63.6127                23.8698                 3.9375

                     28                     29                     30
                      A                      A                      A
 Frequencies --   1187.8181              1191.6895              1213.7585
 Red. masses --      2.3612                 1.5401                 1.5591
 Frc consts  --      1.9628                 1.2887                 1.3533
 IR Inten    --    148.1410                 1.1256                48.0333

                     31                     32                     33
                      A                      A                      A
 Frequencies --   1235.7818              1253.3828              1266.9775
 Red. masses --      1.5226                 1.3017                 2.1980
 Frc consts  --      1.3700                 1.2048                 2.0788
 IR Inten    --      0.9475                 4.4432                54.9090

                     34                     35                     36
                      A                      A                      A
 Frequencies --   1279.5004              1306.9647              1330.2212
 Red. masses --      1.8430                 1.5889                 1.5406
 Frc consts  --      1.7777                 1.5991                 1.6062
 IR Inten    --     37.8941                20.8349                 1.0885

                     37                     38                     39
                      A                      A                      A
 Frequencies --   1357.1791              1390.1155              1489.0716
 Red. masses --      1.6555                 1.8229                 1.2137
 Frc consts  --      1.7966                 2.0755                 1.5856
 IR Inten    --     30.3984                15.8141               106.9026

                     40                     41                     42
                      A                      A                      A
 Frequencies --   1489.5468              1511.3763              3034.6735
 Red. masses --      1.0924                 1.1108                 1.0621
 Frc consts  --      1.4280                 1.4949                 5.7630
 IR Inten    --      8.5844                 1.1870                38.2314

                     43                     44                     45
                      A                      A                      A
 Frequencies --   3052.3908              3068.8726              3078.4580
 Red. masses --      1.0604                 1.0850                 1.1025
 Frc consts  --      5.8210                 6.0208                 6.1560
 IR Inten    --     45.8969                51.1821                 3.0646

                     46                     47                     48
                      A                      A                      A
 Frequencies --   3084.8618              3095.9267              3097.2532
 Red. masses --      1.0901                 1.0918                 1.1034
 Frc consts  --      6.1122                 6.1657                 6.2362
 IR Inten    --     70.2406                 9.6137                56.8127

                     49                     50                     51
                      A                      A                      A
 Frequencies --   3118.3386              3739.8607              3802.2023
 Red. masses --      1.0905                 1.0648                 1.0658
 Frc consts  --      6.2479                 8.7747                 9.0783
 IR Inten    --     42.2337                83.1583                24.6273

 - Thermochemistry -
 -------------------
 Temperature   298.150 Kelvin.  Pressure   1.00000 Atm.
 Atom     1 has atomic number  8 and mass  15.99491

 Molecular mass:   126.06808 amu.
 Principal axes and moments of inertia in atomic units:
                           1         2         3
     Eigenvalues --   588.165021058.096301404.63998
           X            1.00000  -0.00175   0.00079
           Y            0.00174   0.99988   0.01510
           Z           -0.00082  -0.01510   0.99989
 This molecule is an asymmetric top.
 Rotational symmetry number  1.
 Warning -- assumption of classical behavior for rotation
           may cause significant error
 Rotational temperatures (Kelvin)      0.14726     0.08186     0.06166
 Rotational constants (GHZ):           3.06843     1.70565     1.28484
 Zero-point vibrational energy     423547.1 (Joules/Mol)
                                  101.23018 (Kcal/Mol)
 Warning -- explicit consideration of   9 degrees of freedom as
           vibrations may cause significant error
 Vibrational temperatures:    308.92   340.37   364.26   446.49   563.94
          (Kelvin)            588.14   638.47   713.46   849.32   927.76
                             1022.19  1035.15  1052.70  1193.20  1206.27
                             1248.26  1328.14  1334.74  1371.33  1445.91
                             1488.39  1505.37  1534.00  1569.62  1599.85
                             1635.54  1658.43  1709.00  1714.57  1746.33
                             1778.01  1803.34  1822.90  1840.91  1880.43
                             1913.89  1952.68  2000.06  2142.44  2143.12
                             2174.53  4366.21  4391.70  4415.42  4429.21
                             4438.42  4454.34  4456.25  4486.59  5380.82
                             5470.51

 Zero-point correction=                           0.161321 (Hartree/Particle)
 Thermal correction to Energy=                    0.168534
 Thermal correction to Enthalpy=                  0.169478
 Thermal correction to Gibbs Free Energy=         0.130285
 Sum of electronic and zero-point Energies=           -422.991973
 Sum of electronic and thermal Energies=              -422.984759
 Sum of electronic and thermal Enthalpies=            -422.983815
 Sum of electronic and thermal Free Energies=         -423.023008

                     E (Thermal)             CV                S
                      KCal/Mol        Cal/Mol-Kelvin    Cal/Mol-Kelvin
 Total                  105.757             30.449             82.489
 Electronic               0.000              0.000              0.000
 Translational            0.889              2.981             40.409
 Rotational               0.889              2.981             28.260
 Vibrational            103.979             24.487             13.821
 Vibration     1          0.645              1.819              2.003
 Vibration     2          0.655              1.785              1.829
 Vibration     3          0.664              1.757              1.708
 Vibration     4          0.699              1.654              1.361
 Vibration     5          0.759              1.487              0.993
 Vibration     6          0.773              1.451              0.931
 Vibration     7          0.803              1.375              0.815
 Vibration     8          0.851              1.259              0.669
 Vibration     9          0.948              1.052              0.467

 Optimization completed.
    -- Stationary point found.
 Normal termination of Gaussian 09 at Mon Jan 27 23:40:27 2020.
