 Gaussian 09, Revision D.01,
 Gaussian 09:  ES64L-G09RevD.01 24-Apr-2013

 -----------------------------
 # b3lyp 6-31G(2df,p) opt Freq
 -----------------------------

 -----
 titel
 -----
 Symbolic Z-matrix:
 Charge =  0 Multiplicity = 1

 SCF Done:  E(RB3LYP) =  -423.169421801     A.U. after   15 cycles
 Optimization completed.
    -- Stationary point found.
 Normal termination of Gaussian 09 at Tue Jan 28 08:09:00 2020.

 ----------------------------------------------------------------------
 #N Geom=AllCheck Guess=TCheck SCRF=Check GenChk RB3LYP/6-31G(2df,p) Fr
 eq
 ----------------------------------------------------------------------

 Structure from the checkpoint file:  "/scratch/puck/g09_72ab67b5-35a0-49d2-950d-9674f204beff/Gau-11731.chk"
 -----
 titel
 -----
 Charge =  0 Multiplicity = 1

                         Standard orientation:
 ---------------------------------------------------------------------
 Center     Atomic      Atomic             Coordinates (Angstroms)
 Number     Number       Type             X           Y           Z
 ---------------------------------------------------------------------
      1          6           0        2.973780    1.657421   -0.018604
      2          6           0        1.641184    0.938267    0.170898
      3          6           0        1.744630   -0.567781    0.027202
      4          8           0        2.762758   -1.130241   -0.294726
      5          6           0        0.488871   -1.404838    0.361639
      6          6           0       -0.791310   -0.806786    0.014331
      7          6           0       -1.841864   -0.302638   -0.293711
      8          6           0       -3.144285    0.277783   -0.621611
      9          8           0       -3.880252    0.702749    0.516882
     10          1           0        3.705627    1.331488    0.725387
     11          1           0        3.395224    1.441686   -1.003399
     12          1           0        2.844303    2.739083    0.074822
     13          1           0        1.194823    1.156275    1.150982
     14          1           0        0.890354    1.282518   -0.552144
     15          1           0        0.621521   -2.381175   -0.115102
     16          1           0        0.527478   -1.584687    1.446728
     17          1           0       -3.013027    1.172722   -1.240090
     18          1           0       -3.719358   -0.441516   -1.226503
     19          1           0       -3.933018   -0.045028    1.121216
 ---------------------------------------------------------------------

 SCF Done:  E(RB3LYP) =  -423.169421801     A.U. after    1 cycles

 The electronic state is 1-A.
 Alpha  occ. eigenvalues --  -19.14549 -19.13589 -10.27755 -10.25720 -10.22003
 Alpha  occ. eigenvalues --  -10.19529 -10.19062 -10.18362 -10.17745  -1.04776
 Alpha  occ. eigenvalues --   -1.02728  -0.80831  -0.77470  -0.74812  -0.68351
 Alpha  occ. eigenvalues --   -0.64751  -0.54520  -0.52718  -0.49674  -0.47989
 Alpha  occ. eigenvalues --   -0.47242  -0.45734  -0.44769  -0.44089  -0.42472
 Alpha  occ. eigenvalues --   -0.37379  -0.36949  -0.36555  -0.35915  -0.34608
 Alpha  occ. eigenvalues --   -0.29661  -0.27660  -0.26805  -0.24153
 Alpha virt. eigenvalues --   -0.01618   0.02583   0.04330   0.09166   0.09724
 Alpha virt. eigenvalues --    0.11930   0.12368   0.14885   0.15273   0.16577
 Alpha virt. eigenvalues --    0.16832   0.18040   0.19275   0.20842   0.21733

 Mulliken charges:
               1
     1  C   -0.378899
     2  C   -0.277820
     3  C    0.388682
     4  O   -0.292540
     5  C   -0.447655
     6  C    0.033755
     7  C    0.069397
     8  C   -0.194101
     9  O   -0.400473
    10  H    0.128633
    11  H    0.134009
    12  H    0.112008
    13  H    0.124531
    14  H    0.140629
    15  H    0.155551
    16  H    0.155027
    17  H    0.141008
    18  H    0.120530
    19  H    0.287727
 Sum of Mulliken charges =   0.00000

 Dipole moment (field-independent basis, Debye):
    X=             -1.3290    Y=             -0.1046    Z=              0.6742  Tot=              1.4939
 Quadrupole moment (field-independent basis, Debye-Ang):
   XX=            -61.9266   YY=            -53.6513   ZZ=            -50.1283
   XY=              8.9570   XZ=              2.8472   YZ=             -3.1721

  Exact polarizability: 109.298  -7.684  73.836   2.866  -2.495  61.048
 Approx polarizability: 150.238 -26.138 107.153   4.826  -4.195  93.970

                      1                      2                      3
                      A                      A                      A
 Frequencies --     19.7404                26.7004                67.9326
 Red. masses --      3.3711                 3.1528                 2.2589
 Frc consts  --      0.0008                 0.0013                 0.0061
 IR Inten    --      1.4595                 6.4228                 0.8214

                      4                      5                      6
                      A                      A                      A
 Frequencies --     81.8477               130.0253               193.4211
 Red. masses --      2.8851                 4.1235                 1.1357
 Frc consts  --      0.0114                 0.0411                 0.0250
 IR Inten    --      0.0836                 1.4773                 0.5092

                      7                      8                      9
                      A                      A                      A
 Frequencies --    208.1596               253.3736               317.5106
 Red. masses --      3.0833                 2.4220                 1.8997
 Frc consts  --      0.0787                 0.0916                 0.1128
 IR Inten    --      4.4259                11.5084                81.4556

                     10                     11                     12
                      A                      A                      A
 Frequencies --    333.7620               384.7605               448.7033
 Red. masses --      2.1717                 4.0080                 3.8175
 Frc consts  --      0.1425                 0.3496                 0.4528
 IR Inten    --     57.6848                 1.2315                 3.4634

                     13                     14                     15
                      A                      A                      A
 Frequencies --    462.1018               565.0934               621.2231
 Red. masses --      3.2015                 5.8050                 3.3953
 Frc consts  --      0.4028                 1.0922                 0.7720
 IR Inten    --      2.2543                11.0325                11.6598

                     16                     17                     18
                      A                      A                      A
 Frequencies --    732.1702               754.3342               813.9516
 Red. masses --      2.2740                 1.8711                 3.1392
 Frc consts  --      0.7182                 0.6273                 1.2254
 IR Inten    --      0.8301                 2.8829                11.3121

                     19                     20                     21
                      A                      A                      A
 Frequencies --    891.7063               986.3033               997.1353
 Red. masses --      1.6267                 1.5767                 1.8441
 Frc consts  --      0.7621                 0.9037                 1.0803
 IR Inten    --      4.7346                36.7099                 4.2397

                     22                     23                     24
                      A                      A                      A
 Frequencies --   1046.4458              1072.9168              1083.3847
 Red. masses --      6.1764                 2.3709                 1.6749
 Frc consts  --      3.9849                 1.6080                 1.1582
 IR Inten    --     89.0961                21.8650                 0.2760

                     25                     26                     27
                      A                      A                      A
 Frequencies --   1140.6523              1159.3211              1211.7645
 Red. masses --      2.7932                 3.0023                 1.2546
 Frc consts  --      2.1412                 2.3774                 1.0854
 IR Inten    --     73.5688                 8.0381                10.1536

                     28                     29                     30
                      A                      A                      A
 Frequencies --   1216.1837              1277.4300              1300.3693
 Red. masses --      1.0913                 1.2018                 1.5581
 Frc consts  --      0.9510                 1.1555                 1.5524
 IR Inten    --     18.0921                 3.2312                10.7299

                     31                     32                     33
                      A                      A                      A
 Frequencies --   1361.2006              1372.8797              1413.7707
 Red. masses --      1.2229                 1.7991                 1.2263
 Frc consts  --      1.3350                 1.9979                 1.4441
 IR Inten    --      6.2449                20.6011                 0.7739

                     34                     35                     36
                      A                      A                      A
 Frequencies --   1418.9868              1440.0957              1443.8058
 Red. masses --      1.2378                 1.0912                 1.0831
 Frc consts  --      1.4684                 1.3334                 1.3303
 IR Inten    --    101.1902                 7.5319                 9.8809

                     37                     38                     39
                      A                      A                      A
 Frequencies --   1491.1171              1492.9924              1498.2109
 Red. masses --      1.0783                 1.0386                 1.0507
 Frc consts  --      1.4126                 1.3641                 1.3896
 IR Inten    --      0.8530                 5.0777                 6.5812

                     40                     41                     42
                      A                      A                      A
 Frequencies --   1815.6632              2358.2874              2977.1648
 Red. masses --     11.3001                11.8573                 1.0713
 Frc consts  --     21.9484                38.8534                 5.5944
 IR Inten    --    181.6648                 8.9095                50.0848

                     43                     44                     45
                      A                      A                      A
 Frequencies --   3006.8383              3026.6212              3051.4146
 Red. masses --      1.0674                 1.0635                 1.0372
 Frc consts  --      5.6857                 5.7401                 5.6900
 IR Inten    --     11.1342                14.8221                20.1021

                     46                     47                     48
                      A                      A                      A
 Frequencies --   3054.7647              3061.8253              3079.8140
 Red. masses --      1.0928                 1.0885                 1.0912
 Frc consts  --      6.0084                 6.0122                 6.0983
 IR Inten    --      7.4806                15.6488                 3.5192

                     49                     50                     51
                      A                      A                      A
 Frequencies --   3121.9918              3128.1305              3816.7722
 Red. masses --      1.1021                 1.1016                 1.0663
 Frc consts  --      6.3290                 6.3512                 9.1519
 IR Inten    --     20.0611                18.4545                21.8827

 - Thermochemistry -
 -------------------
 Temperature   298.150 Kelvin.  Pressure   1.00000 Atm.
 Atom     1 has atomic number  6 and mass  12.00000

 Molecular mass:   126.06808 amu.
 Principal axes and moments of inertia in atomic units:
                           1         2         3
     Eigenvalues --   556.528252878.336503271.81420
           X            0.99967   0.02486   0.00598
           Y           -0.02471   0.99944  -0.02262
           Z           -0.00654   0.02246   0.99973
 This molecule is an asymmetric top.
 Rotational symmetry number  1.
 Warning -- assumption of classical behavior for rotation
           may cause significant error
 Rotational temperatures (Kelvin)      0.15563     0.03009     0.02647
 Rotational constants (GHZ):           3.24286     0.62701     0.55160
 Zero-point vibrational energy     408110.6 (Joules/Mol)
                                   97.54078 (Kcal/Mol)
 Warning -- explicit consideration of  14 degrees of freedom as
           vibrations may cause significant error
 Vibrational temperatures:     28.40    38.42    97.74   117.76   187.08
          (Kelvin)            278.29   299.49   364.55   456.83   480.21
                              553.58   645.58   664.86   813.04   893.80
                             1053.43  1085.32  1171.09  1282.96  1419.07
                             1434.65  1505.60  1543.69  1558.75  1641.14
                             1668.00  1743.46  1749.81  1837.93  1870.94
                             1958.46  1975.27  2034.10  2041.60  2071.97
                             2077.31  2145.38  2148.08  2155.59  2612.33
                             3393.05  4283.47  4326.16  4354.63  4390.30
                             4395.12  4405.28  4431.16  4491.84  4500.68
                             5491.48

 Zero-point correction=                           0.155441 (Hartree/Particle)
 Thermal correction to Energy=                    0.166497
 Thermal correction to Enthalpy=                  0.167441
 Thermal correction to Gibbs Free Energy=         0.116195
 Sum of electronic and zero-point Energies=           -423.013981
 Sum of electronic and thermal Energies=              -423.002925
 Sum of electronic and thermal Enthalpies=            -423.001981
 Sum of electronic and thermal Free Energies=         -423.053227

                     E (Thermal)             CV                S
                      KCal/Mol        Cal/Mol-Kelvin    Cal/Mol-Kelvin
 Total                  104.478             37.158            107.855
 Electronic               0.000              0.000              0.000
 Translational            0.889              2.981             40.409
 Rotational               0.889              2.981             30.040
 Vibrational            102.701             31.196             37.407
 Vibration     1          0.593              1.986              6.660
 Vibration     2          0.593              1.984              6.061
 Vibration     3          0.598              1.970              4.212
 Vibration     4          0.600              1.962              3.846
 Vibration     5          0.612              1.923              2.946
 Vibration     6          0.635              1.849              2.195
 Vibration     7          0.641              1.828              2.060
 Vibration     8          0.665              1.757              1.707
 Vibration     9          0.704              1.640              1.323
 Vibration    10          0.715              1.608              1.242
 Vibration    11          0.754              1.503              1.020
 Vibration    12          0.808              1.364              0.800
 Vibration    13          0.820              1.334              0.760
 Vibration    14          0.921              1.107              0.514

 Optimization completed.
    -- Stationary point found.
 Normal termination of Gaussian 09 at Tue Jan 28 08:42:47 2020.
