 Gaussian 09, Revision D.01,
 Gaussian 09:  ES64L-G09RevD.01 24-Apr-2013

 -----------------------------
 # b3lyp 6-31G(2df,p) opt Freq
 -----------------------------

 -----
 titel
 -----
 Symbolic Z-matrix:
 Charge =  0 Multiplicity = 1

 SCF Done:  E(RB3LYP) =  -423.205548202     A.U. after   13 cycles
 Optimization completed.
    -- Stationary point found.
 Normal termination of Gaussian 09 at Mon Jan 27 14:07:23 2020.

 ----------------------------------------------------------------------
 #N Geom=AllCheck Guess=TCheck SCRF=Check GenChk RB3LYP/6-31G(2df,p) Fr
 eq
 ----------------------------------------------------------------------

 Structure from the checkpoint file:  "/scratch/puck/g09_5ab7271f-0707-4479-8e6c-980e6258c3a6/Gau-171892.chk"
 -----
 titel
 -----
 Charge =  0 Multiplicity = 1

                         Standard orientation:
 ---------------------------------------------------------------------
 Center     Atomic      Atomic             Coordinates (Angstroms)
 Number     Number       Type             X           Y           Z
 ---------------------------------------------------------------------
      1          6           0        2.413908   -1.566736   -0.449434
      2          6           0        1.824417   -0.291248    0.118237
      3          8           0        2.289949    0.259106    1.095050
      4          6           0        0.626710    0.258636   -0.586374
      5          6           0        0.452252    1.771507   -0.598665
      6          6           0       -0.432236    0.947518    0.270650
      7          6           0       -1.900211    0.753465   -0.059505
      8          6           0       -2.427148   -0.553964    0.496783
      9          8           0       -2.984276   -1.401203   -0.151240
     10          1           0        3.273577   -1.878906    0.144108
     11          1           0        1.658553   -2.361102   -0.457738
     12          1           0        2.718503   -1.410196   -1.490811
     13          1           0        0.275542   -0.289339   -1.454370
     14          1           0        1.241612    2.336519   -0.116112
     15          1           0        0.035977    2.212254   -1.497870
     16          1           0       -0.183689    0.963738    1.328454
     17          1           0       -2.482374    1.569944    0.392817
     18          1           0       -2.078518    0.769422   -1.138672
     19          1           0       -2.250726   -0.690626    1.589557
 ---------------------------------------------------------------------

 SCF Done:  E(RB3LYP) =  -423.205548202     A.U. after    1 cycles

 The electronic state is 1-A.
 Alpha  occ. eigenvalues --  -19.14528 -19.12661 -10.27740 -10.27210 -10.21729
 Alpha  occ. eigenvalues --  -10.20641 -10.20611 -10.20472 -10.19117  -1.05212
 Alpha  occ. eigenvalues --   -1.03831  -0.88245  -0.76733  -0.74895  -0.64461
 Alpha  occ. eigenvalues --   -0.60278  -0.58327  -0.54365  -0.50002  -0.48342
 Alpha  occ. eigenvalues --   -0.46786  -0.44399  -0.44154  -0.43523  -0.41808
 Alpha  occ. eigenvalues --   -0.41107  -0.38598  -0.38369  -0.36879  -0.35689
 Alpha  occ. eigenvalues --   -0.32047  -0.29696  -0.25494  -0.24869
 Alpha virt. eigenvalues --   -0.02638  -0.01632   0.08506   0.10219   0.10547
 Alpha virt. eigenvalues --    0.12398   0.12734   0.13857   0.14553   0.15298
 Alpha virt. eigenvalues --    0.16731   0.18028   0.18946   0.21015   0.22415

 Mulliken charges:
               1
     1  C   -0.486003
     2  C    0.380835
     3  O   -0.326391
     4  C   -0.123256
     5  C   -0.295101
     6  C    0.000238
     7  C   -0.309093
     8  C    0.165779
     9  O   -0.236240
    10  H    0.142459
    11  H    0.144861
    12  H    0.141699
    13  H    0.096119
    14  H    0.141840
    15  H    0.119720
    16  H    0.117462
    17  H    0.127042
    18  H    0.120422
    19  H    0.077609
 Sum of Mulliken charges =   0.00000

 Dipole moment (field-independent basis, Debye):
    X=              0.0621    Y=              1.0935    Z=             -1.1999  Tot=              1.6246
 Quadrupole moment (field-independent basis, Debye-Ang):
   XX=            -61.7927   YY=            -53.5721   ZZ=            -53.1343
   XY=             -9.1114   XZ=             -7.3309   YZ=             -1.3852

  Exact polarizability:  85.025  -2.079  78.862   2.474   1.905  69.485
 Approx polarizability: 111.145   3.710 115.570  10.015  10.098 113.734

                      1                      2                      3
                      A                      A                      A
 Frequencies --     36.7175                55.1505                89.3595
 Red. masses --      5.5578                 4.9891                 2.8446
 Frc consts  --      0.0044                 0.0089                 0.0134
 IR Inten    --      6.6291                 5.3040                 2.3303

                      4                      5                      6
                      A                      A                      A
 Frequencies --    114.8912               144.0430               198.8627
 Red. masses --      2.7105                 1.1066                 3.2581
 Frc consts  --      0.0211                 0.0135                 0.0759
 IR Inten    --      4.2355                 0.0846                 3.0462

                      7                      8                      9
                      A                      A                      A
 Frequencies --    269.8360               337.9223               380.4015
 Red. masses --      3.0589                 3.0139                 2.5154
 Frc consts  --      0.1312                 0.2028                 0.2145
 IR Inten    --      1.4725                 2.8722                 2.2858

                     10                     11                     12
                      A                      A                      A
 Frequencies --    407.1220               506.1723               593.3191
 Red. masses --      3.1013                 2.9823                 3.5780
 Frc consts  --      0.3029                 0.4502                 0.7421
 IR Inten    --      1.3531                14.1752                 9.9249

                     13                     14                     15
                      A                      A                      A
 Frequencies --    600.2659               747.2582               786.7206
 Red. masses --      2.4040                 1.8634                 1.9875
 Frc consts  --      0.5104                 0.6131                 0.7248
 IR Inten    --      1.3812                 1.3070                 1.9078

                     16                     17                     18
                      A                      A                      A
 Frequencies --    845.2633               891.9657               922.6948
 Red. masses --      2.4178                 1.7262                 1.9325
 Frc consts  --      1.0178                 0.8092                 0.9694
 IR Inten    --      4.5799                 5.6229                 8.2812

                     19                     20                     21
                      A                      A                      A
 Frequencies --    952.4245               966.7570              1026.2050
 Red. masses --      2.1118                 1.8275                 2.0922
 Frc consts  --      1.1287                 1.0064                 1.2981
 IR Inten    --     12.1369                45.9610                12.4886

                     22                     23                     24
                      A                      A                      A
 Frequencies --   1052.2699              1065.5235              1086.5581
 Red. masses --      1.9033                 1.9776                 1.4283
 Frc consts  --      1.2417                 1.3229                 0.9935
 IR Inten    --      4.7695                15.1770                 5.7853

                     25                     26                     27
                      A                      A                      A
 Frequencies --   1120.8542              1138.2189              1165.9769
 Red. masses --      1.2591                 1.4356                 1.7337
 Frc consts  --      0.9320                 1.0958                 1.3887
 IR Inten    --      7.3725                 0.7548                10.7599

                     28                     29                     30
                      A                      A                      A
 Frequencies --   1192.3047              1215.4801              1244.5727
 Red. masses --      2.0536                 1.4848                 1.5588
 Frc consts  --      1.7201                 1.2924                 1.4226
 IR Inten    --     93.6943                 1.6531                14.1103

                     31                     32                     33
                      A                      A                      A
 Frequencies --   1289.9597              1355.8491              1383.3849
 Red. masses --      1.4025                 1.4486                 1.3725
 Frc consts  --      1.3750                 1.5690                 1.5476
 IR Inten    --      2.5538                29.8985                39.6330

                     34                     35                     36
                      A                      A                      A
 Frequencies --   1429.2751              1431.4548              1459.0876
 Red. masses --      1.3494                 1.4169                 1.0952
 Frc consts  --      1.6241                 1.7106                 1.3737
 IR Inten    --     32.8587                21.0168                 5.7996

                     37                     38                     39
                      A                      A                      A
 Frequencies --   1463.4891              1474.9128              1477.0229
 Red. masses --      1.0606                 1.0492                 1.5297
 Frc consts  --      1.3384                 1.3448                 1.9662
 IR Inten    --     10.6172                 8.7196                16.2849

                     40                     41                     42
                      A                      A                      A
 Frequencies --   1790.6530              1837.6316              2860.4129
 Red. masses --     10.0884                10.1089                 1.0822
 Frc consts  --     19.0588                20.1127                 5.2170
 IR Inten    --    129.2401               158.3433               102.3545

                     43                     44                     45
                      A                      A                      A
 Frequencies --   3009.5624              3033.7777              3093.2769
 Red. masses --      1.0654                 1.0372                 1.0981
 Frc consts  --      5.6854                 5.6246                 6.1905
 IR Inten    --     15.5282                 2.1291                 6.7454

                     46                     47                     48
                      A                      A                      A
 Frequencies --   3094.2690              3137.0598              3153.2049
 Red. masses --      1.0954                 1.0536                 1.0874
 Frc consts  --      6.1796                 6.1088                 6.3698
 IR Inten    --      8.6321                10.1663                 3.5466

                     49                     50                     51
                      A                      A                      A
 Frequencies --   3154.5821              3169.0673              3232.8481
 Red. masses --      1.1015                 1.0892                 1.1175
 Frc consts  --      6.4582                 6.4451                 6.8812
 IR Inten    --     10.2718                 7.3442                 2.0723

 - Thermochemistry -
 -------------------
 Temperature   298.150 Kelvin.  Pressure   1.00000 Atm.
 Atom     1 has atomic number  6 and mass  12.00000

 Molecular mass:   126.06808 amu.
 Principal axes and moments of inertia in atomic units:
                           1         2         3
     Eigenvalues --   696.943911948.499322310.21452
           X            0.99895  -0.04273  -0.01624
           Y            0.04272   0.99909  -0.00104
           Z            0.01627   0.00035   0.99987
 This molecule is an asymmetric top.
 Rotational symmetry number  1.
 Warning -- assumption of classical behavior for rotation
           may cause significant error
 Rotational temperatures (Kelvin)      0.12428     0.04445     0.03749
 Rotational constants (GHZ):           2.58951     0.92622     0.78120
 Zero-point vibrational energy     409636.6 (Joules/Mol)
                                   97.90550 (Kcal/Mol)
 Warning -- explicit consideration of  13 degrees of freedom as
           vibrations may cause significant error
 Vibrational temperatures:     52.83    79.35   128.57   165.30   207.25
          (Kelvin)            286.12   388.23   486.19   547.31   585.76
                              728.27   853.65   863.65  1075.14  1131.91
                             1216.14  1283.34  1327.55  1370.32  1390.95
                             1476.48  1513.98  1533.05  1563.31  1612.66
                             1637.64  1677.58  1715.46  1748.80  1790.66
                             1855.96  1950.76  1990.38  2056.41  2059.54
                             2099.30  2105.63  2122.07  2125.10  2576.35
                             2643.94  4115.49  4330.08  4364.92  4450.53
                             4451.96  4513.52  4536.75  4538.73  4559.58
                             4651.34

 Zero-point correction=                           0.156022 (Hartree/Particle)
 Thermal correction to Energy=                    0.165959
 Thermal correction to Enthalpy=                  0.166903
 Thermal correction to Gibbs Free Energy=         0.119409
 Sum of electronic and zero-point Energies=           -423.049526
 Sum of electronic and thermal Energies=              -423.039589
 Sum of electronic and thermal Enthalpies=            -423.038645
 Sum of electronic and thermal Free Energies=         -423.086139

                     E (Thermal)             CV                S
                      KCal/Mol        Cal/Mol-Kelvin    Cal/Mol-Kelvin
 Total                  104.141             34.554             99.960
 Electronic               0.000              0.000              0.000
 Translational            0.889              2.981             40.409
 Rotational               0.889              2.981             29.530
 Vibrational            102.363             28.592             30.022
 Vibration     1          0.594              1.982              5.429
 Vibration     2          0.596              1.976              4.624
 Vibration     3          0.602              1.957              3.674
 Vibration     4          0.608              1.937              3.185
 Vibration     5          0.616              1.909              2.749
 Vibration     6          0.637              1.841              2.144
 Vibration     7          0.674              1.729              1.597
 Vibration     8          0.718              1.600              1.222
 Vibration     9          0.750              1.512              1.038
 Vibration    10          0.772              1.455              0.937
 Vibration    11          0.861              1.236              0.643
 Vibration    12          0.951              1.046              0.461
 Vibration    13          0.958              1.031              0.449

 Normal termination of Gaussian 09 at Mon Jan 27 14:44:40 2020.
