 Gaussian 09, Revision D.01,
 Gaussian 09:  ES64L-G09RevD.01 24-Apr-2013

 -----------------------------
 # b3lyp 6-31G(2df,p) opt Freq
 -----------------------------

 -----
 titel
 -----
 Symbolic Z-matrix:
 Charge =  0 Multiplicity = 1

 SCF Done:  E(RB3LYP) =  -423.203369437     A.U. after   14 cycles
 Optimization completed.
    -- Stationary point found.
 Normal termination of Gaussian 09 at Mon Jan 27 16:10:10 2020.

 ----------------------------------------------------------------------
 #N Geom=AllCheck Guess=TCheck SCRF=Check GenChk RB3LYP/6-31G(2df,p) Fr
 eq
 ----------------------------------------------------------------------

 Structure from the checkpoint file:  "/scratch/puck/g09_493b9d0c-b32e-4f0d-aeb0-8c152c571c52/Gau-56818.chk"
 -----
 titel
 -----
 Charge =  0 Multiplicity = 1

                         Standard orientation:
 ---------------------------------------------------------------------
 Center     Atomic      Atomic             Coordinates (Angstroms)
 Number     Number       Type             X           Y           Z
 ---------------------------------------------------------------------
      1          6           0       -1.653254   -1.033408   -0.853816
      2          6           0       -0.660030   -0.460440    0.139609
      3          8           0       -1.286588   -0.518616    1.431142
      4          6           0        0.709669   -1.107567    0.195658
      5          6           0        1.685746   -0.813604   -0.915398
      6          6           0        1.770229   -0.023059    0.364070
      7          6           0        1.090103    1.334166    0.346540
      8          6           0       -0.339646    1.041139   -0.133100
      9          8           0       -1.099576    1.832792   -0.622668
     10          1           0       -1.221511   -1.069140   -1.857311
     11          1           0       -1.939863   -2.044990   -0.554532
     12          1           0       -2.544667   -0.402343   -0.883552
     13          1           0       -0.608274   -0.368105    2.098966
     14          1           0        0.783973   -2.055453    0.717817
     15          1           0        2.452213   -1.556248   -1.105588
     16          1           0        1.329090   -0.311498   -1.811319
     17          1           0        2.621357   -0.178434    1.016339
     18          1           0        1.038894    1.771802    1.352470
     19          1           0        1.561201    2.077644   -0.302465
 ---------------------------------------------------------------------

 SCF Done:  E(RB3LYP) =  -423.203369437     A.U. after    1 cycles

 The electronic state is 1-A.
 Alpha  occ. eigenvalues --  -19.14601 -19.13549 -10.26590 -10.24371 -10.20718
 Alpha  occ. eigenvalues --  -10.20060 -10.19970 -10.19850 -10.17181  -1.04886
 Alpha  occ. eigenvalues --   -1.02331  -0.89028  -0.75746  -0.74664  -0.65582
 Alpha  occ. eigenvalues --   -0.60807  -0.57668  -0.54974  -0.50816  -0.49311
 Alpha  occ. eigenvalues --   -0.45903  -0.45176  -0.42389  -0.41842  -0.40323
 Alpha  occ. eigenvalues --   -0.38754  -0.37671  -0.37261  -0.35931  -0.33900
 Alpha  occ. eigenvalues --   -0.31543  -0.29187  -0.28805  -0.23201
 Alpha virt. eigenvalues --   -0.02438   0.06829   0.09631   0.10634   0.11229
 Alpha virt. eigenvalues --    0.12366   0.14914   0.16423   0.16537   0.16961
 Alpha virt. eigenvalues --    0.17969   0.19097   0.21004   0.21424   0.23212

 Mulliken charges:
               1
     1  C   -0.414231
     2  C    0.295166
     3  O   -0.468204
     4  C   -0.096877
     5  C   -0.306541
     6  C   -0.053466
     7  C   -0.340366
     8  C    0.346436
     9  O   -0.312417
    10  H    0.117369
    11  H    0.118991
    12  H    0.143525
    13  H    0.281241
    14  H    0.094049
    15  H    0.120583
    16  H    0.122406
    17  H    0.091743
    18  H    0.127975
    19  H    0.132617
 Sum of Mulliken charges =   0.00000

 Dipole moment (field-independent basis, Debye):
    X=              3.1617    Y=             -1.5473    Z=              0.9150  Tot=              3.6370
 Quadrupole moment (field-independent basis, Debye-Ang):
   XX=            -55.7191   YY=            -55.9758   ZZ=            -50.4114
   XY=              2.1289   XZ=              1.6001   YZ=              2.5152

  Exact polarizability:  79.488   0.615  74.807   2.403   0.504  68.898
 Approx polarizability: 112.741  -1.878 109.911   3.148  -4.113 108.453

                      1                      2                      3
                      A                      A                      A
 Frequencies --     82.0561               181.9229               203.1604
 Red. masses --      3.8245                 3.0804                 1.1821
 Frc consts  --      0.0152                 0.0601                 0.0287
 IR Inten    --      1.5492                 4.0199                 0.3433

                      4                      5                      6
                      A                      A                      A
 Frequencies --    220.3091               275.8591               306.3487
 Red. masses --      2.7784                 1.7871                 1.7628
 Frc consts  --      0.0795                 0.0801                 0.0975
 IR Inten    --     11.2242                42.1396                27.9125

                      7                      8                      9
                      A                      A                      A
 Frequencies --    340.0540               357.8142               451.6638
 Red. masses --      2.4179                 2.4192                 3.2025
 Frc consts  --      0.1647                 0.1825                 0.3849
 IR Inten    --      4.1524                 8.0570                 1.7470

                     10                     11                     12
                      A                      A                      A
 Frequencies --    504.3702               553.3221               602.7476
 Red. masses --      3.9900                 2.8186                 3.6495
 Frc consts  --      0.5980                 0.5084                 0.7812
 IR Inten    --      5.9793                 1.4466                 8.1415

                     13                     14                     15
                      A                      A                      A
 Frequencies --    665.2202               693.0025               809.8183
 Red. masses --      3.9095                 3.5134                 1.9576
 Frc consts  --      1.0193                 0.9941                 0.7564
 IR Inten    --      0.7461                 9.4504                 6.7233

                     16                     17                     18
                      A                      A                      A
 Frequencies --    826.7883               865.8113               889.3754
 Red. masses --      1.5501                 1.9648                 2.4879
 Frc consts  --      0.6243                 0.8678                 1.1595
 IR Inten    --      9.1598                 0.4755                 3.4868

                     19                     20                     21
                      A                      A                      A
 Frequencies --    932.7269               958.6396              1012.2528
 Red. masses --      1.9795                 2.4886                 2.5334
 Frc consts  --      1.0146                 1.3475                 1.5294
 IR Inten    --     10.8198                25.3844                 7.2012

                     22                     23                     24
                      A                      A                      A
 Frequencies --   1033.0786              1064.2413              1068.1595
 Red. masses --      1.4827                 1.9502                 1.3622
 Frc consts  --      0.9324                 1.3014                 0.9157
 IR Inten    --      2.5700                24.3117                15.8161

                     25                     26                     27
                      A                      A                      A
 Frequencies --   1085.5532              1110.2640              1138.4768
 Red. masses --      1.5656                 1.2262                 1.8511
 Frc consts  --      1.0870                 0.8906                 1.4136
 IR Inten    --     12.0434                 4.0210                63.1869

                     28                     29                     30
                      A                      A                      A
 Frequencies --   1151.3356              1180.6710              1198.9275
 Red. masses --      2.1941                 1.4326                 1.6114
 Frc consts  --      1.7136                 1.1766                 1.3647
 IR Inten    --     23.4653                 7.7363                 0.3281

                     31                     32                     33
                      A                      A                      A
 Frequencies --   1234.6652              1275.5737              1329.9971
 Red. masses --      3.0980                 1.7381                 1.5115
 Frc consts  --      2.7825                 1.6663                 1.5753
 IR Inten    --      9.2463                 7.0767                16.1817

                     34                     35                     36
                      A                      A                      A
 Frequencies --   1372.1973              1393.0084              1413.6599
 Red. masses --      1.7944                 1.7849                 1.6154
 Frc consts  --      1.9907                 2.0407                 1.9021
 IR Inten    --     10.6194                27.8536                25.5851

                     37                     38                     39
                      A                      A                      A
 Frequencies --   1456.9390              1481.9743              1488.3183
 Red. masses --      1.0899                 1.0590                 1.0756
 Frc consts  --      1.3631                 1.3703                 1.4038
 IR Inten    --      6.7978                 2.6396                 0.4484

                     40                     41                     42
                      A                      A                      A
 Frequencies --   1493.9367              1852.8017              3029.9564
 Red. masses --      1.2110                12.7344                 1.0664
 Frc consts  --      1.5924                25.7566                 5.7682
 IR Inten    --      4.6132               157.9794                13.9343

                     43                     44                     45
                      A                      A                      A
 Frequencies --   3051.1311              3092.9177              3119.2917
 Red. masses --      1.0343                 1.0951                 1.0576
 Frc consts  --      5.6731                 6.1724                 6.0629
 IR Inten    --     13.2963                 9.3046                 7.7133

                     46                     47                     48
                      A                      A                      A
 Frequencies --   3127.5045              3134.5107              3167.0287
 Red. masses --      1.1019                 1.1019                 1.0897
 Frc consts  --      6.3505                 6.3789                 6.4394
 IR Inten    --     16.6196                 9.3921                 9.4842

                     49                     50                     51
                      A                      A                      A
 Frequencies --   3179.4969              3210.8809              3801.5745
 Red. masses --      1.0932                 1.1124                 1.0662
 Frc consts  --      6.5110                 6.7569                 9.0782
 IR Inten    --     11.4488                11.2455                13.2420

 - Thermochemistry -
 -------------------
 Temperature   298.150 Kelvin.  Pressure   1.00000 Atm.
 Atom     1 has atomic number  6 and mass  12.00000

 Molecular mass:   126.06808 amu.
 Principal axes and moments of inertia in atomic units:
                           1         2         3
     Eigenvalues --   816.087381025.088291282.13251
           X            0.99609   0.08374   0.02809
           Y           -0.08558   0.99369   0.07248
           Z           -0.02184  -0.07460   0.99697
 This molecule is an asymmetric top.
 Rotational symmetry number  1.
 Warning -- assumption of classical behavior for rotation
           may cause significant error
 Rotational temperatures (Kelvin)      0.10613     0.08449     0.06755
 Rotational constants (GHZ):           2.21146     1.76057     1.40761
 Zero-point vibrational energy     415530.9 (Joules/Mol)
                                   99.31426 (Kcal/Mol)
 Warning -- explicit consideration of  12 degrees of freedom as
           vibrations may cause significant error
 Vibrational temperatures:    118.06   261.75   292.30   316.98   396.90
          (Kelvin)            440.77   489.26   514.81   649.84   725.68
                              796.11   867.22   957.10   997.07  1165.15
                             1189.56  1245.71  1279.61  1341.98  1379.27
                             1456.40  1486.37  1531.20  1536.84  1561.87
                             1597.42  1638.01  1656.51  1698.72  1724.99
                             1776.41  1835.26  1913.57  1974.28  2004.23
                             2033.94  2096.21  2132.23  2141.36  2149.44
                             2665.77  4359.43  4389.89  4450.01  4487.96
                             4499.78  4509.86  4556.64  4574.58  4619.74
                             5469.61

 Zero-point correction=                           0.158267 (Hartree/Particle)
 Thermal correction to Energy=                    0.166894
 Thermal correction to Enthalpy=                  0.167839
 Thermal correction to Gibbs Free Energy=         0.125454
 Sum of electronic and zero-point Energies=           -423.045102
 Sum of electronic and thermal Energies=              -423.036475
 Sum of electronic and thermal Enthalpies=            -423.035531
 Sum of electronic and thermal Free Energies=         -423.077916

                     E (Thermal)             CV                S
                      KCal/Mol        Cal/Mol-Kelvin    Cal/Mol-Kelvin
 Total                  104.728             33.598             89.206
 Electronic               0.000              0.000              0.000
 Translational            0.889              2.981             40.409
 Rotational               0.889              2.981             28.463
 Vibrational            102.950             27.637             20.334
 Vibration     1          0.600              1.961              3.841
 Vibration     2          0.630              1.864              2.309
 Vibration     3          0.639              1.835              2.104
 Vibration     4          0.647              1.810              1.957
 Vibration     5          0.678              1.718              1.559
 Vibration     6          0.697              1.662              1.382
 Vibration     7          0.720              1.595              1.212
 Vibration     8          0.733              1.559              1.132
 Vibration     9          0.810              1.357              0.791
 Vibration    10          0.860              1.240              0.647
 Vibration    11          0.909              1.132              0.537
 Vibration    12          0.961              1.026              0.445

 Optimization completed.
    -- Stationary point found.
 Normal termination of Gaussian 09 at Mon Jan 27 16:54:37 2020.
