 Gaussian 09, Revision D.01,
 Gaussian 09:  ES64L-G09RevD.01 24-Apr-2013

 -----------------------------
 # b3lyp 6-31G(2df,p) opt Freq
 -----------------------------

 -----
 titel
 -----
 Symbolic Z-matrix:
 Charge =  0 Multiplicity = 1

 SCF Done:  E(RB3LYP) =  -423.152841724     A.U. after   14 cycles
 Optimization completed.
    -- Stationary point found.
 Normal termination of Gaussian 09 at Tue Jan 28 08:21:12 2020.

 ----------------------------------------------------------------------
 #N Geom=AllCheck Guess=TCheck SCRF=Check GenChk RB3LYP/6-31G(2df,p) Fr
 eq
 ----------------------------------------------------------------------

 Structure from the checkpoint file:  "/scratch/puck/g09_41006b32-7a3c-400f-a6aa-e83e3d1318cc/Gau-106643.chk"
 -----
 titel
 -----
 Charge =  0 Multiplicity = 1

                         Standard orientation:
 ---------------------------------------------------------------------
 Center     Atomic      Atomic             Coordinates (Angstroms)
 Number     Number       Type             X           Y           Z
 ---------------------------------------------------------------------
      1          6           0        2.634988   -0.807049   -0.356541
      2          8           0        1.445621   -1.003979    0.388251
      3          6           0        0.279350   -0.503065   -0.243486
      4          6           0       -0.907735   -1.178315    0.465937
      5          6           0       -2.200055   -0.700430   -0.005609
      6          6           0       -3.254040   -0.282635   -0.403633
      7          6           0        0.254688    1.038940   -0.153192
      8          6           0        0.191698    1.639296    1.236897
      9          8           0        0.328270    1.710539   -1.154824
     10          1           0        2.852382    0.256789   -0.521890
     11          1           0        3.446945   -1.250686    0.223664
     12          1           0        2.578361   -1.303324   -1.335981
     13          1           0        0.271722   -0.753525   -1.313267
     14          1           0       -0.815670   -2.259461    0.313300
     15          1           0       -0.809174   -1.010621    1.544859
     16          1           0       -4.187323    0.080070   -0.757291
     17          1           0        0.472552    2.692255    1.195730
     18          1           0       -0.834771    1.563549    1.615010
     19          1           0        0.840484    1.092026    1.926218
 ---------------------------------------------------------------------

 SCF Done:  E(RB3LYP) =  -423.152841724     A.U. after    1 cycles

 The electronic state is 1-A.
 Alpha  occ. eigenvalues --  -19.15859 -19.13317 -10.26975 -10.24701 -10.23346
 Alpha  occ. eigenvalues --  -10.21816 -10.18870 -10.18708 -10.17872  -1.05414
 Alpha  occ. eigenvalues --   -1.03689  -0.81473  -0.75118  -0.73006  -0.68915
 Alpha  occ. eigenvalues --   -0.64732  -0.54997  -0.53148  -0.50652  -0.48078
 Alpha  occ. eigenvalues --   -0.47985  -0.45084  -0.44555  -0.42805  -0.42429
 Alpha  occ. eigenvalues --   -0.41338  -0.39090  -0.37649  -0.35476  -0.33526
 Alpha  occ. eigenvalues --   -0.29056  -0.27429  -0.27115  -0.23577
 Alpha virt. eigenvalues --   -0.02061   0.04604   0.05053   0.08669   0.10705
 Alpha virt. eigenvalues --    0.12062   0.12782   0.13320   0.15397   0.15837
 Alpha virt. eigenvalues --    0.16749   0.16826   0.18050   0.19520   0.21182

 Mulliken charges:
               1
     1  C   -0.246674
     2  O   -0.246565
     3  C    0.036238
     4  C   -0.385995
     5  C    0.289616
     6  C   -0.440564
     7  C    0.383354
     8  C   -0.489496
     9  O   -0.302098
    10  H    0.124931
    11  H    0.132050
    12  H    0.117590
    13  H    0.094942
    14  H    0.145147
    15  H    0.143052
    16  H    0.202219
    17  H    0.141009
    18  H    0.154938
    19  H    0.146306
 Sum of Mulliken charges =   0.00000

 Dipole moment (field-independent basis, Debye):
    X=              0.4444    Y=             -1.0885    Z=              1.2838  Tot=              1.7409
 Quadrupole moment (field-independent basis, Debye-Ang):
   XX=            -46.6556   YY=            -55.8422   ZZ=            -54.9645
   XY=             -2.0285   XZ=              0.2578   YZ=              4.6920

  Exact polarizability:  94.891  -6.098  70.560   4.475  -1.393  67.153
 Approx polarizability: 129.464 -14.118 101.992  11.770 -12.016 108.104

                      1                      2                      3
                      A                      A                      A
 Frequencies --     32.9951                60.7651                97.0950
 Red. masses --      4.5204                 3.5659                 2.8960
 Frc consts  --      0.0029                 0.0078                 0.0161
 IR Inten    --      4.7917                 0.1116                 1.7326

                      4                      5                      6
                      A                      A                      A
 Frequencies --    117.0119               156.9725               169.9532
 Red. masses --      3.1774                 1.0570                 1.3621
 Frc consts  --      0.0256                 0.0153                 0.0232
 IR Inten    --      2.3377                 0.0251                 0.2795

                      7                      8                      9
                      A                      A                      A
 Frequencies --    224.8009               265.6036               279.1221
 Red. masses --      2.4938                 3.0334                 4.6045
 Frc consts  --      0.0743                 0.1261                 0.2114
 IR Inten    --      0.3728                10.4519                 1.1807

                     10                     11                     12
                      A                      A                      A
 Frequencies --    352.1977               399.6575               465.2426
 Red. masses --      2.8033                 3.8298                 5.6471
 Frc consts  --      0.2049                 0.3604                 0.7202
 IR Inten    --      4.2845                 0.3585                 2.4091

                     13                     14                     15
                      A                      A                      A
 Frequencies --    498.8781               547.8135               619.0470
 Red. masses --      3.4745                 3.4651                 2.4877
 Frc consts  --      0.5095                 0.6127                 0.5617
 IR Inten    --     19.0148                 3.3933                 4.8102

                     16                     17                     18
                      A                      A                      A
 Frequencies --    637.5973               654.7490               741.3752
 Red. masses --      1.2183                 1.2271                 3.0369
 Frc consts  --      0.2918                 0.3099                 0.9835
 IR Inten    --     42.0134                44.5592                 0.3808

                     19                     20                     21
                      A                      A                      A
 Frequencies --    904.8785               944.0608               992.4817
 Red. masses --      1.7137                 4.7636                 2.6496
 Frc consts  --      0.8267                 2.5014                 1.5377
 IR Inten    --      8.2770                11.7861                 5.9992

                     22                     23                     24
                      A                      A                      A
 Frequencies --   1027.1361              1040.9485              1080.1359
 Red. masses --      1.8250                 2.4322                 2.4281
 Frc consts  --      1.1344                 1.5528                 1.6691
 IR Inten    --      2.5686                 5.7003                 7.1522

                     25                     26                     27
                      A                      A                      A
 Frequencies --   1135.8605              1182.7576              1185.9490
 Red. masses --      6.5239                 1.4643                 1.2783
 Frc consts  --      4.9592                 1.2069                 1.0593
 IR Inten    --    169.7829                14.5085                 2.1562

                     28                     29                     30
                      A                      A                      A
 Frequencies --   1224.7038              1249.8896              1309.1045
 Red. masses --      1.7386                 1.9042                 1.3474
 Frc consts  --      1.5364                 1.7527                 1.3604
 IR Inten    --     22.8918                22.6380                 6.8348

                     31                     32                     33
                      A                      A                      A
 Frequencies --   1337.5966              1371.2833              1377.0910
 Red. masses --      1.4261                 1.3474                 1.2973
 Frc consts  --      1.5034                 1.4928                 1.4495
 IR Inten    --      3.5881                20.0791                35.2072

                     34                     35                     36
                      A                      A                      A
 Frequencies --   1462.4859              1473.9477              1478.0022
 Red. masses --      1.0618                 1.0548                 1.0713
 Frc consts  --      1.3380                 1.3501                 1.3789
 IR Inten    --     12.4679                 6.5688                 0.4437

                     37                     38                     39
                      A                      A                      A
 Frequencies --   1481.7278              1489.4034              1511.0119
 Red. masses --      1.1136                 1.0617                 1.0652
 Frc consts  --      1.4405                 1.3877                 1.4329
 IR Inten    --      2.5250                 3.7760                10.2665

                     40                     41                     42
                      A                      A                      A
 Frequencies --   1816.6156              2242.6241              2994.8322
 Red. masses --     10.8623                 5.9171                 1.0359
 Frc consts  --     21.1202                17.5335                 5.4739
 IR Inten    --    121.4626                 0.7816                46.5924

                     43                     44                     45
                      A                      A                      A
 Frequencies --   3019.2674              3038.4192              3041.3900
 Red. masses --      1.0839                 1.0538                 1.0429
 Frc consts  --      5.8215                 5.7318                 5.6837
 IR Inten    --     23.0270                 8.2624                 4.7659

                     46                     47                     48
                      A                      A                      A
 Frequencies --   3050.2712              3075.9311              3109.9980
 Red. masses --      1.1033                 1.1016                 1.0948
 Frc consts  --      6.0482                 6.1407                 6.2389
 IR Inten    --     38.2001                10.0592                 4.8309

                     49                     50                     51
                      A                      A                      A
 Frequencies --   3124.2661              3155.2921              3505.5481
 Red. masses --      1.0990                 1.1036                 1.1629
 Frc consts  --      6.3201                 6.4735                 8.4197
 IR Inten    --     23.6599                 6.9539                67.7651

 - Thermochemistry -
 -------------------
 Temperature   298.150 Kelvin.  Pressure   1.00000 Atm.
 Atom     1 has atomic number  6 and mass  12.00000

 Molecular mass:   126.06808 amu.
 Principal axes and moments of inertia in atomic units:
                           1         2         3
     Eigenvalues --   811.829901522.976711883.03647
           X            0.99979  -0.01896  -0.00738
           Y            0.01947   0.99682   0.07724
           Z            0.00589  -0.07737   0.99699
 This molecule is an asymmetric top.
 Rotational symmetry number  1.
 Warning -- assumption of classical behavior for rotation
           may cause significant error
 Rotational temperatures (Kelvin)      0.10669     0.05687     0.04600
 Rotational constants (GHZ):           2.22305     1.18501     0.95842
 Zero-point vibrational energy     405269.6 (Joules/Mol)
                                   96.86176 (Kcal/Mol)
 Warning -- explicit consideration of  15 degrees of freedom as
           vibrations may cause significant error
 Vibrational temperatures:     47.47    87.43   139.70   168.35   225.85
          (Kelvin)            244.52   323.44   382.14   401.59   506.73
                              575.02   669.38   717.77   788.18   890.67
                              917.36   942.04  1066.67  1301.92  1358.29
                             1427.96  1477.82  1497.69  1554.07  1634.25
                             1701.72  1706.31  1762.07  1798.31  1883.51
                             1924.50  1972.97  1981.32  2104.19  2120.68
                             2126.51  2131.87  2142.92  2174.01  2613.70
                             3226.63  4308.89  4344.05  4371.60  4375.88
                             4388.65  4425.57  4474.59  4495.12  4539.76
                             5043.70

 Zero-point correction=                           0.154359 (Hartree/Particle)
 Thermal correction to Energy=                    0.165233
 Thermal correction to Enthalpy=                  0.166177
 Thermal correction to Gibbs Free Energy=         0.117258
 Sum of electronic and zero-point Energies=           -422.998483
 Sum of electronic and thermal Energies=              -422.987609
 Sum of electronic and thermal Enthalpies=            -422.986665
 Sum of electronic and thermal Free Energies=         -423.035583

                     E (Thermal)             CV                S
                      KCal/Mol        Cal/Mol-Kelvin    Cal/Mol-Kelvin
 Total                  103.685             37.571            102.959
 Electronic               0.000              0.000              0.000
 Translational            0.889              2.981             40.409
 Rotational               0.889              2.981             29.233
 Vibrational            101.908             31.610             33.317
 Vibration     1          0.594              1.983              5.641
 Vibration     2          0.597              1.973              4.432
 Vibration     3          0.603              1.951              3.512
 Vibration     4          0.608              1.935              3.149
 Vibration     5          0.621              1.895              2.586
 Vibration     6          0.625              1.879              2.436
 Vibration     7          0.649              1.803              1.920
 Vibration     8          0.671              1.736              1.625
 Vibration     9          0.679              1.712              1.539
 Vibration    10          0.729              1.571              1.156
 Vibration    11          0.766              1.471              0.964
 Vibration    12          0.823              1.327              0.751
 Vibration    13          0.854              1.253              0.661
 Vibration    14          0.903              1.144              0.549
 Vibration    15          0.979              0.992              0.418

 Normal termination of Gaussian 09 at Tue Jan 28 09:05:17 2020.
