 Gaussian 09, Revision D.01,
 Gaussian 09:  ES64L-G09RevD.01 24-Apr-2013

 -----------------------------
 # b3lyp 6-31G(2df,p) opt Freq
 -----------------------------

 -----
 titel
 -----
 Symbolic Z-matrix:
 Charge =  0 Multiplicity = 1

 SCF Done:  E(RB3LYP) =  -423.225437355     A.U. after   14 cycles
 Optimization completed.
    -- Stationary point found.
 Normal termination of Gaussian 09 at Mon Jan 27 14:02:08 2020.

 ----------------------------------------------------------------------
 #N Geom=AllCheck Guess=TCheck SCRF=Check GenChk RB3LYP/6-31G(2df,p) Fr
 eq
 ----------------------------------------------------------------------

 Structure from the checkpoint file:  "/scratch/puck/g09_6fd52d3b-ccd9-485f-9991-2c355b602837/Gau-4007.chk"
 -----
 titel
 -----
 Charge =  0 Multiplicity = 1

                         Standard orientation:
 ---------------------------------------------------------------------
 Center     Atomic      Atomic             Coordinates (Angstroms)
 Number     Number       Type             X           Y           Z
 ---------------------------------------------------------------------
      1          8           0       -2.529873    0.902266    0.883914
      2          6           0       -2.653355    0.294029   -0.144534
      3          8           0       -1.853727   -0.673056   -0.612030
      4          6           0       -0.713167   -1.054684    0.196927
      5          6           0        0.581255   -0.543457   -0.417419
      6          6           0        1.835311   -1.070965    0.338115
      7          6           0        2.790604    0.096777    0.284180
      8          6           0        2.196620    1.213105   -0.131773
      9          6           0        0.732632    1.005028   -0.434755
     10          1           0       -3.468322    0.448228   -0.869001
     11          1           0       -0.854271   -0.670193    1.209732
     12          1           0       -0.731017   -2.148239    0.218259
     13          1           0        0.629201   -0.903465   -1.450981
     14          1           0        1.600845   -1.331245    1.381948
     15          1           0        2.238967   -1.981939   -0.118270
     16          1           0        3.826912    0.013211    0.592336
     17          1           0        2.675442    2.182527   -0.216088
     18          1           0        0.101299    1.481159    0.327791
     19          1           0        0.430339    1.437283   -1.395246
 ---------------------------------------------------------------------

 SCF Done:  E(RB3LYP) =  -423.225437355     A.U. after    1 cycles

 The electronic state is 1-A.
 Alpha  occ. eigenvalues --  -19.18841 -19.13344 -10.30882 -10.23970 -10.19482
 Alpha  occ. eigenvalues --  -10.18907 -10.18227 -10.17995 -10.17903  -1.10285
 Alpha  occ. eigenvalues --   -1.02102  -0.84739  -0.76179  -0.70802  -0.68371
 Alpha  occ. eigenvalues --   -0.59607  -0.56518  -0.53463  -0.52799  -0.49749
 Alpha  occ. eigenvalues --   -0.47525  -0.47126  -0.42846  -0.42228  -0.40037
 Alpha  occ. eigenvalues --   -0.37905  -0.36712  -0.36186  -0.34836  -0.33955
 Alpha  occ. eigenvalues --   -0.32964  -0.29801  -0.28108  -0.24109
 Alpha virt. eigenvalues --    0.00931   0.02469   0.08844   0.11102   0.12219
 Alpha virt. eigenvalues --    0.12891   0.14241   0.15080   0.15879   0.17002
 Alpha virt. eigenvalues --    0.17565   0.18608   0.18998   0.19288   0.21401

 Mulliken charges:
               1
     1  O   -0.307593
     2  C    0.192575
     3  O   -0.212275
     4  C   -0.108418
     5  C    0.023271
     6  C   -0.278906
     7  C   -0.059903
     8  C   -0.061075
     9  C   -0.273051
    10  H    0.110293
    11  H    0.140278
    12  H    0.116390
    13  H    0.087037
    14  H    0.105259
    15  H    0.106212
    16  H    0.092577
    17  H    0.093195
    18  H    0.129717
    19  H    0.104415
 Sum of Mulliken charges =   0.00000

 Dipole moment (field-independent basis, Debye):
    X=              1.0139    Y=             -1.2188    Z=             -1.0141  Tot=              1.8820
 Quadrupole moment (field-independent basis, Debye-Ang):
   XX=            -52.9505   YY=            -52.3005   ZZ=            -55.0365
   XY=              1.6446   XZ=              4.2004   YZ=             -3.1640

  Exact polarizability:  90.294  -6.575  78.942   5.607  -2.990  61.317
 Approx polarizability: 113.179 -15.338 124.937   7.257  -0.296 102.984

                      1                      2                      3
                      A                      A                      A
 Frequencies --     42.7832                67.3138                88.0330
 Red. masses --      6.0683                 3.5115                 2.8231
 Frc consts  --      0.0065                 0.0094                 0.0129
 IR Inten    --      2.0913                 0.7702                 0.4597

                      4                      5                      6
                      A                      A                      A
 Frequencies --    165.9049               275.3310               338.9320
 Red. masses --      3.2677                 3.1319                 3.2553
 Frc consts  --      0.0530                 0.1399                 0.2203
 IR Inten    --      1.8035                 7.4610                16.3190

                      7                      8                      9
                      A                      A                      A
 Frequencies --    390.7901               394.0267               446.1117
 Red. masses --      2.4097                 2.5775                 2.1712
 Frc consts  --      0.2168                 0.2358                 0.2546
 IR Inten    --      0.6243                 1.2115                 7.1136

                     10                     11                     12
                      A                      A                      A
 Frequencies --    628.1882               719.4629               764.8236
 Red. masses --      2.6341                 1.2956                 4.2356
 Frc consts  --      0.6124                 0.3951                 1.4598
 IR Inten    --     13.0616                22.6721                 9.0255

                     13                     14                     15
                      A                      A                      A
 Frequencies --    783.2936               832.5823               912.8388
 Red. masses --      5.5820                 2.9149                 2.8034
 Frc consts  --      2.0179                 1.1905                 1.3763
 IR Inten    --      0.2774                 1.4846                12.0583

                     16                     17                     18
                      A                      A                      A
 Frequencies --    925.2117               931.1683               974.2209
 Red. masses --      1.6173                 1.9150                 1.4940
 Frc consts  --      0.8157                 0.9783                 0.8354
 IR Inten    --      2.0943                11.1916                 2.0929

                     19                     20                     21
                      A                      A                      A
 Frequencies --    979.4665               981.2088              1043.7223
 Red. masses --      1.7650                 2.1899                 2.3577
 Frc consts  --      0.9976                 1.2422                 1.5132
 IR Inten    --      0.7284                 2.0814                 9.0555

                     22                     23                     24
                      A                      A                      A
 Frequencies --   1044.7047              1107.5774              1118.4151
 Red. masses --      1.6741                 2.1820                 2.0484
 Frc consts  --      1.0765                 1.5771                 1.5096
 IR Inten    --      0.2479                 2.9402                 2.5145

                     25                     26                     27
                      A                      A                      A
 Frequencies --   1135.1561              1161.6260              1188.3951
 Red. masses --      1.2282                 1.1799                 3.0565
 Frc consts  --      0.9324                 0.9381                 2.5433
 IR Inten    --      1.3883                 7.5653               300.3534

                     28                     29                     30
                      A                      A                      A
 Frequencies --   1236.2592              1295.3504              1297.1486
 Red. masses --      1.7031                 1.3422                 1.3278
 Frc consts  --      1.5336                 1.3269                 1.3163
 IR Inten    --     54.9871                 2.2614                12.1739

                     31                     32                     33
                      A                      A                      A
 Frequencies --   1311.0457              1333.4641              1359.6369
 Red. masses --      1.2133                 1.3990                 1.5922
 Frc consts  --      1.2287                 1.4656                 1.7342
 IR Inten    --      3.7602                 6.4496                 3.2993

                     34                     35                     36
                      A                      A                      A
 Frequencies --   1386.8019              1408.1902              1414.7273
 Red. masses --      1.4925                 1.2082                 1.2869
 Frc consts  --      1.6912                 1.4116                 1.5176
 IR Inten    --      0.9192                 1.2718                 2.1300

                     37                     38                     39
                      A                      A                      A
 Frequencies --   1487.6476              1489.4872              1501.8675
 Red. masses --      1.0840                 1.0985                 1.0974
 Frc consts  --      1.4134                 1.4359                 1.4584
 IR Inten    --      0.8324                 3.7242                 4.8442

                     40                     41                     42
                      A                      A                      A
 Frequencies --   1691.9103              1816.0058              2989.9194
 Red. masses --      6.0532                 9.1289                 1.0707
 Frc consts  --     10.2091                17.7379                 5.6392
 IR Inten    --      3.0099               241.9236                33.3371

                     43                     44                     45
                      A                      A                      A
 Frequencies --   3021.9065              3027.4569              3036.9686
 Red. masses --      1.0639                 1.0899                 1.0848
 Frc consts  --      5.7240                 5.8858                 5.8948
 IR Inten    --     19.7708                70.0954                 1.4742

                     46                     47                     48
                      A                      A                      A
 Frequencies --   3053.3218              3060.7678              3064.3711
 Red. masses --      1.0925                 1.0592                 1.0950
 Frc consts  --      6.0007                 5.8464                 6.0581
 IR Inten    --     29.7941                24.7580                40.2742

                     49                     50                     51
                      A                      A                      A
 Frequencies --   3122.8559              3182.0300              3207.5373
 Red. masses --      1.1062                 1.0842                 1.1042
 Frc consts  --      6.3560                 6.4681                 6.6934
 IR Inten    --     12.6118                 6.0776                26.7893

 - Thermochemistry -
 -------------------
 Temperature   298.150 Kelvin.  Pressure   1.00000 Atm.
 Atom     1 has atomic number  8 and mass  15.99491

 Molecular mass:   126.06808 amu.
 Principal axes and moments of inertia in atomic units:
                           1         2         3
     Eigenvalues --   491.727521886.136462130.24713
           X            0.99996   0.00065   0.00854
           Y           -0.00016   0.99836  -0.05724
           Z           -0.00856   0.05723   0.99832
 This molecule is an asymmetric top.
 Rotational symmetry number  1.
 Warning -- assumption of classical behavior for rotation
           may cause significant error
 Rotational temperatures (Kelvin)      0.17614     0.04592     0.04066
 Rotational constants (GHZ):           3.67021     0.95685     0.84720
 Zero-point vibrational energy     420116.3 (Joules/Mol)
                                  100.41021 (Kcal/Mol)
 Warning -- explicit consideration of   9 degrees of freedom as
           vibrations may cause significant error
 Vibrational temperatures:     61.56    96.85   126.66   238.70   396.14
          (Kelvin)            487.65   562.26   566.92   641.85   903.82
                             1035.15  1100.41  1126.98  1197.90  1313.37
                             1331.17  1339.74  1401.68  1409.23  1411.74
                             1501.68  1503.10  1593.55  1609.15  1633.23
                             1671.32  1709.83  1778.70  1863.72  1866.31
                             1886.30  1918.56  1956.21  1995.30  2026.07
                             2035.47  2140.39  2143.04  2160.85  2434.28
                             2612.82  4301.82  4347.84  4355.83  4369.52
                             4393.04  4403.76  4408.94  4493.09  4578.23
                             4614.92

 Zero-point correction=                           0.160014 (Hartree/Particle)
 Thermal correction to Energy=                    0.168632
 Thermal correction to Enthalpy=                  0.169576
 Thermal correction to Gibbs Free Energy=         0.125253
 Sum of electronic and zero-point Energies=           -423.065423
 Sum of electronic and thermal Energies=              -423.056805
 Sum of electronic and thermal Enthalpies=            -423.055861
 Sum of electronic and thermal Free Energies=         -423.100185

                     E (Thermal)             CV                S
                      KCal/Mol        Cal/Mol-Kelvin    Cal/Mol-Kelvin
 Total                  105.818             31.160             93.287
 Electronic               0.000              0.000              0.000
 Translational            0.889              2.981             40.409
 Rotational               0.889              2.981             29.070
 Vibrational            104.041             25.199             23.809
 Vibration     1          0.595              1.980              5.126
 Vibration     2          0.598              1.970              4.230
 Vibration     3          0.601              1.958              3.703
 Vibration     4          0.624              1.884              2.481
 Vibration     5          0.677              1.719              1.563
 Vibration     6          0.719              1.598              1.217
 Vibration     7          0.758              1.490              0.997
 Vibration     8          0.761              1.483              0.985
 Vibration     9          0.805              1.369              0.808

 Optimization completed.
    -- Stationary point found.
 Normal termination of Gaussian 09 at Mon Jan 27 15:45:13 2020.
