 Gaussian 09, Revision D.01,
 Gaussian 09:  ES64L-G09RevD.01 24-Apr-2013

 -----------------------------
 # b3lyp 6-31G(2df,p) opt Freq
 -----------------------------

 -----
 titel
 -----
 Symbolic Z-matrix:
 Charge =  0 Multiplicity = 1

 SCF Done:  E(RB3LYP) =  -423.172313685     A.U. after   14 cycles
 Optimization completed.
    -- Stationary point found.
 Normal termination of Gaussian 09 at Mon Jan 27 14:04:09 2020.

 ----------------------------------------------------------------------
 #N Geom=AllCheck Guess=TCheck SCRF=Check GenChk RB3LYP/6-31G(2df,p) Fr
 eq
 ----------------------------------------------------------------------

 Structure from the checkpoint file:  "/scratch/puck/g09_c6509288-f577-46c0-9b46-f5f4a00e1648/Gau-57274.chk"
 -----
 titel
 -----
 Charge =  0 Multiplicity = 1

                         Standard orientation:
 ---------------------------------------------------------------------
 Center     Atomic      Atomic             Coordinates (Angstroms)
 Number     Number       Type             X           Y           Z
 ---------------------------------------------------------------------
      1          6           0        2.520777    0.789054   -0.487477
      2          6           0        1.529034   -0.297598   -0.144877
      3          8           0        1.820178   -1.472218   -0.126668
      4          6           0        0.090421    0.128300    0.212289
      5          6           0       -0.121658   -0.108795    1.716752
      6          8           0       -0.050581    1.502277   -0.111772
      7          6           0       -0.886161   -0.731977   -0.641926
      8          6           0       -2.269342   -0.317578   -0.450849
      9          6           0       -3.387719    0.089811   -0.273449
     10          1           0        2.183509    1.331171   -1.376259
     11          1           0        2.566141    1.530967    0.315758
     12          1           0        3.501709    0.344691   -0.657907
     13          1           0        0.533299    0.548985    2.294883
     14          1           0       -1.158923    0.110521    1.987427
     15          1           0        0.099566   -1.146849    1.977342
     16          1           0       -0.982604    1.727592   -0.000100
     17          1           0       -0.616632   -0.620265   -1.698772
     18          1           0       -0.745061   -1.786108   -0.386766
     19          1           0       -4.389895    0.411517   -0.130870
 ---------------------------------------------------------------------

 SCF Done:  E(RB3LYP) =  -423.172313685     A.U. after    1 cycles

 The electronic state is 1-A.
 Alpha  occ. eigenvalues --  -19.14565 -19.13299 -10.27126 -10.25455 -10.21418
 Alpha  occ. eigenvalues --  -10.19539 -10.18513 -10.18492 -10.18279  -1.04818
 Alpha  occ. eigenvalues --   -1.02971  -0.80936  -0.76133  -0.73709  -0.70476
 Alpha  occ. eigenvalues --   -0.63777  -0.53886  -0.52564  -0.50537  -0.48776
 Alpha  occ. eigenvalues --   -0.46969  -0.44196  -0.43747  -0.42114  -0.41744
 Alpha  occ. eigenvalues --   -0.40724  -0.37974  -0.37119  -0.35135  -0.35012
 Alpha  occ. eigenvalues --   -0.29440  -0.27801  -0.27016  -0.24565
 Alpha virt. eigenvalues --   -0.01825   0.03956   0.04725   0.08451   0.11005
 Alpha virt. eigenvalues --    0.11989   0.13608   0.13769   0.14911   0.15633
 Alpha virt. eigenvalues --    0.17270   0.18058   0.19072   0.20077   0.21392

 Mulliken charges:
               1
     1  C   -0.476319
     2  C    0.377521
     3  O   -0.323321
     4  C    0.237149
     5  C   -0.420885
     6  O   -0.470354
     7  C   -0.368071
     8  C    0.268237
     9  C   -0.430076
    10  H    0.154176
    11  H    0.148757
    12  H    0.133919
    13  H    0.124672
    14  H    0.126866
    15  H    0.138459
    16  H    0.286201
    17  H    0.137268
    18  H    0.154387
    19  H    0.201415
 Sum of Mulliken charges =   0.00000

 Dipole moment (field-independent basis, Debye):
    X=             -1.3777    Y=              1.5740    Z=              0.3525  Tot=              2.1213
 Quadrupole moment (field-independent basis, Debye-Ang):
   XX=            -49.2991   YY=            -57.2544   ZZ=            -52.1898
   XY=              1.7116   XZ=             -0.8847   YZ=              0.4142

  Exact polarizability: 102.465  -4.537  69.150  -3.093   0.360  61.788
 Approx polarizability: 141.584 -16.453 114.471  -6.953   1.416  89.080

                      1                      2                      3
                      A                      A                      A
 Frequencies --     27.2145                79.3781               126.9943
 Red. masses --      3.9161                 3.3905                 3.7253
 Frc consts  --      0.0017                 0.0126                 0.0354
 IR Inten    --      4.4519                 1.0329                 1.6298

                      4                      5                      6
                      A                      A                      A
 Frequencies --    157.7876               217.0634               249.4305
 Red. masses --      1.0768                 4.0259                 1.3593
 Frc consts  --      0.0158                 0.1118                 0.0498
 IR Inten    --      0.1353                 1.2443                 2.6657

                      7                      8                      9
                      A                      A                      A
 Frequencies --    260.2943               307.9365               348.4208
 Red. masses --      2.2229                 2.7341                 3.6734
 Frc consts  --      0.0887                 0.1528                 0.2627
 IR Inten    --      4.9304                 2.5485                 6.2555

                     10                     11                     12
                      A                      A                      A
 Frequencies --    362.5552               370.1408               404.1984
 Red. masses --      2.3954                 1.2081                 3.1545
 Frc consts  --      0.1855                 0.0975                 0.3036
 IR Inten    --      5.2158                70.8086                29.0445

                     13                     14                     15
                      A                      A                      A
 Frequencies --    443.6538               530.6845               584.8977
 Red. masses --      3.7311                 4.9528                 3.2858
 Frc consts  --      0.4327                 0.8218                 0.6623
 IR Inten    --      9.6957                 7.3010                16.7861

                     16                     17                     18
                      A                      A                      A
 Frequencies --    602.3010               624.6138               660.6371
 Red. masses --      2.4843                 1.2152                 1.2385
 Frc consts  --      0.5310                 0.2793                 0.3185
 IR Inten    --      5.1367                45.4006                39.4745

                     19                     20                     21
                      A                      A                      A
 Frequencies --    743.5777               838.2166               896.7855
 Red. masses --      3.4698                 3.0694                 1.8549
 Frc consts  --      1.1303                 1.2706                 0.8789
 IR Inten    --      2.3070                 3.5365                 1.9572

                     22                     23                     24
                      A                      A                      A
 Frequencies --    954.6521               972.5013               980.0507
 Red. masses --      2.0919                 2.2944                 1.9981
 Frc consts  --      1.1232                 1.2785                 1.1308
 IR Inten    --     13.6359                14.2895                 5.3250

                     25                     26                     27
                      A                      A                      A
 Frequencies --   1027.3225              1101.6071              1120.2381
 Red. masses --      2.0121                 1.6879                 2.1586
 Frc consts  --      1.2512                 1.2068                 1.5960
 IR Inten    --     11.7414                17.0191                29.4670

                     28                     29                     30
                      A                      A                      A
 Frequencies --   1187.3707              1204.4436              1264.8741
 Red. masses --      2.9539                 2.1476                 1.6666
 Frc consts  --      2.4537                 1.8356                 1.5710
 IR Inten    --     23.4639               139.1429                23.7100

                     31                     32                     33
                      A                      A                      A
 Frequencies --   1307.7415              1376.5405              1391.4675
 Red. masses --      1.3232                 1.2807                 1.4003
 Frc consts  --      1.3333                 1.4298                 1.5974
 IR Inten    --      1.3931                48.2603                18.8239

                     34                     35                     36
                      A                      A                      A
 Frequencies --   1402.6072              1453.8122              1461.1154
 Red. masses --      1.4692                 1.0605                 1.0737
 Frc consts  --      1.7030                 1.3206                 1.3506
 IR Inten    --     18.1500                11.8519                 1.1571

                     37                     38                     39
                      A                      A                      A
 Frequencies --   1462.7448              1492.7711              1497.8063
 Red. masses --      1.0661                 1.0508                 1.0865
 Frc consts  --      1.3439                 1.3796                 1.4361
 IR Inten    --     11.5190                 4.3080                 8.8665

                     40                     41                     42
                      A                      A                      A
 Frequencies --   1805.9713              2228.6565              3041.4106
 Red. masses --     11.1815                 5.9489                 1.0528
 Frc consts  --     21.4869                17.4091                 5.7381
 IR Inten    --    125.0010                 1.8724                17.6457

                     43                     44                     45
                      A                      A                      A
 Frequencies --   3043.1999              3049.7925              3097.2539
 Red. masses --      1.0445                 1.0347                 1.0965
 Frc consts  --      5.6993                 5.6703                 6.1977
 IR Inten    --      1.5718                 1.0619                 2.3287

                     46                     47                     48
                      A                      A                      A
 Frequencies --   3112.4731              3117.4807              3130.9485
 Red. masses --      1.0969                 1.1021                 1.1023
 Frc consts  --      6.2610                 6.3107                 6.3667
 IR Inten    --      2.5743                15.6252                10.4319

                     49                     50                     51
                      A                      A                      A
 Frequencies --   3159.6038              3503.3898              3775.6602
 Red. masses --      1.1052                 1.1613                 1.0658
 Frc consts  --      6.5005                 8.3976                 8.9520
 IR Inten    --     11.4026                73.0189                32.6987

 - Thermochemistry -
 -------------------
 Temperature   298.150 Kelvin.  Pressure   1.00000 Atm.
 Atom     1 has atomic number  6 and mass  12.00000

 Molecular mass:   126.06808 amu.
 Principal axes and moments of inertia in atomic units:
                           1         2         3
     Eigenvalues --   593.936071713.774901833.40321
           X            0.99975   0.01973  -0.01024
           Y           -0.01994   0.99959  -0.02045
           Z            0.00984   0.02065   0.99974
 This molecule is an asymmetric top.
 Rotational symmetry number  1.
 Warning -- assumption of classical behavior for rotation
           may cause significant error
 Rotational temperatures (Kelvin)      0.14583     0.05054     0.04724
 Rotational constants (GHZ):           3.03861     1.05308     0.98437
 Zero-point vibrational energy     404112.2 (Joules/Mol)
                                   96.58514 (Kcal/Mol)
 Warning -- explicit consideration of  16 degrees of freedom as
           vibrations may cause significant error
 Vibrational temperatures:     39.16   114.21   182.72   227.02   312.31
          (Kelvin)            358.87   374.51   443.05   501.30   521.64
                              532.55   581.55   638.32   763.54   841.54
                              866.58   898.68   950.51  1069.84  1206.01
                             1290.27  1373.53  1399.21  1410.07  1478.09
                             1584.96  1611.77  1708.36  1732.92  1819.87
                             1881.55  1980.53  2002.01  2018.04  2091.71
                             2102.22  2104.56  2147.76  2155.01  2598.39
                             3206.54  4375.91  4378.48  4387.97  4456.25
                             4478.15  4485.35  4504.73  4545.96  5040.59
                             5432.33

 Zero-point correction=                           0.153918 (Hartree/Particle)
 Thermal correction to Energy=                    0.164593
 Thermal correction to Enthalpy=                  0.165537
 Thermal correction to Gibbs Free Energy=         0.117817
 Sum of electronic and zero-point Energies=           -423.018395
 Sum of electronic and thermal Energies=              -423.007721
 Sum of electronic and thermal Enthalpies=            -423.006776
 Sum of electronic and thermal Free Energies=         -423.054497

                     E (Thermal)             CV                S
                      KCal/Mol        Cal/Mol-Kelvin    Cal/Mol-Kelvin
 Total                  103.284             38.835            100.437
 Electronic               0.000              0.000              0.000
 Translational            0.889              2.981             40.409
 Rotational               0.889              2.981             29.014
 Vibrational            101.506             32.873             31.015
 Vibration     1          0.593              1.984              6.023
 Vibration     2          0.600              1.963              3.906
 Vibration     3          0.611              1.926              2.991
 Vibration     4          0.621              1.894              2.576
 Vibration     5          0.646              1.815              1.983
 Vibration     6          0.662              1.764              1.735
 Vibration     7          0.668              1.745              1.660
 Vibration     8          0.698              1.659              1.373
 Vibration     9          0.726              1.578              1.173
 Vibration    10          0.736              1.549              1.111
 Vibration    11          0.742              1.534              1.079
 Vibration    12          0.769              1.461              0.947
 Vibration    13          0.803              1.375              0.815
 Vibration    14          0.886              1.182              0.586
 Vibration    15          0.942              1.064              0.476
 Vibration    16          0.961              1.027              0.446

 Normal termination of Gaussian 09 at Mon Jan 27 14:47:12 2020.
