 Gaussian 09, Revision D.01,
 Gaussian 09:  ES64L-G09RevD.01 24-Apr-2013

 -----------------------------
 # b3lyp 6-31G(2df,p) opt Freq
 -----------------------------

 -----
 titel
 -----
 Symbolic Z-matrix:
 Charge =  0 Multiplicity = 1

 SCF Done:  E(RB3LYP) =  -423.239101709     A.U. after   14 cycles
 Optimization completed.
    -- Stationary point found.
 Normal termination of Gaussian 09 at Mon Jan 27 16:22:39 2020.

 ----------------------------------------------------------------------
 #N Geom=AllCheck Guess=TCheck SCRF=Check GenChk RB3LYP/6-31G(2df,p) Fr
 eq
 ----------------------------------------------------------------------

 Structure from the checkpoint file:  "/scratch/puck/g09_9cde20e1-b275-4d39-8fda-6ffbea169b17/Gau-47273.chk"
 -----
 titel
 -----
 Charge =  0 Multiplicity = 1

                         Standard orientation:
 ---------------------------------------------------------------------
 Center     Atomic      Atomic             Coordinates (Angstroms)
 Number     Number       Type             X           Y           Z
 ---------------------------------------------------------------------
      1          6           0       -2.468800    0.188116   -0.773733
      2          6           0       -1.162218    0.026146    0.022498
      3          6           0       -1.477752   -0.330007    1.491831
      4          6           0       -0.310301   -1.065586   -0.638148
      5          8           0        1.025742   -1.138257   -0.122254
      6          6           0        1.745675    0.014852   -0.044597
      7          8           0        2.935049   -0.035372    0.132632
      8          6           0        0.978819    1.280544   -0.107520
      9          6           0       -0.353135    1.300648   -0.026807
     10          1           0       -3.034209   -0.749716   -0.787442
     11          1           0       -3.105340    0.953702   -0.318643
     12          1           0       -2.274026    0.483124   -1.809761
     13          1           0       -2.126445   -1.211568    1.539549
     14          1           0       -0.561659   -0.546205    2.047202
     15          1           0       -1.993522    0.495387    1.992604
     16          1           0       -0.737230   -2.057880   -0.470241
     17          1           0       -0.260218   -0.890234   -1.720953
     18          1           0        1.583827    2.179216   -0.126501
     19          1           0       -0.891233    2.244926    0.030009
 ---------------------------------------------------------------------

 SCF Done:  E(RB3LYP) =  -423.239101709     A.U. after    1 cycles

 The electronic state is 1-A.
 Alpha  occ. eigenvalues --  -19.17433 -19.11489 -10.30051 -10.24711 -10.22059
 Alpha  occ. eigenvalues --  -10.21519 -10.20113 -10.19587 -10.19065  -1.09051
 Alpha  occ. eigenvalues --   -1.01046  -0.85106  -0.78206  -0.71060  -0.70427
 Alpha  occ. eigenvalues --   -0.64151  -0.60453  -0.52816  -0.50799  -0.49625
 Alpha  occ. eigenvalues --   -0.46627  -0.44738  -0.43066  -0.42275  -0.41802
 Alpha  occ. eigenvalues --   -0.40582  -0.40015  -0.38115  -0.36422  -0.35382
 Alpha  occ. eigenvalues --   -0.32307  -0.28839  -0.27942  -0.26199
 Alpha virt. eigenvalues --   -0.04516   0.06971   0.07902   0.10212   0.11408
 Alpha virt. eigenvalues --    0.11952   0.13976   0.14454   0.15775   0.16537
 Alpha virt. eigenvalues --    0.17711   0.18069   0.19282   0.19335   0.22104

 Mulliken charges:
               1
     1  C   -0.429219
     2  C    0.181187
     3  C   -0.415259
     4  C   -0.095566
     5  O   -0.245346
     6  C    0.412616
     7  O   -0.338911
     8  C   -0.217283
     9  C   -0.058638
    10  H    0.122681
    11  H    0.122663
    12  H    0.124082
    13  H    0.118390
    14  H    0.139390
    15  H    0.118928
    16  H    0.119777
    17  H    0.109437
    18  H    0.122848
    19  H    0.108221
 Sum of Mulliken charges =   0.00000

 Dipole moment (field-independent basis, Debye):
    X=             -4.7716    Y=              1.1581    Z=             -0.5903  Tot=              4.9455
 Quadrupole moment (field-independent basis, Debye-Ang):
   XX=            -63.5606   YY=            -51.1017   ZZ=            -52.5117
   XY=              2.6216   XZ=             -0.9614   YZ=              0.5145

  Exact polarizability: 102.189   2.151  71.999   0.369   0.287  60.660
 Approx polarizability: 159.434  -0.343 107.002   1.392   0.099  88.733

                      1                      2                      3
                      A                      A                      A
 Frequencies --     84.5154               202.9085               210.6811
 Red. masses --      4.7903                 3.2305                 2.0297
 Frc consts  --      0.0202                 0.0784                 0.0531
 IR Inten    --      2.1530                 3.3993                 0.9549

                      4                      5                      6
                      A                      A                      A
 Frequencies --    223.0903               242.9842               305.8081
 Red. masses --      1.4277                 1.0751                 2.2055
 Frc consts  --      0.0419                 0.0374                 0.1215
 IR Inten    --      0.3151                 0.2131                 0.6949

                      7                      8                      9
                      A                      A                      A
 Frequencies --    318.3076               367.4045               442.1623
 Red. masses --      2.6556                 2.2943                 2.2540
 Frc consts  --      0.1585                 0.1825                 0.2596
 IR Inten    --      0.8016                 0.6820                 0.3398

                     10                     11                     12
                      A                      A                      A
 Frequencies --    453.7064               488.6065               586.1636
 Red. masses --      4.9831                 4.0058                 6.8302
 Frc consts  --      0.6044                 0.5635                 1.3827
 IR Inten    --      1.7237                 3.1376                 3.6353

                     13                     14                     15
                      A                      A                      A
 Frequencies --    709.4455               726.9557               793.9639
 Red. masses --      4.3165                 2.4674                 6.0683
 Frc consts  --      1.2800                 0.7683                 2.2538
 IR Inten    --      1.6361                 2.2962                 4.9625

                     16                     17                     18
                      A                      A                      A
 Frequencies --    849.8067               852.9327               914.7664
 Red. masses --      2.4645                 2.7580                 1.8545
 Frc consts  --      1.0486                 1.1821                 0.9143
 IR Inten    --     32.0767                22.8272                 1.5748

                     19                     20                     21
                      A                      A                      A
 Frequencies --    937.3314               953.8561              1004.7426
 Red. masses --      2.0470                 1.4326                 1.4220
 Frc consts  --      1.0596                 0.7680                 0.8458
 IR Inten    --      2.8131                 1.7258                 2.3965

                     22                     23                     24
                      A                      A                      A
 Frequencies --   1022.0223              1046.7363              1092.0770
 Red. masses --      1.3934                 1.5193                 6.3800
 Frc consts  --      0.8575                 0.9808                 4.4831
 IR Inten    --      0.8916                 4.8938                88.2852

                     25                     26                     27
                      A                      A                      A
 Frequencies --   1133.0945              1190.7424              1219.2153
 Red. masses --      1.4778                 3.0895                 2.0120
 Frc consts  --      1.1179                 2.5809                 1.7621
 IR Inten    --     72.5626                 6.7515                18.2548

                     28                     29                     30
                      A                      A                      A
 Frequencies --   1236.2372              1287.8392              1322.8918
 Red. masses --      2.0735                 1.9275                 1.5003
 Frc consts  --      1.8670                 1.8835                 1.5469
 IR Inten    --     52.2398                 2.7920                28.5959

                     31                     32                     33
                      A                      A                      A
 Frequencies --   1394.2899              1395.2904              1408.5215
 Red. masses --      1.5555                 1.2314                 1.3996
 Frc consts  --      1.7816                 1.4124                 1.6360
 IR Inten    --      9.4327                 5.1737                13.6318

                     34                     35                     36
                      A                      A                      A
 Frequencies --   1433.4105              1483.1387              1484.1455
 Red. masses --      1.3078                 1.0510                 1.0506
 Frc consts  --      1.5832                 1.3621                 1.3634
 IR Inten    --      4.0424                 1.4599                 1.7648

                     37                     38                     39
                      A                      A                      A
 Frequencies --   1500.6339              1503.1598              1507.6358
 Red. masses --      1.0576                 1.0870                 1.0692
 Frc consts  --      1.4032                 1.4471                 1.4319
 IR Inten    --      4.5125                 2.5717                14.7245

                     40                     41                     42
                      A                      A                      A
 Frequencies --   1689.0073              1828.0918              3018.8336
 Red. masses --      7.4320                12.0808                 1.0641
 Frc consts  --     12.4917                23.7872                 5.7134
 IR Inten    --      4.8115               381.6404                33.0964

                     43                     44                     45
                      A                      A                      A
 Frequencies --   3030.3563              3034.8815              3095.5444
 Red. masses --      1.0352                 1.0368                 1.0996
 Frc consts  --      5.6008                 5.6262                 6.2081
 IR Inten    --     24.0703                22.2402                 7.6805

                     46                     47                     48
                      A                      A                      A
 Frequencies --   3099.5708              3104.4465              3105.7618
 Red. masses --      1.1017                 1.1008                 1.1020
 Frc consts  --      6.2363                 6.2509                 6.2627
 IR Inten    --      2.1552                46.9664                26.7237

                     49                     50                     51
                      A                      A                      A
 Frequencies --   3123.1536              3148.2182              3209.9240
 Red. masses --      1.1012                 1.0886                 1.0949
 Frc consts  --      6.3288                 6.3570                 6.6465
 IR Inten    --     14.1896                11.3094                 3.8252

 - Thermochemistry -
 -------------------
 Temperature   298.150 Kelvin.  Pressure   1.00000 Atm.
 Atom     1 has atomic number  6 and mass  12.00000

 Molecular mass:   126.06808 amu.
 Principal axes and moments of inertia in atomic units:
                           1         2         3
     Eigenvalues --   543.025641478.070461611.57834
           X            0.99993   0.01215  -0.00132
           Y           -0.01216   0.99990  -0.00779
           Z            0.00122   0.00780   0.99997
 This molecule is an asymmetric top.
 Rotational symmetry number  1.
 Warning -- assumption of classical behavior for rotation
           may cause significant error
 Rotational temperatures (Kelvin)      0.15950     0.05860     0.05374
 Rotational constants (GHZ):           3.32349     1.22101     1.11986
 Zero-point vibrational energy     417610.4 (Joules/Mol)
                                   99.81129 (Kcal/Mol)
 Warning -- explicit consideration of  12 degrees of freedom as
           vibrations may cause significant error
 Vibrational temperatures:    121.60   291.94   303.12   320.98   349.60
          (Kelvin)            439.99   457.97   528.61   636.17   652.78
                              702.99   843.36  1020.73  1045.93  1142.34
                             1222.68  1227.18  1316.14  1348.61  1372.38
                             1445.60  1470.46  1506.02  1571.25  1630.27
                             1713.21  1754.18  1778.67  1852.91  1903.34
                             2006.07  2007.51  2026.55  2062.36  2133.90
                             2135.35  2159.07  2162.71  2169.15  2430.10
                             2630.21  4343.42  4360.00  4366.51  4453.79
                             4459.59  4466.60  4468.49  4493.52  4529.58
                             4618.36

 Zero-point correction=                           0.159059 (Hartree/Particle)
 Thermal correction to Energy=                    0.167702
 Thermal correction to Enthalpy=                  0.168646
 Thermal correction to Gibbs Free Energy=         0.126155
 Sum of electronic and zero-point Energies=           -423.080042
 Sum of electronic and thermal Energies=              -423.071400
 Sum of electronic and thermal Enthalpies=            -423.070456
 Sum of electronic and thermal Free Energies=         -423.112946

                     E (Thermal)             CV                S
                      KCal/Mol        Cal/Mol-Kelvin    Cal/Mol-Kelvin
 Total                  105.234             33.149             89.428
 Electronic               0.000              0.000              0.000
 Translational            0.889              2.981             40.409
 Rotational               0.889              2.981             28.649
 Vibrational            103.457             27.187             20.371
 Vibration     1          0.601              1.960              3.783
 Vibration     2          0.639              1.836              2.107
 Vibration     3          0.643              1.825              2.038
 Vibration     4          0.649              1.806              1.934
 Vibration     5          0.659              1.774              1.781
 Vibration     6          0.696              1.663              1.385
 Vibration     7          0.705              1.639              1.319
 Vibration     8          0.740              1.539              1.091
 Vibration     9          0.802              1.378              0.820
 Vibration    10          0.812              1.353              0.785
 Vibration    11          0.845              1.275              0.687
 Vibration    12          0.943              1.061              0.474

 Optimization completed.
    -- Stationary point found.
 Normal termination of Gaussian 09 at Mon Jan 27 17:05:21 2020.
