 Gaussian 09, Revision D.01,
 Gaussian 09:  ES64L-G09RevD.01 24-Apr-2013

 -----------------------------
 # b3lyp 6-31G(2df,p) opt Freq
 -----------------------------

 -----
 titel
 -----
 Symbolic Z-matrix:
 Charge =  0 Multiplicity = 1

 SCF Done:  E(RB3LYP) =  -423.152829156     A.U. after   14 cycles
 Optimization completed.
    -- Stationary point found.
 Normal termination of Gaussian 09 at Mon Jan 27 22:14:02 2020.

 ----------------------------------------------------------------------
 #N Geom=AllCheck Guess=TCheck SCRF=Check GenChk RB3LYP/6-31G(2df,p) Fr
 eq
 ----------------------------------------------------------------------

 Structure from the checkpoint file:  "/scratch/puck/g09_011b2624-78d3-4487-a380-ddeb60b46075/Gau-28780.chk"
 -----
 titel
 -----
 Charge =  0 Multiplicity = 1

                         Standard orientation:
 ---------------------------------------------------------------------
 Center     Atomic      Atomic             Coordinates (Angstroms)
 Number     Number       Type             X           Y           Z
 ---------------------------------------------------------------------
      1          6           0        1.507408    2.166230   -0.126000
      2          6           0        0.717647    0.895834   -0.412447
      3          6           0       -0.796646    1.003967   -0.162999
      4          6           0       -1.473492   -0.319242   -0.341303
      5          8           0       -2.868299   -0.386105   -0.279755
      6          6           0       -0.718073   -0.073176    0.941872
      7          6           0        0.805959   -0.184726    0.714067
      8          6           0        1.281465   -1.570112    0.366629
      9          8           0        1.646070   -1.923006   -0.727701
     10          1           0        2.584439    1.968620   -0.145580
     11          1           0        1.293853    2.937366   -0.873878
     12          1           0        1.255415    2.577140    0.858397
     13          1           0        0.979066    0.501188   -1.399137
     14          1           0       -1.361781    1.930810   -0.168887
     15          1           0       -1.108797   -1.033287   -1.075492
     16          1           0       -3.189981    0.326527    0.282674
     17          1           0       -1.221478   -0.127324    1.900522
     18          1           0        1.363348    0.173388    1.587802
     19          1           0        1.238140   -2.294184    1.214309
 ---------------------------------------------------------------------

 SCF Done:  E(RB3LYP) =  -423.152829156     A.U. after    1 cycles

 The electronic state is 1-A.
 Alpha  occ. eigenvalues --  -19.14940 -19.14048 -10.26993 -10.24271 -10.20411
 Alpha  occ. eigenvalues --  -10.20328 -10.19882 -10.19783 -10.18278  -1.04639
 Alpha  occ. eigenvalues --   -1.03576  -0.89871  -0.76388  -0.72559  -0.64057
 Alpha  occ. eigenvalues --   -0.61613  -0.59009  -0.53392  -0.51889  -0.49838
 Alpha  occ. eigenvalues --   -0.47015  -0.45559  -0.43008  -0.41298  -0.40752
 Alpha  occ. eigenvalues --   -0.39138  -0.38229  -0.35995  -0.35570  -0.33219
 Alpha  occ. eigenvalues --   -0.33043  -0.28213  -0.24621  -0.23975
 Alpha virt. eigenvalues --   -0.02154   0.06783   0.08521   0.09749   0.11271
 Alpha virt. eigenvalues --    0.13082   0.13451   0.14794   0.15618   0.16088
 Alpha virt. eigenvalues --    0.16936   0.17543   0.18655   0.20164   0.22147

 Mulliken charges:
               1
     1  C   -0.413498
     2  C   -0.004056
     3  C   -0.123310
     4  C    0.145958
     5  O   -0.440937
     6  C   -0.150662
     7  C   -0.113680
     8  C    0.153196
     9  O   -0.252543
    10  H    0.121704
    11  H    0.119628
    12  H    0.113440
    13  H    0.097431
    14  H    0.084286
    15  H    0.121612
    16  H    0.284184
    17  H    0.090495
    18  H    0.092484
    19  H    0.074266
 Sum of Mulliken charges =   0.00000

 Dipole moment (field-independent basis, Debye):
    X=             -0.3346    Y=              2.5078    Z=              2.5648  Tot=              3.6027
 Quadrupole moment (field-independent basis, Debye-Ang):
   XX=            -55.8192   YY=            -55.5316   ZZ=            -52.8077
   XY=             -1.0564   XZ=             -0.1099   YZ=             -3.1369

  Exact polarizability:  80.469  -1.003  78.672  -1.788  -1.827  68.812
 Approx polarizability: 110.260  -3.932 109.834  -4.615   1.541 115.630

                      1                      2                      3
                      A                      A                      A
 Frequencies --     57.5322               142.5426               167.2132
 Red. masses --      7.0852                 2.4268                 3.2338
 Frc consts  --      0.0138                 0.0291                 0.0533
 IR Inten    --      3.6017                 7.7217                 3.4089

                      4                      5                      6
                      A                      A                      A
 Frequencies --    173.3037               195.5738               237.4497
 Red. masses --      1.2235                 2.2059                 2.5032
 Frc consts  --      0.0217                 0.0497                 0.0832
 IR Inten    --     54.1311                29.2198                 8.5442

                      7                      8                      9
                      A                      A                      A
 Frequencies --    256.6800               307.3854               387.2795
 Red. masses --      1.2323                 3.5746                 3.2344
 Frc consts  --      0.0478                 0.1990                 0.2858
 IR Inten    --      0.6427                 4.3545                 0.7430

                     10                     11                     12
                      A                      A                      A
 Frequencies --    427.0227               492.8651               643.9229
 Red. masses --      3.5526                 3.6115                 4.4991
 Frc consts  --      0.3817                 0.5169                 1.0991
 IR Inten    --      0.8707                 3.9854                 8.5891

                     13                     14                     15
                      A                      A                      A
 Frequencies --    691.5937               812.5857               823.5066
 Red. masses --      3.9778                 1.7570                 2.1053
 Frc consts  --      1.1210                 0.6835                 0.8412
 IR Inten    --     17.2067                 4.5035                 1.6011

                     16                     17                     18
                      A                      A                      A
 Frequencies --    865.9431               900.2754               915.9740
 Red. masses --      1.9853                 2.4135                 2.2759
 Frc consts  --      0.8771                 1.1525                 1.1251
 IR Inten    --     18.6464                17.5735                10.2713

                     19                     20                     21
                      A                      A                      A
 Frequencies --    967.9360               990.3672              1031.7139
 Red. masses --      1.6802                 1.1995                 2.0069
 Frc consts  --      0.9275                 0.6932                 1.2586
 IR Inten    --      1.0797                 1.8900                 4.5146

                     22                     23                     24
                      A                      A                      A
 Frequencies --   1057.0356              1080.7068              1099.0864
 Red. masses --      2.2354                 1.6763                 1.6672
 Frc consts  --      1.4716                 1.1535                 1.1866
 IR Inten    --      9.4625                13.7681                 7.0293

                     25                     26                     27
                      A                      A                      A
 Frequencies --   1110.9598              1115.6879              1145.8057
 Red. masses --      2.1156                 1.8728                 1.8750
 Frc consts  --      1.5384                 1.3735                 1.4504
 IR Inten    --     14.0712                49.3352                11.8753

                     28                     29                     30
                      A                      A                      A
 Frequencies --   1152.3420              1202.0260              1231.1322
 Red. masses --      1.8902                 1.6793                 1.5423
 Frc consts  --      1.4789                 1.4296                 1.3773
 IR Inten    --     30.4730                26.4255                 4.9161

                     31                     32                     33
                      A                      A                      A
 Frequencies --   1263.0676              1291.4355              1324.2436
 Red. masses --      1.5521                 1.5326                 1.5540
 Frc consts  --      1.4589                 1.5060                 1.6056
 IR Inten    --      4.6125                 1.4862                 4.4620

                     34                     35                     36
                      A                      A                      A
 Frequencies --   1339.8673              1388.8633              1408.2135
 Red. masses --      1.6042                 1.6874                 1.2472
 Frc consts  --      1.6968                 1.9178                 1.4573
 IR Inten    --      6.3367                 9.9170                 2.1847

                     37                     38                     39
                      A                      A                      A
 Frequencies --   1422.9110              1449.2861              1493.0123
 Red. masses --      1.2084                 1.7925                 1.0458
 Frc consts  --      1.4415                 2.2183                 1.3735
 IR Inten    --      7.6105                90.3519                 4.3653

                     40                     41                     42
                      A                      A                      A
 Frequencies --   1499.9544              1819.4309              2853.8873
 Red. masses --      1.0491                10.4162                 1.0822
 Frc consts  --      1.3906                20.3156                 5.1930
 IR Inten    --      3.4190               136.1147               140.3697

                     43                     44                     45
                      A                      A                      A
 Frequencies --   3025.2421              3041.1706              3062.1349
 Red. masses --      1.0355                 1.0836                 1.0851
 Frc consts  --      5.5835                 5.9048                 5.9946
 IR Inten    --     24.7060                16.9467                 5.2971

                     46                     47                     48
                      A                      A                      A
 Frequencies --   3095.5496              3099.4005              3144.3895
 Red. masses --      1.1001                 1.1016                 1.0901
 Frc consts  --      6.2109                 6.2350                 6.3501
 IR Inten    --     36.1843                21.7236                 9.5806

                     49                     50                     51
                      A                      A                      A
 Frequencies --   3157.2011              3175.5663              3811.4675
 Red. masses --      1.0894                 1.0944                 1.0658
 Frc consts  --      6.3978                 6.5021                 9.1226
 IR Inten    --     14.7657                17.8855                19.8965

 - Thermochemistry -
 -------------------
 Temperature   298.150 Kelvin.  Pressure   1.00000 Atm.
 Atom     1 has atomic number  6 and mass  12.00000

 Molecular mass:   126.06808 amu.
 Principal axes and moments of inertia in atomic units:
                           1         2         3
     Eigenvalues --   872.096321249.616281804.60892
           X            0.99735   0.07274  -0.00021
           Y           -0.07273   0.99716  -0.01968
           Z           -0.00122   0.01964   0.99981
 This molecule is an asymmetric top.
 Rotational symmetry number  1.
 Warning -- assumption of classical behavior for rotation
           may cause significant error
 Rotational temperatures (Kelvin)      0.09932     0.06931     0.04800
 Rotational constants (GHZ):           2.06943     1.44424     1.00007
 Zero-point vibrational energy     411812.9 (Joules/Mol)
                                   98.42565 (Kcal/Mol)
 Warning -- explicit consideration of  11 degrees of freedom as
           vibrations may cause significant error
 Vibrational temperatures:     82.78   205.09   240.58   249.35   281.39
          (Kelvin)            341.64   369.30   442.26   557.21   614.39
                              709.12   926.46   995.05  1169.13  1184.84
                             1245.90  1295.29  1317.88  1392.64  1424.92
                             1484.40  1520.84  1554.89  1581.34  1598.42
                             1605.22  1648.56  1657.96  1729.45  1771.32
                             1817.27  1858.09  1905.29  1927.77  1998.26
                             2026.10  2047.25  2085.20  2148.11  2158.10
                             2617.75  4106.10  4352.64  4375.56  4405.72
                             4453.80  4459.34  4524.07  4542.50  4568.93
                             5483.84

 Zero-point correction=                           0.156851 (Hartree/Particle)
 Thermal correction to Energy=                    0.166136
 Thermal correction to Enthalpy=                  0.167080
 Thermal correction to Gibbs Free Energy=         0.122530
 Sum of electronic and zero-point Energies=           -422.995978
 Sum of electronic and thermal Energies=              -422.986693
 Sum of electronic and thermal Enthalpies=            -422.985749
 Sum of electronic and thermal Free Energies=         -423.030299

                     E (Thermal)             CV                S
                      KCal/Mol        Cal/Mol-Kelvin    Cal/Mol-Kelvin
 Total                  104.252             33.987             93.764
 Electronic               0.000              0.000              0.000
 Translational            0.889              2.981             40.409
 Rotational               0.889              2.981             29.066
 Vibrational            102.474             28.026             24.290
 Vibration     1          0.596              1.974              4.540
 Vibration     2          0.616              1.911              2.769
 Vibration     3          0.624              1.883              2.467
 Vibration     4          0.627              1.875              2.399
 Vibration     5          0.636              1.846              2.174
 Vibration     6          0.656              1.783              1.822
 Vibration     7          0.666              1.751              1.684
 Vibration     8          0.697              1.660              1.376
 Vibration     9          0.756              1.497              1.011
 Vibration    10          0.789              1.411              0.868
 Vibration    11          0.849              1.266              0.676

 Optimization completed.
    -- Stationary point found.
 Normal termination of Gaussian 09 at Tue Jan 28 00:24:12 2020.
