 Gaussian 09, Revision D.01,
 Gaussian 09:  ES64L-G09RevD.01 24-Apr-2013

 -----------------------------
 # b3lyp 6-31G(2df,p) opt Freq
 -----------------------------

 -----
 titel
 -----
 Symbolic Z-matrix:
 Charge =  0 Multiplicity = 1

 SCF Done:  E(RB3LYP) =  -423.138092540     A.U. after   13 cycles
 Optimization completed.
    -- Stationary point found.
 Normal termination of Gaussian 09 at Mon Jan 27 16:06:32 2020.

 ----------------------------------------------------------------------
 #N Geom=AllCheck Guess=TCheck SCRF=Check GenChk RB3LYP/6-31G(2df,p) Fr
 eq
 ----------------------------------------------------------------------

 Structure from the checkpoint file:  "/scratch/puck/g09_6f10d4f1-9426-4d39-8c20-3ec7a89145b4/Gau-46820.chk"
 -----
 titel
 -----
 Charge =  0 Multiplicity = 1

                         Standard orientation:
 ---------------------------------------------------------------------
 Center     Atomic      Atomic             Coordinates (Angstroms)
 Number     Number       Type             X           Y           Z
 ---------------------------------------------------------------------
      1          6           0        2.354710   -0.002384   -0.000015
      2          6           0        0.854481   -0.297272   -0.000021
      3          8           0        0.792298   -1.692742   -0.000011
      4          6           0        0.010080    0.544842   -1.036080
      5          6           0        0.119366    1.723702    0.000044
      6          6           0        0.010093    0.544770    1.036078
      7          6           0       -1.453192    0.157275    0.732391
      8          8           0       -1.684864   -1.070593   -0.000024
      9          6           0       -1.453197    0.157312   -0.732387
     10          1           0        2.800419   -0.473287   -0.880941
     11          1           0        2.618215    1.054486   -0.001423
     12          1           0        2.800203   -0.470915    0.882295
     13          1           0       -0.149216   -1.920235    0.000088
     14          1           0        0.306513    0.645138   -2.079940
     15          1           0        1.064799    2.261547    0.000088
     16          1           0       -0.708400    2.437202    0.000070
     17          1           0        0.306568    0.644986    2.079935
     18          1           0       -2.276301    0.479110    1.360714
     19          1           0       -2.276319    0.479168   -1.360682
 ---------------------------------------------------------------------

 SCF Done:  E(RB3LYP) =  -423.138092540     A.U. after    1 cycles

 The electronic state is 1-A.
 Alpha  occ. eigenvalues --  -19.16677 -19.11245 -10.24396 -10.24362 -10.24181
 Alpha  occ. eigenvalues --  -10.19955 -10.19955 -10.19704 -10.16954  -1.08372
 Alpha  occ. eigenvalues --   -1.00456  -0.87243  -0.72855  -0.69846  -0.66875
 Alpha  occ. eigenvalues --   -0.62976  -0.57229  -0.55417  -0.53306  -0.49744
 Alpha  occ. eigenvalues --   -0.46741  -0.43492  -0.43155  -0.39757  -0.38556
 Alpha  occ. eigenvalues --   -0.37527  -0.37141  -0.37117  -0.34325  -0.32407
 Alpha  occ. eigenvalues --   -0.32378  -0.29643  -0.25902  -0.24638
 Alpha virt. eigenvalues --    0.07626   0.08366   0.09789   0.11287   0.12479
 Alpha virt. eigenvalues --    0.14109   0.14837   0.15252   0.15923   0.17241
 Alpha virt. eigenvalues --    0.17695   0.19171   0.19418   0.21473   0.22140

 Mulliken charges:
               1
     1  C   -0.435453
     2  C    0.447239
     3  O   -0.492946
     4  C   -0.149055
     5  C   -0.237879
     6  C   -0.149023
     7  C    0.038213
     8  O   -0.283232
     9  C    0.038226
    10  H    0.126610
    11  H    0.110888
    12  H    0.126563
    13  H    0.293546
    14  H    0.067125
    15  H    0.109496
    16  H    0.099109
    17  H    0.067120
    18  H    0.111726
    19  H    0.111725
 Sum of Mulliken charges =   0.00000

 Dipole moment (field-independent basis, Debye):
    X=             -0.8252    Y=              2.7848    Z=              0.0001  Tot=              2.9045
 Quadrupole moment (field-independent basis, Debye-Ang):
   XX=            -52.7149   YY=            -56.6634   ZZ=            -50.8078
   XY=              0.1213   XZ=             -0.0002   YZ=             -0.0004

  Exact polarizability:  80.803  -0.416  70.390   0.000   0.000  68.866
 Approx polarizability: 109.625   2.431 112.975   0.000  -0.001 110.027

                      1                      2                      3
                      A                      A                      A
 Frequencies --    141.3750               201.3006               331.3562
 Red. masses --      1.0381                 3.7934                 4.3042
 Frc consts  --      0.0122                 0.0906                 0.2784
 IR Inten    --      0.0781                 0.6259                 3.5070

                      4                      5                      6
                      A                      A                      A
 Frequencies --    331.7236               427.1358               438.5198
 Red. masses --      3.1820                 5.7148                 3.3850
 Frc consts  --      0.2063                 0.6143                 0.3835
 IR Inten    --      0.0157                10.9374                 5.7513

                      7                      8                      9
                      A                      A                      A
 Frequencies --    475.5316               510.9761               621.4121
 Red. masses --      3.0958                 2.3605                 3.5867
 Frc consts  --      0.4125                 0.3631                 0.8160
 IR Inten    --      0.0085                 1.0745                 2.1497

                     10                     11                     12
                      A                      A                      A
 Frequencies --    675.7658               676.0309               714.5130
 Red. masses --      5.3853                 1.1121                 4.9861
 Frc consts  --      1.4489                 0.2995                 1.4998
 IR Inten    --      8.7026                58.7287                 7.3251

                     13                     14                     15
                      A                      A                      A
 Frequencies --    774.0840               819.3120               832.9855
 Red. masses --      3.7036                 2.6337                 1.8936
 Frc consts  --      1.3075                 1.0416                 0.7741
 IR Inten    --      0.4930                 0.3318                 9.5272

                     16                     17                     18
                      A                      A                      A
 Frequencies --    866.9401               895.0495               905.6675
 Red. masses --      1.9392                 2.8439                 4.3165
 Frc consts  --      0.8587                 1.3423                 2.0860
 IR Inten    --     19.7308                 8.2253                12.9401

                     19                     20                     21
                      A                      A                      A
 Frequencies --    916.7140               965.7968               983.1346
 Red. masses --      2.0467                 1.7889                 1.9372
 Frc consts  --      1.0134                 0.9831                 1.1032
 IR Inten    --      0.0459                 3.7644                35.6894

                     22                     23                     24
                      A                      A                      A
 Frequencies --   1008.7985              1053.6023              1071.2758
 Red. masses --      2.4224                 1.6521                 1.1828
 Frc consts  --      1.4524                 1.0805                 0.7998
 IR Inten    --      9.4853                 2.5793                 0.0918

                     25                     26                     27
                      A                      A                      A
 Frequencies --   1077.5586              1090.7754              1117.3786
 Red. masses --      1.3408                 2.4774                 1.3863
 Frc consts  --      0.9173                 1.7366                 1.0198
 IR Inten    --      2.4230                29.2998                 6.2011

                     28                     29                     30
                      A                      A                      A
 Frequencies --   1149.2552              1199.6920              1211.6582
 Red. masses --      1.7596                 1.9105                 1.4665
 Frc consts  --      1.3693                 1.6201                 1.2685
 IR Inten    --      1.2968                 4.2709                 0.1465

                     31                     32                     33
                      A                      A                      A
 Frequencies --   1237.2068              1246.6701              1248.7285
 Red. masses --      2.0765                 1.4149                 2.1081
 Frc consts  --      1.8727                 1.2956                 1.9367
 IR Inten    --     87.8857                 0.0910                 4.1036

                     34                     35                     36
                      A                      A                      A
 Frequencies --   1278.4479              1301.3097              1394.0952
 Red. masses --      1.6459                 1.4024                 2.4285
 Frc consts  --      1.5850                 1.3992                 2.7808
 IR Inten    --     23.5044                 1.3885                79.0715

                     37                     38                     39
                      A                      A                      A
 Frequencies --   1404.9490              1449.9415              1481.0267
 Red. masses --      1.2302                 1.6603                 1.0475
 Frc consts  --      1.4307                 2.0565                 1.3537
 IR Inten    --     13.4605                92.6409                 3.1534

                     40                     41                     42
                      A                      A                      A
 Frequencies --   1495.5590              1528.0568              3053.8537
 Red. masses --      1.0892                 1.0939                 1.0378
 Frc consts  --      1.4354                 1.5049                 5.7024
 IR Inten    --     12.8130                 6.3204                19.3037

                     43                     44                     45
                      A                      A                      A
 Frequencies --   3076.8242              3114.9474              3119.3047
 Red. masses --      1.0653                 1.1009                 1.0885
 Frc consts  --      5.9421                 6.2937                 6.2403
 IR Inten    --     30.9547                 7.7503                61.3324

                     46                     47                     48
                      A                      A                      A
 Frequencies --   3121.0318              3144.6275              3166.2218
 Red. masses --      1.0911                 1.1021                 1.0965
 Frc consts  --      6.2619                 6.4214                 6.4765
 IR Inten    --      2.8955                20.2793                34.5953

                     49                     50                     51
                      A                      A                      A
 Frequencies --   3173.4605              3185.2567              3688.1259
 Red. masses --      1.0878                 1.0978                 1.0637
 Frc consts  --      6.4548                 6.5624                 8.5250
 IR Inten    --     16.2281                18.5835               159.9635

 - Thermochemistry -
 -------------------
 Temperature   298.150 Kelvin.  Pressure   1.00000 Atm.
 Atom     1 has atomic number  6 and mass  12.00000

 Molecular mass:   126.06808 amu.
 Principal axes and moments of inertia in atomic units:
                           1         2         3
     Eigenvalues --   638.40544 961.047051223.38293
           X            0.99998  -0.00569   0.00000
           Y            0.00569   0.99998   0.00000
           Z            0.00000   0.00000   1.00000
 This molecule is an asymmetric top.
 Rotational symmetry number  1.
 Warning -- assumption of classical behavior for rotation
           may cause significant error
 Rotational temperatures (Kelvin)      0.13567     0.09012     0.07080
 Rotational constants (GHZ):           2.82695     1.87789     1.47521
 Zero-point vibrational energy     421055.4 (Joules/Mol)
                                  100.63465 (Kcal/Mol)
 Warning -- explicit consideration of   8 degrees of freedom as
           vibrations may cause significant error
 Vibrational temperatures:    203.41   289.63   476.75   477.28   614.55
          (Kelvin)            630.93   684.18   735.18   894.07   972.28
                              972.66  1028.02  1113.73  1178.81  1198.48
                             1247.33  1287.78  1303.05  1318.95  1389.56
                             1414.51  1451.43  1515.90  1541.33  1550.36
                             1569.38  1607.66  1653.52  1726.09  1743.30
                             1780.06  1793.68  1796.64  1839.40  1872.29
                             2005.79  2021.41  2086.14  2130.86  2151.77
                             2198.53  4393.81  4426.86  4481.71  4487.98
                             4490.46  4524.41  4555.48  4565.90  4582.87
                             5306.38

 Zero-point correction=                           0.160372 (Hartree/Particle)
 Thermal correction to Energy=                    0.167557
 Thermal correction to Enthalpy=                  0.168501
 Thermal correction to Gibbs Free Energy=         0.129283
 Sum of electronic and zero-point Energies=           -422.977721
 Sum of electronic and thermal Energies=              -422.970535
 Sum of electronic and thermal Enthalpies=            -422.969591
 Sum of electronic and thermal Free Energies=         -423.008810

                     E (Thermal)             CV                S
                      KCal/Mol        Cal/Mol-Kelvin    Cal/Mol-Kelvin
 Total                  105.144             30.409             82.542
 Electronic               0.000              0.000              0.000
 Translational            0.889              2.981             40.409
 Rotational               0.889              2.981             28.109
 Vibrational            103.366             24.448             14.025
 Vibration     1          0.615              1.912              2.785
 Vibration     2          0.638              1.838              2.121
 Vibration     3          0.714              1.613              1.253
 Vibration     4          0.714              1.612              1.252
 Vibration     5          0.789              1.411              0.868
 Vibration     6          0.799              1.386              0.831
 Vibration     7          0.832              1.304              0.722
 Vibration     8          0.866              1.226              0.631

 Normal termination of Gaussian 09 at Mon Jan 27 16:53:45 2020.
