 Gaussian 09, Revision D.01,
 Gaussian 09:  ES64L-G09RevD.01 24-Apr-2013

 -----------------------------
 # b3lyp 6-31G(2df,p) opt Freq
 -----------------------------

 -----
 titel
 -----
 Symbolic Z-matrix:
 Charge =  0 Multiplicity = 1

 SCF Done:  E(RB3LYP) =  -423.159772497     A.U. after   14 cycles
 Optimization completed.
    -- Stationary point found.
 Normal termination of Gaussian 09 at Mon Jan 27 12:18:27 2020.

 ----------------------------------------------------------------------
 #N Geom=AllCheck Guess=TCheck SCRF=Check GenChk RB3LYP/6-31G(2df,p) Fr
 eq
 ----------------------------------------------------------------------

 Structure from the checkpoint file:  "/scratch/puck/g09_04d482a0-1734-472e-be2b-3720d046d35f/Gau-35493.chk"
 -----
 titel
 -----
 Charge =  0 Multiplicity = 1

                         Standard orientation:
 ---------------------------------------------------------------------
 Center     Atomic      Atomic             Coordinates (Angstroms)
 Number     Number       Type             X           Y           Z
 ---------------------------------------------------------------------
      1          6           0        2.169080   -0.789898    0.216479
      2          8           0        2.205992    0.614236   -0.136986
      3          6           0        0.794772    0.608181   -0.500856
      4          6           0       -0.058883    1.663240    0.205789
      5          6           0       -1.489426    1.130957    0.457222
      6          8           0       -1.891201    0.166560   -0.512237
      7          6           0       -1.772823   -1.177707   -0.087011
      8          6           0       -0.356466   -1.612940    0.195070
      9          6           0        0.677575   -0.815734   -0.012609
     10          1           0        2.768499   -1.402130   -0.472365
     11          1           0        2.516655   -0.972375    1.241942
     12          1           0        0.687891    0.701292   -1.589508
     13          1           0        0.413602    1.914288    1.161033
     14          1           0       -0.085855    2.579086   -0.393000
     15          1           0       -1.558969    0.694632    1.462247
     16          1           0       -2.213356    1.951332    0.407480
     17          1           0       -2.390423   -1.350464    0.813308
     18          1           0       -2.213352   -1.786092   -0.887543
     19          1           0       -0.225997   -2.612530    0.605677
 ---------------------------------------------------------------------

 SCF Done:  E(RB3LYP) =  -423.159772497     A.U. after    1 cycles

 The electronic state is 1-A.
 Alpha  occ. eigenvalues --  -19.14149 -19.12900 -10.23717 -10.23260 -10.23147
 Alpha  occ. eigenvalues --  -10.23141 -10.19050 -10.18574 -10.18185  -1.03630
 Alpha  occ. eigenvalues --   -1.03043  -0.79189  -0.77891  -0.71039  -0.66945
 Alpha  occ. eigenvalues --   -0.64034  -0.58325  -0.53112  -0.49790  -0.48959
 Alpha  occ. eigenvalues --   -0.48049  -0.45377  -0.44508  -0.42194  -0.41634
 Alpha  occ. eigenvalues --   -0.39640  -0.37454  -0.36665  -0.31814  -0.31405
 Alpha  occ. eigenvalues --   -0.30865  -0.26722  -0.25888  -0.23246
 Alpha virt. eigenvalues --    0.01147   0.07715   0.09504   0.11264   0.12225
 Alpha virt. eigenvalues --    0.12749   0.13618   0.14488   0.16354   0.16532
 Alpha virt. eigenvalues --    0.17108   0.18873   0.19304   0.20858   0.21630

 Mulliken charges:
               1
     1  C   -0.172469
     2  O   -0.306547
     3  C    0.074961
     4  C   -0.247118
     5  C   -0.080097
     6  O   -0.245807
     7  C   -0.122215
     8  C   -0.252756
     9  C    0.293725
    10  H    0.111031
    11  H    0.114248
    12  H    0.097337
    13  H    0.112277
    14  H    0.106578
    15  H    0.098596
    16  H    0.108383
    17  H    0.097593
    18  H    0.120895
    19  H    0.091386
 Sum of Mulliken charges =   0.00000

 Dipole moment (field-independent basis, Debye):
    X=             -0.8966    Y=             -1.2344    Z=              1.1045  Tot=              1.8835
 Quadrupole moment (field-independent basis, Debye-Ang):
   XX=            -57.3457   YY=            -49.4436   ZZ=            -52.7680
   XY=             -2.6748   XZ=             -1.2995   YZ=             -0.0596

  Exact polarizability:  89.449   2.768  82.988  -0.438  -2.810  60.239
 Approx polarizability: 124.178  11.307 118.078  -0.207  -6.559  94.594

                      1                      2                      3
                      A                      A                      A
 Frequencies --     53.3591               129.7589               234.7839
 Red. masses --      2.0687                 3.0006                 2.6046
 Frc consts  --      0.0035                 0.0298                 0.0846
 IR Inten    --      1.2494                 2.4261                 1.3670

                      4                      5                      6
                      A                      A                      A
 Frequencies --    278.3485               309.3670               359.4616
 Red. masses --      3.6674                 3.3983                 5.0589
 Frc consts  --      0.1674                 0.1916                 0.3851
 IR Inten    --      3.8973                 1.2920                 2.0646

                      7                      8                      9
                      A                      A                      A
 Frequencies --    403.6860               465.5907               607.6810
 Red. masses --      2.3199                 3.4436                 3.4435
 Frc consts  --      0.2227                 0.4398                 0.7492
 IR Inten    --      2.8676                 5.2092                 1.4436

                     10                     11                     12
                      A                      A                      A
 Frequencies --    623.5874               754.9468               783.1163
 Red. masses --      3.5354                 2.2535                 3.3122
 Frc consts  --      0.8100                 0.7567                 1.1968
 IR Inten    --     13.7114                 2.0678                 1.4031

                     13                     14                     15
                      A                      A                      A
 Frequencies --    803.6040               867.8414               900.0893
 Red. masses --      1.3963                 2.3118                 2.2100
 Frc consts  --      0.5313                 1.0259                 1.0549
 IR Inten    --     12.5966                 0.9865                12.8507

                     16                     17                     18
                      A                      A                      A
 Frequencies --    930.7351               984.1079              1003.0477
 Red. masses --      2.6847                 3.0633                 6.6516
 Frc consts  --      1.3703                 1.7479                 3.9429
 IR Inten    --      3.6787                 8.9275                80.5327

                     19                     20                     21
                      A                      A                      A
 Frequencies --   1013.6715              1025.1888              1050.3973
 Red. masses --      1.8248                 2.4697                 1.9869
 Frc consts  --      1.1047                 1.5294                 1.2916
 IR Inten    --      1.9335                15.4843                 9.1023

                     22                     23                     24
                      A                      A                      A
 Frequencies --   1098.7250              1106.5229              1130.2364
 Red. masses --      2.5925                 2.4770                 2.7973
 Frc consts  --      1.8439                 1.7869                 2.1053
 IR Inten    --     16.8449                15.5254                44.1252

                     25                     26                     27
                      A                      A                      A
 Frequencies --   1140.0161              1160.8508              1223.6712
 Red. masses --      1.1241                 4.1540                 1.2640
 Frc consts  --      0.8608                 3.2981                 1.1152
 IR Inten    --      1.9018                64.4654                 2.5521

                     28                     29                     30
                      A                      A                      A
 Frequencies --   1247.9023              1275.7169              1308.7044
 Red. masses --      1.3507                 1.1578                 1.3730
 Frc consts  --      1.2392                 1.1102                 1.3855
 IR Inten    --     13.2859                 8.6372                 4.4861

                     31                     32                     33
                      A                      A                      A
 Frequencies --   1311.0869              1338.3987              1363.2474
 Red. masses --      1.3705                 1.2903                 1.3734
 Frc consts  --      1.3880                 1.3618                 1.5038
 IR Inten    --      3.6571                 2.1859                22.1640

                     34                     35                     36
                      A                      A                      A
 Frequencies --   1376.0270              1398.5787              1416.6365
 Red. masses --      1.5154                 1.3347                 1.2882
 Frc consts  --      1.6906                 1.5382                 1.5232
 IR Inten    --      2.7907                12.9404                 8.9343

                     37                     38                     39
                      A                      A                      A
 Frequencies --   1482.8078              1491.0936              1508.8947
 Red. masses --      1.0830                 1.0836                 1.0900
 Frc consts  --      1.4029                 1.4195                 1.4621
 IR Inten    --      1.5130                 1.3786                 4.4096

                     40                     41                     42
                      A                      A                      A
 Frequencies --   1510.2084              1805.1804              2939.2570
 Red. masses --      1.1032                 9.1153                 1.0718
 Frc consts  --      1.4824                17.5010                 5.4558
 IR Inten    --      0.2249                 2.1244                64.9307

                     43                     44                     45
                      A                      A                      A
 Frequencies --   2994.7300              3011.6652              3013.7267
 Red. masses --      1.0578                 1.0827                 1.0627
 Frc consts  --      5.5895                 5.7860                 5.6868
 IR Inten    --     74.7466                44.9021                27.1930

                     46                     47                     48
                      A                      A                      A
 Frequencies --   3034.3917              3037.0803              3046.1973
 Red. masses --      1.1060                 1.0877                 1.0629
 Frc consts  --      6.0002                 5.9110                 5.8110
 IR Inten    --     33.2987                34.9644                20.3849

                     49                     50                     51
                      A                      A                      A
 Frequencies --   3066.1571              3096.1583              3145.6414
 Red. masses --      1.0981                 1.1057                 1.0900
 Frc consts  --      6.0826                 6.2450                 6.3545
 IR Inten    --     34.1251                39.4849                15.6402

 - Thermochemistry -
 -------------------
 Temperature   298.150 Kelvin.  Pressure   1.00000 Atm.
 Atom     1 has atomic number  6 and mass  12.00000

 Molecular mass:   126.06808 amu.
 Principal axes and moments of inertia in atomic units:
                           1         2         3
     Eigenvalues --   622.773191160.569561629.29231
           X            0.99979  -0.01905  -0.00741
           Y            0.01907   0.99982   0.00211
           Z            0.00737  -0.00225   0.99997
 This molecule is an asymmetric top.
 Rotational symmetry number  1.
 Warning -- assumption of classical behavior for rotation
           may cause significant error
 Rotational temperatures (Kelvin)      0.13908     0.07463     0.05316
 Rotational constants (GHZ):           2.89791     1.55505     1.10768
 Zero-point vibrational energy     422651.9 (Joules/Mol)
                                  101.01623 (Kcal/Mol)
 Warning -- explicit consideration of   9 degrees of freedom as
           vibrations may cause significant error
 Vibrational temperatures:     76.77   186.69   337.80   400.48   445.11
          (Kelvin)            517.18   580.81   669.88   874.32   897.20
                             1086.20  1126.73  1156.21  1248.63  1295.03
                             1339.12  1415.91  1443.16  1458.45  1475.02
                             1511.29  1580.82  1592.04  1626.16  1640.23
                             1670.20  1760.59  1795.45  1835.47  1882.93
                             1886.36  1925.65  1961.41  1979.79  2012.24
                             2038.22  2133.43  2145.35  2170.96  2172.85
                             2597.25  4228.93  4308.74  4333.11  4336.08
                             4365.81  4369.68  4382.79  4411.51  4454.68
                             4525.87

 Zero-point correction=                           0.160980 (Hartree/Particle)
 Thermal correction to Energy=                    0.168723
 Thermal correction to Enthalpy=                  0.169667
 Thermal correction to Gibbs Free Energy=         0.128261
 Sum of electronic and zero-point Energies=           -422.998793
 Sum of electronic and thermal Energies=              -422.991050
 Sum of electronic and thermal Enthalpies=            -422.990106
 Sum of electronic and thermal Free Energies=         -423.031512

                     E (Thermal)             CV                S
                      KCal/Mol        Cal/Mol-Kelvin    Cal/Mol-Kelvin
 Total                  105.875             29.726             87.146
 Electronic               0.000              0.000              0.000
 Translational            0.889              2.981             40.409
 Rotational               0.889              2.981             28.556
 Vibrational            104.098             23.764             18.181
 Vibration     1          0.596              1.976              4.689
 Vibration     2          0.612              1.924              2.950
 Vibration     3          0.655              1.788              1.842
 Vibration     4          0.679              1.714              1.544
 Vibration     5          0.699              1.656              1.366
 Vibration     6          0.734              1.556              1.124
 Vibration     7          0.769              1.462              0.949
 Vibration     8          0.823              1.326              0.750
 Vibration     9          0.966              1.016              0.437

 Optimization completed.
    -- Stationary point found.
 Normal termination of Gaussian 09 at Mon Jan 27 13:02:35 2020.
