 Gaussian 09, Revision D.01,
 Gaussian 09:  ES64L-G09RevD.01 24-Apr-2013

 -----------------------------
 # b3lyp 6-31G(2df,p) opt Freq
 -----------------------------

 -----
 titel
 -----
 Symbolic Z-matrix:
 Charge =  0 Multiplicity = 1

 SCF Done:  E(RB3LYP) =  -423.161734329     A.U. after   13 cycles
 Optimization completed.
    -- Stationary point found.
 Normal termination of Gaussian 09 at Mon Jan 27 23:05:37 2020.

 ----------------------------------------------------------------------
 #N Geom=AllCheck Guess=TCheck SCRF=Check GenChk RB3LYP/6-31G(2df,p) Fr
 eq
 ----------------------------------------------------------------------

 Structure from the checkpoint file:  "/scratch/puck/g09_9dfc7a48-3e89-4eb9-b2a7-9089df1ed250/Gau-103134.chk"
 -----
 titel
 -----
 Charge =  0 Multiplicity = 1

                         Standard orientation:
 ---------------------------------------------------------------------
 Center     Atomic      Atomic             Coordinates (Angstroms)
 Number     Number       Type             X           Y           Z
 ---------------------------------------------------------------------
      1          6           0       -1.254221    2.016480   -0.315663
      2          6           0       -0.983207    0.692269    0.403765
      3          6           0       -1.281397   -0.541403   -0.443165
      4          8           0       -1.298214   -1.751041    0.330423
      5          6           0       -0.138893   -1.469737   -0.456700
      6          6           0        0.995466   -0.901573    0.363911
      7          6           0        2.046957   -0.116794   -0.440495
      8          8           0        1.425404    1.140558   -0.108087
      9          6           0        0.498697    0.504395    0.809175
     10          1           0       -0.637043    2.108048   -1.211902
     11          1           0       -2.307919    2.089564   -0.602908
     12          1           0       -1.022337    2.867045    0.332311
     13          1           0       -1.604460    0.635987    1.305809
     14          1           0       -2.012920   -0.497130   -1.247486
     15          1           0        0.057661   -2.162289   -1.273381
     16          1           0        1.363366   -1.594766    1.121743
     17          1           0        3.068427   -0.182313   -0.044927
     18          1           0        2.072394   -0.293231   -1.523352
     19          1           0        0.704892    0.811124    1.840443
 ---------------------------------------------------------------------

 SCF Done:  E(RB3LYP) =  -423.161734329     A.U. after    1 cycles

 The electronic state is 1-A.
 Alpha  occ. eigenvalues --  -19.15028 -19.13517 -10.23776 -10.23568 -10.23467
 Alpha  occ. eigenvalues --  -10.23462 -10.19692 -10.19158 -10.17509  -1.07400
 Alpha  occ. eigenvalues --   -1.03927  -0.80059  -0.76417  -0.68740  -0.65987
 Alpha  occ. eigenvalues --   -0.64358  -0.57110  -0.54861  -0.51948  -0.49364
 Alpha  occ. eigenvalues --   -0.46975  -0.44619  -0.43824  -0.42200  -0.40458
 Alpha  occ. eigenvalues --   -0.38895  -0.36753  -0.35394  -0.34651  -0.32396
 Alpha  occ. eigenvalues --   -0.31176  -0.28647  -0.26957  -0.24762
 Alpha virt. eigenvalues --    0.07063   0.09017   0.09464   0.11200   0.12031
 Alpha virt. eigenvalues --    0.13605   0.14995   0.15153   0.15805   0.16230
 Alpha virt. eigenvalues --    0.17651   0.17855   0.18809   0.19127   0.20913

 Mulliken charges:
               1
     1  C   -0.404325
     2  C   -0.035221
     3  C    0.038641
     4  O   -0.265715
     5  C    0.029047
     6  C   -0.117600
     7  C   -0.087609
     8  O   -0.287806
     9  C    0.119045
    10  H    0.134053
    11  H    0.111460
    12  H    0.121020
    13  H    0.087954
    14  H    0.093012
    15  H    0.095726
    16  H    0.090097
    17  H    0.101786
    18  H    0.101219
    19  H    0.075213
 Sum of Mulliken charges =   0.00000

 Dipole moment (field-independent basis, Debye):
    X=              0.5548    Y=             -0.2222    Z=             -0.5283  Tot=              0.7977
 Quadrupole moment (field-independent basis, Debye-Ang):
   XX=            -52.7025   YY=            -57.2332   ZZ=            -51.0773
   XY=             -6.3570   XZ=              1.5344   YZ=              2.9025

  Exact polarizability:  80.810  -5.940  74.369   0.018   2.398  65.849
 Approx polarizability: 112.316  -4.857 107.113  -3.514   0.109 101.787

                      1                      2                      3
                      A                      A                      A
 Frequencies --     87.4388               187.6362               216.3197
 Red. masses --      3.4822                 1.5390                 1.5216
 Frc consts  --      0.0157                 0.0319                 0.0420
 IR Inten    --      3.5959                 0.9981                 0.3681

                      4                      5                      6
                      A                      A                      A
 Frequencies --    253.5054               279.7150               378.9030
 Red. masses --      3.1196                 3.0421                 3.9927
 Frc consts  --      0.1181                 0.1402                 0.3377
 IR Inten    --      2.4121                 4.5560                 4.9073

                      7                      8                      9
                      A                      A                      A
 Frequencies --    412.2389               531.5364               638.0945
 Red. masses --      5.3856                 4.0208                 4.6594
 Frc consts  --      0.5392                 0.6693                 1.1178
 IR Inten    --      3.1017                 8.3256                 2.1387

                     10                     11                     12
                      A                      A                      A
 Frequencies --    713.0183               805.9819               844.9953
 Red. masses --      3.0024                 2.6476                 2.5655
 Frc consts  --      0.8993                 1.0133                 1.0793
 IR Inten    --      1.5063                 4.8859                20.2561

                     13                     14                     15
                      A                      A                      A
 Frequencies --    853.9717               882.3966               887.9188
 Red. masses --      2.9269                 3.0734                 3.6658
 Frc consts  --      1.2576                 1.4099                 1.7028
 IR Inten    --      0.7556                 8.1783                 8.0424

                     16                     17                     18
                      A                      A                      A
 Frequencies --    902.4443               934.1938               976.0613
 Red. masses --      2.2738                 1.9948                 1.9499
 Frc consts  --      1.0910                 1.0257                 1.0945
 IR Inten    --     12.3370                18.5302                18.7018

                     19                     20                     21
                      A                      A                      A
 Frequencies --   1015.2183              1033.0725              1051.7150
 Red. masses --      2.7385                 2.3473                 1.3710
 Frc consts  --      1.6630                 1.4760                 0.8935
 IR Inten    --     42.4145                38.7267                 4.1299

                     22                     23                     24
                      A                      A                      A
 Frequencies --   1065.2726              1096.4096              1114.9513
 Red. masses --      2.1801                 2.0754                 2.3733
 Frc consts  --      1.4577                 1.4699                 1.7383
 IR Inten    --      6.0971                13.9453                 4.2779

                     25                     26                     27
                      A                      A                      A
 Frequencies --   1138.5277              1163.2987              1169.6491
 Red. masses --      1.7610                 1.7869                 1.1977
 Frc consts  --      1.3449                 1.4247                 0.9654
 IR Inten    --      1.6423                 0.6222                 0.2326

                     28                     29                     30
                      A                      A                      A
 Frequencies --   1212.7595              1251.9988              1253.4282
 Red. masses --      1.8102                 1.3731                 1.3623
 Frc consts  --      1.5687                 1.2681                 1.2610
 IR Inten    --      6.4885                 0.6533                 1.6675

                     31                     32                     33
                      A                      A                      A
 Frequencies --   1294.3233              1300.3329              1329.9338
 Red. masses --      1.3098                 1.4307                 1.3534
 Frc consts  --      1.2928                 1.4253                 1.4104
 IR Inten    --      2.3018                 3.4471                 3.2318

                     34                     35                     36
                      A                      A                      A
 Frequencies --   1341.7332              1364.7359              1374.8282
 Red. masses --      1.7333                 1.3618                 1.6338
 Frc consts  --      1.8385                 1.4943                 1.8195
 IR Inten    --      1.5088                 3.6289                 4.6486

                     37                     38                     39
                      A                      A                      A
 Frequencies --   1410.1170              1429.0864              1493.4674
 Red. masses --      1.2871                 3.1995                 1.0498
 Frc consts  --      1.5079                 3.8499                 1.3796
 IR Inten    --      3.4565                16.8239                 4.2616

                     40                     41                     42
                      A                      A                      A
 Frequencies --   1502.6853              1526.9043              3009.6242
 Red. masses --      1.0494                 1.1012                 1.0550
 Frc consts  --      1.3961                 1.5127                 5.6301
 IR Inten    --      5.1909                 0.7206                83.9768

                     43                     44                     45
                      A                      A                      A
 Frequencies --   3031.1968              3043.1773              3049.3479
 Red. masses --      1.0833                 1.0413                 1.0827
 Frc consts  --      5.8644                 5.6815                 5.9318
 IR Inten    --     10.4199                27.4170                43.8531

                     46                     47                     48
                      A                      A                      A
 Frequencies --   3051.1582              3103.3656              3107.5093
 Red. masses --      1.1101                 1.0876                 1.1015
 Frc consts  --      6.0892                 6.1713                 6.2670
 IR Inten    --     45.0811                30.1246                19.7834

                     49                     50                     51
                      A                      A                      A
 Frequencies --   3125.2855              3132.7536              3139.9628
 Red. masses --      1.0870                 1.1001                 1.0947
 Frc consts  --      6.2554                 6.3613                 6.3592
 IR Inten    --     24.6835                15.6659                33.0884

 - Thermochemistry -
 -------------------
 Temperature   298.150 Kelvin.  Pressure   1.00000 Atm.
 Atom     1 has atomic number  6 and mass  12.00000

 Molecular mass:   126.06808 amu.
 Principal axes and moments of inertia in atomic units:
                           1         2         3
     Eigenvalues --   788.71386 884.280271418.87814
           X            0.85268  -0.52236   0.00936
           Y            0.52229   0.85272   0.00851
           Z           -0.01243  -0.00236   0.99992
 This molecule is an asymmetric top.
 Rotational symmetry number  1.
 Warning -- assumption of classical behavior for rotation
           may cause significant error
 Rotational temperatures (Kelvin)      0.10982     0.09795     0.06104
 Rotational constants (GHZ):           2.28821     2.04092     1.27195
 Zero-point vibrational energy     421768.6 (Joules/Mol)
                                  100.80511 (Kcal/Mol)
 Warning -- explicit consideration of   8 degrees of freedom as
           vibrations may cause significant error
 Vibrational temperatures:    125.80   269.97   311.24   364.74   402.45
          (Kelvin)            545.16   593.12   764.76   918.07  1025.87
                             1159.63  1215.76  1228.67  1269.57  1277.52
                             1298.41  1344.09  1404.33  1460.67  1486.36
                             1513.18  1532.69  1577.49  1604.16  1638.09
                             1673.73  1682.86  1744.89  1801.34  1803.40
                             1862.24  1870.89  1913.48  1930.45  1963.55
                             1978.07  2028.84  2056.13  2148.76  2162.03
                             2196.87  4330.17  4361.21  4378.45  4387.33
                             4389.93  4465.05  4471.01  4496.58  4507.33
                             4517.70

 Zero-point correction=                           0.160643 (Hartree/Particle)
 Thermal correction to Energy=                    0.168183
 Thermal correction to Enthalpy=                  0.169127
 Thermal correction to Gibbs Free Energy=         0.128587
 Sum of electronic and zero-point Energies=           -423.001091
 Sum of electronic and thermal Energies=              -422.993551
 Sum of electronic and thermal Enthalpies=            -422.992607
 Sum of electronic and thermal Free Energies=         -423.033147

                     E (Thermal)             CV                S
                      KCal/Mol        Cal/Mol-Kelvin    Cal/Mol-Kelvin
 Total                  105.536             29.490             85.323
 Electronic               0.000              0.000              0.000
 Translational            0.889              2.981             40.409
 Rotational               0.889              2.981             28.383
 Vibrational            103.759             23.528             16.532
 Vibration     1          0.601              1.958              3.717
 Vibration     2          0.632              1.857              2.251
 Vibration     3          0.645              1.816              1.990
 Vibration     4          0.665              1.757              1.706
 Vibration     5          0.680              1.711              1.535
 Vibration     6          0.749              1.515              1.044
 Vibration     7          0.776              1.444              0.919
 Vibration     8          0.887              1.180              0.584

 Optimization completed.
    -- Stationary point found.
 Normal termination of Gaussian 09 at Mon Jan 27 23:51:51 2020.
