 Gaussian 09, Revision D.01,
 Gaussian 09:  ES64L-G09RevD.01 24-Apr-2013

 -----------------------------
 # b3lyp 6-31G(2df,p) opt Freq
 -----------------------------

 -----
 titel
 -----
 Symbolic Z-matrix:
 Charge =  0 Multiplicity = 1

 SCF Done:  E(RB3LYP) =  -423.158297825     A.U. after   14 cycles
 SCF Done:  E(RB3LYP) =  -423.158297860     A.U. after    6 cycles
 SCF Done:  E(RB3LYP) =  -423.158297602     A.U. after    7 cycles
 SCF Done:  E(RB3LYP) =  -423.158297877     A.U. after    7 cycles
 Optimization completed.
    -- Stationary point found.
 Normal termination of Gaussian 09 at Tue Jan 28 04:08:59 2020.

 ----------------------------------------------------------------------
 #N Geom=AllCheck Guess=TCheck SCRF=Check GenChk RB3LYP/6-31G(2df,p) Fr
 eq
 ----------------------------------------------------------------------

 Structure from the checkpoint file:  "/scratch/puck/g09_0684390c-3b9d-4202-8dad-e865a718a948/Gau-116786.chk"
 -----
 titel
 -----
 Charge =  0 Multiplicity = 1

                         Standard orientation:
 ---------------------------------------------------------------------
 Center     Atomic      Atomic             Coordinates (Angstroms)
 Number     Number       Type             X           Y           Z
 ---------------------------------------------------------------------
      1          6           0       -2.399327    0.795001   -0.565387
      2          6           0       -1.520022   -0.397843   -0.220884
      3          6           0       -1.007983   -0.418603    1.235209
      4          8           0        0.331104   -0.875973    1.116505
      5          6           0        0.798460   -0.348536   -0.110189
      6          6           0        1.917933   -1.228965   -0.642448
      7          8           0       -0.312213   -0.394997   -0.997688
      8          6           0        1.242309    1.055510    0.067615
      9          6           0        1.612392    2.189615    0.214428
     10          1           0       -2.674592    0.776532   -1.623208
     11          1           0       -3.320984    0.773856    0.027053
     12          1           0       -1.871671    1.730995   -0.360807
     13          1           0       -2.047953   -1.331872   -0.452062
     14          1           0       -1.040492    0.586939    1.678420
     15          1           0       -1.549564   -1.113352    1.880052
     16          1           0        2.240999   -0.865338   -1.619844
     17          1           0        2.767315   -1.208823    0.043720
     18          1           0        1.545280   -2.250967   -0.736532
     19          1           0        1.937955    3.192720    0.342596
 ---------------------------------------------------------------------

 SCF Done:  E(RB3LYP) =  -423.158297877     A.U. after    1 cycles

 The electronic state is 1-A.
 Alpha  occ. eigenvalues --  -19.15266 -19.14453 -10.30474 -10.23877 -10.23345
 Alpha  occ. eigenvalues --  -10.18204 -10.17947 -10.17938 -10.17907  -1.09279
 Alpha  occ. eigenvalues --   -0.99507  -0.81054  -0.75196  -0.72612  -0.67986
 Alpha  occ. eigenvalues --   -0.63053  -0.59967  -0.54344  -0.51201  -0.50216
 Alpha  occ. eigenvalues --   -0.48062  -0.43718  -0.42634  -0.40892  -0.40347
 Alpha  occ. eigenvalues --   -0.38769  -0.38503  -0.36673  -0.33807  -0.33028
 Alpha  occ. eigenvalues --   -0.29408  -0.27670  -0.27181  -0.25485
 Alpha virt. eigenvalues --    0.04019   0.04441   0.09698   0.10506   0.12302
 Alpha virt. eigenvalues --    0.13076   0.13823   0.14335   0.15548   0.16760
 Alpha virt. eigenvalues --    0.17059   0.17531   0.18571   0.20109   0.21976

 Mulliken charges:
               1
     1  C   -0.403327
     2  C    0.118876
     3  C   -0.132392
     4  O   -0.253366
     5  C    0.214336
     6  C   -0.431075
     7  O   -0.286923
     8  C    0.371111
     9  C   -0.484876
    10  H    0.129161
    11  H    0.114537
    12  H    0.133004
    13  H    0.085606
    14  H    0.105959
    15  H    0.118179
    16  H    0.137754
    17  H    0.136187
    18  H    0.128676
    19  H    0.198571
 Sum of Mulliken charges =   0.00000

 Dipole moment (field-independent basis, Debye):
    X=             -0.9962    Y=              0.4878    Z=              0.3610  Tot=              1.1665
 Quadrupole moment (field-independent basis, Debye-Ang):
   XX=            -48.5390   YY=            -49.3666   ZZ=            -55.7562
   XY=              1.8328   XZ=             -2.2044   YZ=              1.2727

  Exact polarizability:  83.323   6.345  84.403  -1.952   2.297  62.363
 Approx polarizability: 106.765  14.025 130.968  -1.156   4.293  93.837

                      1                      2                      3
                      A                      A                      A
 Frequencies --     48.3641               133.7651               180.7906
 Red. masses --      3.5569                 2.8258                 2.8926
 Frc consts  --      0.0049                 0.0298                 0.0557
 IR Inten    --      0.7495                 1.0533                 0.8714

                      4                      5                      6
                      A                      A                      A
 Frequencies --    210.8074               224.3454               232.1087
 Red. masses --      1.2071                 2.5652                 1.2052
 Frc consts  --      0.0316                 0.0761                 0.0383
 IR Inten    --      1.4591                 2.7268                 0.0451

                      7                      8                      9
                      A                      A                      A
 Frequencies --    269.1062               372.5390               407.7421
 Red. masses --      2.1409                 2.7132                 2.9451
 Frc consts  --      0.0913                 0.2219                 0.2885
 IR Inten    --      2.6205                 2.5644                 2.7679

                     10                     11                     12
                      A                      A                      A
 Frequencies --    461.0248               517.1922               566.5670
 Red. masses --      3.0290                 7.7882                 6.3313
 Frc consts  --      0.3793                 1.2274                 1.1974
 IR Inten    --      2.9837                 6.2556                 3.0800

                     13                     14                     15
                      A                      A                      A
 Frequencies --    640.4037               649.5113               658.2907
 Red. masses --      3.8750                 1.2553                 2.8490
 Frc consts  --      0.9363                 0.3120                 0.7274
 IR Inten    --      4.6038                38.7624                 8.1099

                     16                     17                     18
                      A                      A                      A
 Frequencies --    660.9886               798.4797               844.7415
 Red. masses --      1.4328                 8.2363                 2.5748
 Frc consts  --      0.3688                 3.0939                 1.0826
 IR Inten    --     27.8071                 0.4233                24.5124

                     19                     20                     21
                      A                      A                      A
 Frequencies --    885.1418               907.5463               946.3654
 Red. masses --      2.4487                 2.0340                 1.9426
 Frc consts  --      1.1304                 0.9870                 1.0251
 IR Inten    --     31.1739                15.8163                41.3927

                     22                     23                     24
                      A                      A                      A
 Frequencies --    953.7582              1071.5096              1100.2846
 Red. masses --      1.4215                 7.4777                 3.5787
 Frc consts  --      0.7618                 5.0584                 2.5526
 IR Inten    --      8.2686                86.9726                96.4676

                     25                     26                     27
                      A                      A                      A
 Frequencies --   1120.5648              1145.2923              1171.6127
 Red. masses --      2.0423                 1.9803                 2.1074
 Frc consts  --      1.5109                 1.5305                 1.7044
 IR Inten    --      8.4457                13.9525                16.9247

                     28                     29                     30
                      A                      A                      A
 Frequencies --   1194.5522              1221.1007              1258.3283
 Red. masses --      2.8081                 3.2031                 1.4202
 Frc consts  --      2.3609                 2.8140                 1.3249
 IR Inten    --    127.2340               122.6145                16.8914

                     31                     32                     33
                      A                      A                      A
 Frequencies --   1346.9077              1364.6929              1398.2446
 Red. masses --      1.3967                 1.1910                 1.3181
 Frc consts  --      1.4929                 1.3068                 1.5183
 IR Inten    --      9.6886                 3.4190                 3.4908

                     34                     35                     36
                      A                      A                      A
 Frequencies --   1403.0393              1410.1598              1477.6925
 Red. masses --      1.3145                 1.3558                 1.0470
 Frc consts  --      1.5246                 1.5885                 1.3470
 IR Inten    --     15.4188                 6.8685                 1.9960

                     37                     38                     39
                      A                      A                      A
 Frequencies --   1479.8892              1485.4975              1497.3870
 Red. masses --      1.0505                 1.0529                 1.0475
 Frc consts  --      1.3555                 1.3689                 1.3839
 IR Inten    --      0.3964                 1.8513                 2.1565

                     40                     41                     42
                      A                      A                      A
 Frequencies --   1512.6589              2227.6013              3005.4336
 Red. masses --      1.0924                 5.8716                 1.0707
 Frc consts  --      1.4727                17.1666                 5.6979
 IR Inten    --      1.5525                 6.4365                27.6466

                     43                     44                     45
                      A                      A                      A
 Frequencies --   3020.5623              3037.5103              3060.2813
 Red. masses --      1.0828                 1.0364                 1.0335
 Frc consts  --      5.8209                 5.6340                 5.7025
 IR Inten    --     47.8919                18.0174                 7.1154

                     46                     47                     48
                      A                      A                      A
 Frequencies --   3108.6509              3111.9035              3125.8626
 Red. masses --      1.0992                 1.0968                 1.1028
 Frc consts  --      6.2585                 6.2578                 6.3485
 IR Inten    --      7.4037                37.9538                24.5466

                     49                     50                     51
                      A                      A                      A
 Frequencies --   3145.6255              3148.5512              3498.6596
 Red. masses --      1.1029                 1.1034                 1.1627
 Frc consts  --      6.4298                 6.4448                 8.3857
 IR Inten    --     10.0816                11.2888                57.4130

 - Thermochemistry -
 -------------------
 Temperature   298.150 Kelvin.  Pressure   1.00000 Atm.
 Atom     1 has atomic number  6 and mass  12.00000

 Molecular mass:   126.06808 amu.
 Principal axes and moments of inertia in atomic units:
                           1         2         3
     Eigenvalues --   780.852921212.597731444.18180
           X            0.99843  -0.05383  -0.01576
           Y            0.05426   0.99814   0.02786
           Z            0.01423  -0.02867   0.99949
 This molecule is an asymmetric top.
 Rotational symmetry number  1.
 Warning -- assumption of classical behavior for rotation
           may cause significant error
 Rotational temperatures (Kelvin)      0.11092     0.07143     0.05997
 Rotational constants (GHZ):           2.31124     1.48833     1.24966
 Zero-point vibrational energy     411034.7 (Joules/Mol)
                                   98.23965 (Kcal/Mol)
 Warning -- explicit consideration of  12 degrees of freedom as
           vibrations may cause significant error
 Vibrational temperatures:     69.59   192.46   260.12   303.30   322.78
          (Kelvin)            333.95   387.18   536.00   586.65   663.31
                              744.12   815.16   921.40   934.50   947.13
                              951.01  1148.83  1215.39  1273.52  1305.76
                             1361.61  1372.24  1541.66  1583.06  1612.24
                             1647.82  1685.69  1718.69  1756.89  1810.45
                             1937.90  1963.49  2011.76  2018.66  2028.90
                             2126.07  2129.23  2137.30  2154.40  2176.38
                             3205.02  4324.14  4345.91  4370.29  4403.06
                             4472.65  4477.33  4497.41  4525.85  4530.06
                             5033.78

 Zero-point correction=                           0.156555 (Hartree/Particle)
 Thermal correction to Energy=                    0.165918
 Thermal correction to Enthalpy=                  0.166862
 Thermal correction to Gibbs Free Energy=         0.122460
 Sum of electronic and zero-point Energies=           -423.001743
 Sum of electronic and thermal Energies=              -422.992380
 Sum of electronic and thermal Enthalpies=            -422.991435
 Sum of electronic and thermal Free Energies=         -423.035838

                     E (Thermal)             CV                S
                      KCal/Mol        Cal/Mol-Kelvin    Cal/Mol-Kelvin
 Total                  104.115             35.155             93.453
 Electronic               0.000              0.000              0.000
 Translational            0.889              2.981             40.409
 Rotational               0.889              2.981             28.705
 Vibrational            102.338             29.193             24.340
 Vibration     1          0.595              1.978              4.883
 Vibration     2          0.613              1.920              2.891
 Vibration     3          0.630              1.866              2.320
 Vibration     4          0.643              1.824              2.037
 Vibration     5          0.649              1.804              1.924
 Vibration     6          0.653              1.792              1.863
 Vibration     7          0.674              1.730              1.602
 Vibration     8          0.744              1.529              1.069
 Vibration     9          0.772              1.453              0.935
 Vibration    10          0.819              1.337              0.763
 Vibration    11          0.872              1.212              0.617
 Vibration    12          0.922              1.104              0.511

 Optimization completed.
    -- Stationary point found.
 Normal termination of Gaussian 09 at Tue Jan 28 04:46:28 2020.
