 Gaussian 09, Revision D.01,
 Gaussian 09:  ES64L-G09RevD.01 24-Apr-2013

 -----------------------------
 # b3lyp 6-31G(2df,p) opt Freq
 -----------------------------

 -----
 titel
 -----
 Symbolic Z-matrix:
 Charge =  0 Multiplicity = 1

 SCF Done:  E(RB3LYP) =  -423.123711418     A.U. after   14 cycles
 Optimization completed.
    -- Stationary point found.
 Normal termination of Gaussian 09 at Tue Jan 28 08:17:49 2020.

 ----------------------------------------------------------------------
 #N Geom=AllCheck Guess=TCheck SCRF=Check GenChk RB3LYP/6-31G(2df,p) Fr
 eq
 ----------------------------------------------------------------------

 Structure from the checkpoint file:  "/scratch/puck/g09_170d3696-f0d2-4062-be20-e0caed6b0e6e/Gau-79813.chk"
 -----
 titel
 -----
 Charge =  0 Multiplicity = 1

                         Standard orientation:
 ---------------------------------------------------------------------
 Center     Atomic      Atomic             Coordinates (Angstroms)
 Number     Number       Type             X           Y           Z
 ---------------------------------------------------------------------
      1          6           0       -1.373372    2.051621   -0.104664
      2          6           0       -0.896538    0.608681   -0.370879
      3          6           0        0.531840    0.450859   -0.099780
      4          6           0        1.705859    0.334561    0.147275
      5          6           0        3.127934    0.139056    0.429170
      6          8           0        3.748612   -0.820490   -0.415858
      7          6           0       -1.707183   -0.382358    0.454172
      8          6           0       -2.125866   -1.680845   -0.079917
      9          8           0       -3.050693   -0.592465    0.025708
     10          1           0       -1.205681    2.327701    0.940783
     11          1           0       -0.830096    2.760288   -0.734272
     12          1           0       -2.442112    2.130535   -0.320616
     13          1           0       -1.084789    0.376225   -1.427606
     14          1           0        3.676233    1.074011    0.268299
     15          1           0        3.254956   -0.122155    1.492236
     16          1           0        3.213158   -1.620041   -0.383764
     17          1           0       -1.587637   -0.280122    1.534084
     18          1           0       -1.846021   -1.957024   -1.095746
     19          1           0       -2.307412   -2.515228    0.595532
 ---------------------------------------------------------------------

 SCF Done:  E(RB3LYP) =  -423.123711418     A.U. after    1 cycles

 The electronic state is 1-A.
 Alpha  occ. eigenvalues --  -19.15571 -19.14177 -10.25312 -10.24481 -10.23831
 Alpha  occ. eigenvalues --  -10.22031 -10.18460 -10.18245 -10.17774  -1.07612
 Alpha  occ. eigenvalues --   -1.02344  -0.81707  -0.75579  -0.69220  -0.68038
 Alpha  occ. eigenvalues --   -0.64837  -0.60297  -0.53662  -0.51566  -0.48972
 Alpha  occ. eigenvalues --   -0.47657  -0.46050  -0.44514  -0.41768  -0.40531
 Alpha  occ. eigenvalues --   -0.39062  -0.37357  -0.36544  -0.35539  -0.30849
 Alpha  occ. eigenvalues --   -0.28858  -0.27782  -0.26372  -0.25356
 Alpha virt. eigenvalues --    0.02882   0.04580   0.09573   0.09982   0.11066
 Alpha virt. eigenvalues --    0.11672   0.12001   0.12876   0.13675   0.16797
 Alpha virt. eigenvalues --    0.17117   0.17928   0.18451   0.19396   0.20419

 Mulliken charges:
               1
     1  C   -0.392308
     2  C   -0.187225
     3  C    0.060332
     4  C    0.047512
     5  C   -0.191615
     6  O   -0.401548
     7  C    0.105615
     8  C   -0.179866
     9  O   -0.237803
    10  H    0.124708
    11  H    0.127168
    12  H    0.136161
    13  H    0.110408
    14  H    0.140864
    15  H    0.116794
    16  H    0.286427
    17  H    0.099700
    18  H    0.116541
    19  H    0.118135
 Sum of Mulliken charges =   0.00000

 Dipole moment (field-independent basis, Debye):
    X=              0.0388    Y=             -0.6871    Z=              0.8423  Tot=              1.0877
 Quadrupole moment (field-independent basis, Debye-Ang):
   XX=            -66.4044   YY=            -47.4339   ZZ=            -51.9972
   XY=              0.5830   XZ=              3.5799   YZ=             -0.0680

  Exact polarizability: 104.350  -0.305  76.955   4.799   1.525  61.659
 Approx polarizability: 149.064  -3.964 103.503  10.235   3.158  93.108

                      1                      2                      3
                      A                      A                      A
 Frequencies --      7.3054                55.8940                93.5423
 Red. masses --      2.9968                 4.1426                 3.3455
 Frc consts  --      0.0001                 0.0076                 0.0172
 IR Inten    --      1.9066                 0.9517                 4.0008

                      4                      5                      6
                      A                      A                      A
 Frequencies --    116.4545               196.2153               211.9584
 Red. masses --      4.1172                 3.3197                 2.6940
 Frc consts  --      0.0329                 0.0753                 0.0713
 IR Inten    --      1.0012                 3.2576                 8.5344

                      7                      8                      9
                      A                      A                      A
 Frequencies --    236.9823               274.5829               325.2775
 Red. masses --      1.0553                 2.1304                 1.7755
 Frc consts  --      0.0349                 0.0946                 0.1107
 IR Inten    --      0.2470                35.3601                67.6578

                     10                     11                     12
                      A                      A                      A
 Frequencies --    346.4346               436.5252               476.2745
 Red. masses --      3.1769                 3.7661                 5.1274
 Frc consts  --      0.2246                 0.4228                 0.6853
 IR Inten    --     24.7482                 8.2234                 1.3404

                     13                     14                     15
                      A                      A                      A
 Frequencies --    541.3550               573.9779               763.2034
 Red. masses --      3.9867                 6.9103                 2.8565
 Frc consts  --      0.6884                 1.3413                 0.9803
 IR Inten    --      6.3466                 7.7619                 4.9351

                     16                     17                     18
                      A                      A                      A
 Frequencies --    814.9923               871.1558               934.7980
 Red. masses --      2.1000                 5.1599                 3.2950
 Frc consts  --      0.8218                 2.3072                 1.6965
 IR Inten    --      9.5443                29.3367                30.4877

                     19                     20                     21
                      A                      A                      A
 Frequencies --    966.5834               984.6921              1012.3170
 Red. masses --      1.3035                 1.6042                 1.9687
 Frc consts  --      0.7175                 0.9165                 1.1887
 IR Inten    --      6.2246                31.9204                 3.9205

                     22                     23                     24
                      A                      A                      A
 Frequencies --   1050.2038              1086.8458              1104.9380
 Red. masses --      4.3422                 1.8258                 1.6133
 Frc consts  --      2.8217                 1.2707                 1.1605
 IR Inten    --     77.3124                 6.1822                 5.3972

                     25                     26                     27
                      A                      A                      A
 Frequencies --   1142.2130              1156.2617              1172.1718
 Red. masses --      2.1679                 1.4711                 1.4210
 Frc consts  --      1.6664                 1.1588                 1.1504
 IR Inten    --      5.2347                 4.5384                 1.3723

                     28                     29                     30
                      A                      A                      A
 Frequencies --   1192.7886              1215.2914              1288.0596
 Red. masses --      1.9873                 1.0987                 1.3771
 Frc consts  --      1.6659                 0.9560                 1.3461
 IR Inten    --      0.7890                16.0286                19.4186

                     31                     32                     33
                      A                      A                      A
 Frequencies --   1290.7180              1323.3934              1357.6950
 Red. masses --      1.5633                 1.4930                 1.2153
 Frc consts  --      1.5344                 1.5406                 1.3199
 IR Inten    --      7.0308                17.3277                 4.2388

                     34                     35                     36
                      A                      A                      A
 Frequencies --   1402.1935              1418.4101              1438.7187
 Red. masses --      1.2324                 1.2360                 1.6801
 Frc consts  --      1.4276                 1.4651                 2.0489
 IR Inten    --      0.8310               103.5391                 8.0088

                     37                     38                     39
                      A                      A                      A
 Frequencies --   1492.5992              1495.5690              1498.0674
 Red. masses --      1.0785                 1.0431                 1.0589
 Frc consts  --      1.4157                 1.3747                 1.4002
 IR Inten    --      1.0325                 5.7710                 1.9694

                     40                     41                     42
                      A                      A                      A
 Frequencies --   1528.9219              2357.1521              2973.6394
 Red. masses --      1.3608                11.8882                 1.0716
 Frc consts  --      1.8742                38.9171                 5.5830
 IR Inten    --      3.3412                 7.0056                49.8286

                     43                     44                     45
                      A                      A                      A
 Frequencies --   3018.9540              3045.4634              3061.6697
 Red. masses --      1.0817                 1.0340                 1.0881
 Frc consts  --      5.8087                 5.6505                 6.0092
 IR Inten    --      8.3768                19.3796                18.3861

                     46                     47                     48
                      A                      A                      A
 Frequencies --   3084.5929              3099.8195              3120.5723
 Red. masses --      1.0501                 1.0886                 1.1018
 Frc consts  --      5.8868                 6.1630                 6.3216
 IR Inten    --     25.9093                14.7615                22.3102

                     49                     50                     51
                      A                      A                      A
 Frequencies --   3130.8940              3172.4693              3816.6867
 Red. masses --      1.1033                 1.1195                 1.0663
 Frc consts  --      6.3721                 6.6386                 9.1513
 IR Inten    --     16.4885                25.5479                18.1557

 - Thermochemistry -
 -------------------
 Temperature   298.150 Kelvin.  Pressure   1.00000 Atm.
 Atom     1 has atomic number  6 and mass  12.00000

 Molecular mass:   126.06808 amu.
 Principal axes and moments of inertia in atomic units:
                           1         2         3
     Eigenvalues --   580.718912592.310883032.60386
           X            0.99997  -0.00445   0.00667
           Y            0.00445   0.99999  -0.00091
           Z           -0.00667   0.00094   0.99998
 This molecule is an asymmetric top.
 Rotational symmetry number  1.
 Warning -- assumption of classical behavior for rotation
           may cause significant error
 Rotational temperatures (Kelvin)      0.14915     0.03341     0.02856
 Rotational constants (GHZ):           3.10777     0.69619     0.59511
 Zero-point vibrational energy     411380.8 (Joules/Mol)
                                   98.32236 (Kcal/Mol)
 Warning -- explicit consideration of  14 degrees of freedom as
           vibrations may cause significant error
 Vibrational temperatures:     10.51    80.42   134.59   167.55   282.31
          (Kelvin)            304.96   340.96   395.06   468.00   498.44
                              628.06   685.25   778.89   825.83  1098.08
                             1172.59  1253.40  1344.96  1390.70  1416.75
                             1456.50  1511.01  1563.73  1589.76  1643.39
                             1663.60  1686.49  1716.15  1748.53  1853.23
                             1857.05  1904.07  1953.42  2017.44  2040.77
                             2069.99  2147.51  2151.79  2155.38  2199.77
                             3391.41  4278.40  4343.60  4381.74  4405.05
                             4438.04  4459.94  4489.80  4504.65  4564.47
                             5491.35

 Zero-point correction=                           0.156687 (Hartree/Particle)
 Thermal correction to Energy=                    0.167073
 Thermal correction to Enthalpy=                  0.168018
 Thermal correction to Gibbs Free Energy=         0.118320
 Sum of electronic and zero-point Energies=           -422.967025
 Sum of electronic and thermal Energies=              -422.956638
 Sum of electronic and thermal Enthalpies=            -422.955694
 Sum of electronic and thermal Free Energies=         -423.005391

                     E (Thermal)             CV                S
                      KCal/Mol        Cal/Mol-Kelvin    Cal/Mol-Kelvin
 Total                  104.840             35.806            104.598
 Electronic               0.000              0.000              0.000
 Translational            0.889              2.981             40.409
 Rotational               0.889              2.981             29.902
 Vibrational            103.063             29.844             34.287
 Vibration     1          0.593              1.987              8.635
 Vibration     2          0.596              1.975              4.597
 Vibration     3          0.603              1.954              3.585
 Vibration     4          0.608              1.936              3.158
 Vibration     5          0.636              1.845              2.168
 Vibration     6          0.643              1.823              2.027
 Vibration     7          0.656              1.784              1.825
 Vibration     8          0.677              1.720              1.567
 Vibration     9          0.709              1.625              1.283
 Vibration    10          0.724              1.583              1.182
 Vibration    11          0.797              1.391              0.838
 Vibration    12          0.833              1.303              0.720
 Vibration    13          0.896              1.159              0.562
 Vibration    14          0.930              1.088              0.497

 Optimization completed on the basis of negligible forces.
    -- Stationary point found.
 Normal termination of Gaussian 09 at Tue Jan 28 09:05:54 2020.
