 Gaussian 09, Revision D.01,
 Gaussian 09:  ES64L-G09RevD.01 24-Apr-2013

 -----------------------------
 # b3lyp 6-31G(2df,p) opt Freq
 -----------------------------

 -----
 titel
 -----
 Symbolic Z-matrix:
 Charge =  0 Multiplicity = 1

 SCF Done:  E(RB3LYP) =  -423.158333377     A.U. after   14 cycles
 Optimization completed.
    -- Stationary point found.
 Normal termination of Gaussian 09 at Tue Jan 28 00:01:22 2020.

 ----------------------------------------------------------------------
 #N Geom=AllCheck Guess=TCheck SCRF=Check GenChk RB3LYP/6-31G(2df,p) Fr
 eq
 ----------------------------------------------------------------------

 Structure from the checkpoint file:  "/scratch/puck/g09_b17d45a4-e68d-4603-b7ad-71aaed0bbcbb/Gau-104923.chk"
 -----
 titel
 -----
 Charge =  0 Multiplicity = 1

                         Standard orientation:
 ---------------------------------------------------------------------
 Center     Atomic      Atomic             Coordinates (Angstroms)
 Number     Number       Type             X           Y           Z
 ---------------------------------------------------------------------
      1          8           0       -3.078966    0.002938    0.247871
      2          6           0       -1.696604    0.039921    0.429288
      3          6           0       -0.736754   -0.801855   -0.367093
      4          6           0        0.464120   -1.458160    0.282175
      5          8           0        1.670443   -1.126471   -0.386600
      6          6           0        2.336412   -0.007314    0.153020
      7          6           0        1.604679    1.307678    0.186387
      8          6           0        0.337202    1.605203   -0.108258
      9          6           0       -0.755239    0.708040   -0.554687
     10          1           0       -3.264584   -0.141663   -0.685390
     11          1           0       -1.473925    0.171468    1.483801
     12          1           0       -1.168170   -1.362406   -1.193339
     13          1           0        0.532541   -1.184771    1.345467
     14          1           0        0.367869   -2.548149    0.232062
     15          1           0        2.675486   -0.231591    1.183500
     16          1           0        3.249512    0.110246   -0.444886
     17          1           0        2.243286    2.120690    0.532662
     18          1           0        0.039514    2.648745   -0.006484
     19          1           0       -1.256239    1.044624   -1.462549
 ---------------------------------------------------------------------

 SCF Done:  E(RB3LYP) =  -423.158333377     A.U. after    1 cycles

 The electronic state is 1-A.
 Alpha  occ. eigenvalues --  -19.14673 -19.13589 -10.24011 -10.23233 -10.22994
 Alpha  occ. eigenvalues --  -10.19363 -10.18943 -10.18563 -10.18293  -1.03297
 Alpha  occ. eigenvalues --   -1.02968  -0.85800  -0.78447  -0.71025  -0.67967
 Alpha  occ. eigenvalues --   -0.61747  -0.57921  -0.53707  -0.52332  -0.49701
 Alpha  occ. eigenvalues --   -0.47349  -0.45721  -0.43332  -0.41407  -0.40888
 Alpha  occ. eigenvalues --   -0.38591  -0.37722  -0.36810  -0.35305  -0.31669
 Alpha  occ. eigenvalues --   -0.28285  -0.28053  -0.24664  -0.22244
 Alpha virt. eigenvalues --    0.02090   0.07029   0.08822   0.10145   0.11152
 Alpha virt. eigenvalues --    0.12721   0.14595   0.15508   0.16615   0.17127
 Alpha virt. eigenvalues --    0.17903   0.18361   0.19411   0.21646   0.25560

 Mulliken charges:
               1
     1  O   -0.425187
     2  C    0.117356
     3  C   -0.100273
     4  C   -0.120426
     5  O   -0.233694
     6  C   -0.131918
     7  C   -0.056610
     8  C   -0.083623
     9  C   -0.123967
    10  H    0.284437
    11  H    0.110742
    12  H    0.082322
    13  H    0.094214
    14  H    0.107883
    15  H    0.095619
    16  H    0.118861
    17  H    0.087956
    18  H    0.089133
    19  H    0.087177
 Sum of Mulliken charges =   0.00000

 Dipole moment (field-independent basis, Debye):
    X=              0.1727    Y=              0.3194    Z=             -0.3097  Tot=              0.4772
 Quadrupole moment (field-independent basis, Debye-Ang):
   XX=            -54.9787   YY=            -52.7722   ZZ=            -52.1277
   XY=              3.1177   XZ=              7.2222   YZ=             -0.5041

  Exact polarizability:  99.385   2.010  75.451   6.193   0.235  60.043
 Approx polarizability: 142.721  -0.813 107.423   7.394   1.063  96.491

                      1                      2                      3
                      A                      A                      A
 Frequencies --     94.5955               140.1234               199.2783
 Red. masses --      2.8569                 1.0456                 3.7424
 Frc consts  --      0.0151                 0.0121                 0.0876
 IR Inten    --      2.9789                86.8034                 2.2995

                      4                      5                      6
                      A                      A                      A
 Frequencies --    238.1648               290.2646               302.0433
 Red. masses --      3.3058                 4.4847                 3.1564
 Frc consts  --      0.1105                 0.2226                 0.1697
 IR Inten    --      8.7225                 9.0567                 1.8422

                      7                      8                      9
                      A                      A                      A
 Frequencies --    379.6511               399.2299               422.6713
 Red. masses --      6.1597                 3.0009                 2.1975
 Frc consts  --      0.5231                 0.2818                 0.2313
 IR Inten    --      1.1769                 3.5155                 0.5704

                     10                     11                     12
                      A                      A                      A
 Frequencies --    485.4918               652.8109               710.3898
 Red. masses --      2.9592                 3.6440                 1.3570
 Frc consts  --      0.4110                 0.9150                 0.4035
 IR Inten    --      2.4239                10.4670                28.4554

                     13                     14                     15
                      A                      A                      A
 Frequencies --    773.8968               838.1784               870.1068
 Red. masses --      4.1087                 3.3007                 3.0572
 Frc consts  --      1.4498                 1.3663                 1.3637
 IR Inten    --      2.2150                 0.8051                 1.0929

                     16                     17                     18
                      A                      A                      A
 Frequencies --    880.8781               926.4531               963.9006
 Red. masses --      3.2124                 3.1238                 3.3730
 Frc consts  --      1.4686                 1.5797                 1.8464
 IR Inten    --     14.0316                37.7609                13.3934

                     19                     20                     21
                      A                      A                      A
 Frequencies --    986.6395              1007.0805              1030.2992
 Red. masses --      1.6545                 1.2304                 2.0438
 Frc consts  --      0.9489                 0.7353                 1.2782
 IR Inten    --     10.0624                 2.0983                10.0762

                     22                     23                     24
                      A                      A                      A
 Frequencies --   1049.1149              1064.3622              1081.9905
 Red. masses --      2.0228                 1.6131                 1.1562
 Frc consts  --      1.3117                 1.0767                 0.7975
 IR Inten    --     19.9031                15.4131                 3.1010

                     25                     26                     27
                      A                      A                      A
 Frequencies --   1130.3763              1141.9737              1177.9344
 Red. masses --      3.2479                 1.6810                 4.4246
 Frc consts  --      2.4451                 1.2916                 3.6172
 IR Inten    --    141.4224                38.9942                23.3096

                     28                     29                     30
                      A                      A                      A
 Frequencies --   1221.4346              1250.0966              1278.8108
 Red. masses --      1.5619                 1.1127                 1.1905
 Frc consts  --      1.3729                 1.0246                 1.1471
 IR Inten    --     72.0020                 6.9966                11.0561

                     31                     32                     33
                      A                      A                      A
 Frequencies --   1299.6793              1328.8454              1352.0570
 Red. masses --      1.3702                 1.2239                 1.2884
 Frc consts  --      1.3636                 1.2734                 1.3876
 IR Inten    --      0.5938                 3.2608                 1.6953

                     34                     35                     36
                      A                      A                      A
 Frequencies --   1392.2201              1399.8407              1417.6394
 Red. masses --      1.3066                 1.3049                 1.3809
 Frc consts  --      1.4921                 1.5066                 1.6352
 IR Inten    --     33.4822                 2.7571                12.1523

                     37                     38                     39
                      A                      A                      A
 Frequencies --   1430.1079              1468.7831              1475.3036
 Red. masses --      1.5081                 2.2414                 1.0931
 Frc consts  --      1.8172                 2.8490                 1.4017
 IR Inten    --      4.8586                85.3057                 6.3131

                     40                     41                     42
                      A                      A                      A
 Frequencies --   1497.3351              1735.7097              2914.7309
 Red. masses --      1.0981                 7.2434                 1.0728
 Frc consts  --      1.4505                12.8572                 5.3699
 IR Inten    --      7.7332                 4.5821                63.2690

                     43                     44                     45
                      A                      A                      A
 Frequencies --   2993.9965              3037.3984              3063.8025
 Red. masses --      1.0658                 1.0855                 1.0969
 Frc consts  --      5.6290                 5.9007                 6.0667
 IR Inten    --     39.1738                30.8598                33.8435

                     46                     47                     48
                      A                      A                      A
 Frequencies --   3097.8661              3113.7208              3133.0008
 Red. masses --      1.0853                 1.0822                 1.0892
 Frc consts  --      6.1366                 6.1817                 6.2994
 IR Inten    --     12.8700                10.2934                32.4402

                     49                     50                     51
                      A                      A                      A
 Frequencies --   3137.4894              3164.4675              3822.3122
 Red. masses --      1.0933                 1.0883                 1.0659
 Frc consts  --      6.3408                 6.4210                 9.1749
 IR Inten    --     26.2730                13.8871                25.7875

 - Thermochemistry -
 -------------------
 Temperature   298.150 Kelvin.  Pressure   1.00000 Atm.
 Atom     1 has atomic number  8 and mass  15.99491

 Molecular mass:   126.06808 amu.
 Principal axes and moments of inertia in atomic units:
                           1         2         3
     Eigenvalues --   557.818021451.708571848.12181
           X            0.99972   0.01417   0.01917
           Y           -0.01403   0.99987  -0.00779
           Z           -0.01928   0.00752   0.99979
 This molecule is an asymmetric top.
 Rotational symmetry number  1.
 Warning -- assumption of classical behavior for rotation
           may cause significant error
 Rotational temperatures (Kelvin)      0.15527     0.05966     0.04687
 Rotational constants (GHZ):           3.23536     1.24318     0.97653
 Zero-point vibrational energy     420275.3 (Joules/Mol)
                                  100.44821 (Kcal/Mol)
 Warning -- explicit consideration of  10 degrees of freedom as
           vibrations may cause significant error
 Vibrational temperatures:    136.10   201.61   286.72   342.67   417.63
          (Kelvin)            434.57   546.23   574.40   608.13   698.51
                              939.25  1022.09  1113.46  1205.95  1251.89
                             1267.39  1332.96  1386.84  1419.55  1448.96
                             1482.37  1509.44  1531.38  1556.74  1626.36
                             1643.04  1694.78  1757.37  1798.61  1839.92
                             1869.95  1911.91  1945.31  2003.09  2014.06
                             2039.66  2057.60  2113.25  2122.63  2154.33
                             2497.30  4193.64  4307.69  4370.13  4408.12
                             4457.13  4479.94  4507.68  4514.14  4552.96
                             5499.45

 Zero-point correction=                           0.160074 (Hartree/Particle)
 Thermal correction to Energy=                    0.168369
 Thermal correction to Enthalpy=                  0.169313
 Thermal correction to Gibbs Free Energy=         0.127252
 Sum of electronic and zero-point Energies=           -422.998259
 Sum of electronic and thermal Energies=              -422.989964
 Sum of electronic and thermal Enthalpies=            -422.989020
 Sum of electronic and thermal Free Energies=         -423.031081

                     E (Thermal)             CV                S
                      KCal/Mol        Cal/Mol-Kelvin    Cal/Mol-Kelvin
 Total                  105.653             31.847             88.525
 Electronic               0.000              0.000              0.000
 Translational            0.889              2.981             40.409
 Rotational               0.889              2.981             28.794
 Vibrational            103.876             25.885             19.322
 Vibration     1          0.603              1.953              3.563
 Vibration     2          0.615              1.913              2.802
 Vibration     3          0.637              1.841              2.140
 Vibration     4          0.656              1.782              1.817
 Vibration     5          0.686              1.692              1.472
 Vibration     6          0.694              1.670              1.406
 Vibration     7          0.750              1.514              1.041
 Vibration     8          0.765              1.472              0.965
 Vibration     9          0.785              1.421              0.883
 Vibration    10          0.842              1.282              0.695

 Normal termination of Gaussian 09 at Tue Jan 28 00:42:25 2020.
