 Gaussian 09, Revision D.01,
 Gaussian 09:  ES64L-G09RevD.01 24-Apr-2013

 -----------------------------
 # b3lyp 6-31G(2df,p) opt Freq
 -----------------------------

 -----
 titel
 -----
 Symbolic Z-matrix:
 Charge =  0 Multiplicity = 1

 SCF Done:  E(RB3LYP) =  -423.165761424     A.U. after   14 cycles
 Optimization completed.
    -- Stationary point found.
 Normal termination of Gaussian 09 at Mon Jan 27 12:03:22 2020.

 ----------------------------------------------------------------------
 #N Geom=AllCheck Guess=TCheck SCRF=Check GenChk RB3LYP/6-31G(2df,p) Fr
 eq
 ----------------------------------------------------------------------

 Structure from the checkpoint file:  "/scratch/puck/g09_c37d633c-a64a-4bd2-a12f-a06ca11ad920/Gau-97059.chk"
 -----
 titel
 -----
 Charge =  0 Multiplicity = 1

                         Standard orientation:
 ---------------------------------------------------------------------
 Center     Atomic      Atomic             Coordinates (Angstroms)
 Number     Number       Type             X           Y           Z
 ---------------------------------------------------------------------
      1          6           0        2.357707   -0.251041    0.295609
      2          8           0        1.878802    0.299170   -0.935647
      3          6           0        0.924797   -0.000161    0.100141
      4          6           0        0.229429    1.188745    0.730392
      5          6           0       -0.978093    1.599199   -0.125363
      6          6           0       -2.031223    0.479903   -0.219512
      7          6           0       -1.427844   -0.901991   -0.411586
      8          8           0       -0.902706   -1.533863    0.766846
      9          6           0        0.018738   -1.141625   -0.253028
     10          1           0        2.746096   -1.267161    0.234442
     11          1           0        2.938196    0.430070    0.916877
     12          1           0       -0.094761    0.919063    1.742091
     13          1           0        0.944760    2.012103    0.812985
     14          1           0       -1.438224    2.507679    0.275843
     15          1           0       -0.617193    1.845438   -1.131210
     16          1           0       -2.639348    0.450411    0.692959
     17          1           0       -2.719410    0.686860   -1.046077
     18          1           0       -1.984665   -1.587125   -1.050898
     19          1           0        0.494705   -1.957974   -0.796528
 ---------------------------------------------------------------------

 SCF Done:  E(RB3LYP) =  -423.165761424     A.U. after    1 cycles

 The electronic state is 1-A.
 Alpha  occ. eigenvalues --  -19.15137 -19.15118 -10.24329 -10.23851 -10.23808
 Alpha  occ. eigenvalues --  -10.23348 -10.18965 -10.18696 -10.18655  -1.07706
 Alpha  occ. eigenvalues --   -1.06546  -0.80897  -0.74097  -0.69727  -0.66154
 Alpha  occ. eigenvalues --   -0.63157  -0.59967  -0.53420  -0.52191  -0.49613
 Alpha  occ. eigenvalues --   -0.47578  -0.43887  -0.43087  -0.42471  -0.41293
 Alpha  occ. eigenvalues --   -0.38647  -0.37724  -0.35973  -0.34614  -0.32896
 Alpha  occ. eigenvalues --   -0.31794  -0.27776  -0.27603  -0.26090
 Alpha virt. eigenvalues --    0.07628   0.08798   0.09839   0.10915   0.11924
 Alpha virt. eigenvalues --    0.12796   0.14468   0.14979   0.15502   0.16039
 Alpha virt. eigenvalues --    0.17310   0.18239   0.19971   0.20627   0.21560

 Mulliken charges:
               1
     1  C   -0.248359
     2  O   -0.282793
     3  C    0.425364
     4  C   -0.290121
     5  C   -0.211968
     6  C   -0.228130
     7  C    0.042028
     8  O   -0.261085
     9  C   -0.014613
    10  H    0.114524
    11  H    0.114097
    12  H    0.116067
    13  H    0.105489
    14  H    0.097188
    15  H    0.115064
    16  H    0.116967
    17  H    0.103164
    18  H    0.095392
    19  H    0.091725
 Sum of Mulliken charges =   0.00000

 Dipole moment (field-independent basis, Debye):
    X=             -0.4285    Y=              0.5685    Z=              0.1555  Tot=              0.7287
 Quadrupole moment (field-independent basis, Debye-Ang):
   XX=            -50.6878   YY=            -53.1782   ZZ=            -55.2548
   XY=             -2.8642   XZ=              5.2292   YZ=              3.8337

  Exact polarizability:  90.346  -3.348  72.181   4.071   2.886  61.236
 Approx polarizability: 121.606  -2.735 100.494   0.962  -2.129 103.010

                      1                      2                      3
                      A                      A                      A
 Frequencies --     93.3611               197.9768               227.6970
 Red. masses --      3.2409                 2.8218                 2.9837
 Frc consts  --      0.0166                 0.0652                 0.0911
 IR Inten    --      2.7171                 4.0242                 6.4850

                      4                      5                      6
                      A                      A                      A
 Frequencies --    314.4731               354.4543               378.8593
 Red. masses --      2.5920                 3.9549                 2.4684
 Frc consts  --      0.1510                 0.2928                 0.2087
 IR Inten    --      0.8016                 4.3933                 2.3720

                      7                      8                      9
                      A                      A                      A
 Frequencies --    442.8752               471.9976               522.6201
 Red. masses --      2.8176                 3.3594                 4.5611
 Frc consts  --      0.3256                 0.4409                 0.7340
 IR Inten    --      5.9262                 0.4179                 2.0129

                     10                     11                     12
                      A                      A                      A
 Frequencies --    653.6339               721.5498               785.1686
 Red. masses --      2.8151                 2.6945                 3.7379
 Frc consts  --      0.7086                 0.8265                 1.3577
 IR Inten    --      0.6727                 2.9587                 4.7168

                     13                     14                     15
                      A                      A                      A
 Frequencies --    813.2108               855.8084               876.4269
 Red. masses --      2.6515                 2.2024                 3.0560
 Frc consts  --      1.0331                 0.9504                 1.3830
 IR Inten    --     13.0641                25.0147                12.1266

                     16                     17                     18
                      A                      A                      A
 Frequencies --    891.4458               936.4043               952.9349
 Red. masses --      2.3066                 2.0415                 2.0004
 Frc consts  --      1.0800                 1.0547                 1.0703
 IR Inten    --     15.8580                23.7587                 6.1780

                     19                     20                     21
                      A                      A                      A
 Frequencies --    992.9628               999.5690              1042.1278
 Red. masses --      2.6878                 4.1600                 1.7145
 Frc consts  --      1.5614                 2.4489                 1.0970
 IR Inten    --      3.8333                13.4854                 1.2091

                     22                     23                     24
                      A                      A                      A
 Frequencies --   1079.7816              1100.4530              1131.5985
 Red. masses --      1.4923                 1.6034                 1.3584
 Frc consts  --      1.0251                 1.1440                 1.0248
 IR Inten    --      2.6780                 3.8550                 4.5005

                     25                     26                     27
                      A                      A                      A
 Frequencies --   1144.1815              1159.3595              1187.6968
 Red. masses --      1.3600                 1.3547                 1.3324
 Frc consts  --      1.0490                 1.0728                 1.1074
 IR Inten    --      1.9789                 0.6503                 0.9939

                     28                     29                     30
                      A                      A                      A
 Frequencies --   1221.7612              1272.0012              1284.7120
 Red. masses --      1.4515                 1.3763                 1.3883
 Frc consts  --      1.2765                 1.3121                 1.3500
 IR Inten    --      0.0419                 1.6511                 3.1043

                     31                     32                     33
                      A                      A                      A
 Frequencies --   1305.3788              1332.5553              1367.2886
 Red. masses --      1.4815                 1.8598                 1.6365
 Frc consts  --      1.4874                 1.9457                 1.8025
 IR Inten    --      0.7893                19.0467                 4.2000

                     34                     35                     36
                      A                      A                      A
 Frequencies --   1374.8526              1382.3539              1423.8647
 Red. masses --      1.5399                 1.5857                 1.8892
 Frc consts  --      1.7150                 1.7853                 2.2567
 IR Inten    --      0.1367                 2.7167                 7.2943

                     37                     38                     39
                      A                      A                      A
 Frequencies --   1460.1378              1476.5654              1483.7977
 Red. masses --      1.2558                 1.1290                 1.7856
 Frc consts  --      1.5775                 1.4503                 2.3162
 IR Inten    --      4.7710                 4.3340                 3.2480

                     40                     41                     42
                      A                      A                      A
 Frequencies --   1498.5091              1531.5048              3032.3087
 Red. masses --      1.1068                 1.4720                 1.0613
 Frc consts  --      1.4643                 2.0342                 5.7498
 IR Inten    --      4.3398                 2.3141                22.1321

                     43                     44                     45
                      A                      A                      A
 Frequencies --   3035.0438              3043.5789              3071.5516
 Red. masses --      1.0652                 1.0604                 1.0969
 Frc consts  --      5.7809                 5.7875                 6.0971
 IR Inten    --     17.5057                14.5026                24.3396

                     46                     47                     48
                      A                      A                      A
 Frequencies --   3078.9524              3084.5025              3096.4476
 Red. masses --      1.0510                 1.1013                 1.1034
 Frc consts  --      5.8703                 6.1733                 6.2331
 IR Inten    --     26.7803                31.7295                24.2089

                     49                     50                     51
                      A                      A                      A
 Frequencies --   3104.5411              3116.8892              3165.3525
 Red. masses --      1.0860                 1.0922                 1.1194
 Frc consts  --      6.1673                 6.2518                 6.6081
 IR Inten    --     23.6688                42.9466                22.5716

 - Thermochemistry -
 -------------------
 Temperature   298.150 Kelvin.  Pressure   1.00000 Atm.
 Atom     1 has atomic number  6 and mass  12.00000

 Molecular mass:   126.06808 amu.
 Principal axes and moments of inertia in atomic units:
                           1         2         3
     Eigenvalues --   651.626221124.266801465.55352
           X            0.99842  -0.04812   0.02890
           Y            0.04671   0.99777   0.04761
           Z           -0.03113  -0.04618   0.99845
 This molecule is an asymmetric top.
 Rotational symmetry number  1.
 Warning -- assumption of classical behavior for rotation
           may cause significant error
 Rotational temperatures (Kelvin)      0.13292     0.07704     0.05910
 Rotational constants (GHZ):           2.76960     1.60526     1.23144
 Zero-point vibrational energy     422120.8 (Joules/Mol)
                                  100.88928 (Kcal/Mol)
 Warning -- explicit consideration of   9 degrees of freedom as
           vibrations may cause significant error
 Vibrational temperatures:    134.33   284.84   327.60   452.46   509.98
          (Kelvin)            545.09   637.20   679.10   751.93   940.43
                             1038.15  1129.68  1170.03  1231.32  1260.98
                             1282.59  1347.28  1371.06  1428.65  1438.16
                             1499.39  1553.56  1583.30  1628.12  1646.22
                             1668.06  1708.83  1757.84  1830.12  1848.41
                             1878.15  1917.25  1967.22  1978.10  1988.90
                             2048.62  2100.81  2124.45  2134.85  2156.02
                             2203.49  4362.81  4366.75  4379.03  4419.27
                             4429.92  4437.91  4455.09  4466.74  4484.50
                             4554.23

 Zero-point correction=                           0.160777 (Hartree/Particle)
 Thermal correction to Energy=                    0.168273
 Thermal correction to Enthalpy=                  0.169217
 Thermal correction to Gibbs Free Energy=         0.128907
 Sum of electronic and zero-point Energies=           -423.004984
 Sum of electronic and thermal Energies=              -422.997489
 Sum of electronic and thermal Enthalpies=            -422.996544
 Sum of electronic and thermal Free Energies=         -423.036854

                     E (Thermal)             CV                S
                      KCal/Mol        Cal/Mol-Kelvin    Cal/Mol-Kelvin
 Total                  105.593             29.918             84.838
 Electronic               0.000              0.000              0.000
 Translational            0.889              2.981             40.409
 Rotational               0.889              2.981             28.464
 Vibrational            103.815             23.956             15.966
 Vibration     1          0.602              1.954              3.588
 Vibration     2          0.637              1.843              2.152
 Vibration     3          0.651              1.799              1.897
 Vibration     4          0.702              1.646              1.339
 Vibration     5          0.730              1.566              1.146
 Vibration     6          0.749              1.515              1.044
 Vibration     7          0.803              1.377              0.818
 Vibration     8          0.829              1.312              0.732
 Vibration     9          0.878              1.200              0.604

 Optimization completed.
    -- Stationary point found.
 Normal termination of Gaussian 09 at Mon Jan 27 12:46:42 2020.
