 Gaussian 09, Revision D.01,
 Gaussian 09:  ES64L-G09RevD.01 24-Apr-2013

 -----------------------------
 # b3lyp 6-31G(2df,p) opt Freq
 -----------------------------

 -----
 titel
 -----
 Symbolic Z-matrix:
 Charge =  0 Multiplicity = 1

 SCF Done:  E(RB3LYP) =  -423.203736440     A.U. after   14 cycles
 Optimization completed.
    -- Stationary point found.
 Normal termination of Gaussian 09 at Mon Jan 27 22:57:34 2020.

 ----------------------------------------------------------------------
 #N Geom=AllCheck Guess=TCheck SCRF=Check GenChk RB3LYP/6-31G(2df,p) Fr
 eq
 ----------------------------------------------------------------------

 Structure from the checkpoint file:  "/scratch/puck/g09_d2a605bc-1f8f-48ed-8028-4b56ed45951e/Gau-191714.chk"
 -----
 titel
 -----
 Charge =  0 Multiplicity = 1

                         Standard orientation:
 ---------------------------------------------------------------------
 Center     Atomic      Atomic             Coordinates (Angstroms)
 Number     Number       Type             X           Y           Z
 ---------------------------------------------------------------------
      1          6           0       -1.688862   -1.516528   -0.417120
      2          6           0       -0.774496   -0.673220    0.485296
      3          6           0        0.693147   -1.095081    0.375909
      4          6           0        1.642547   -0.064919    1.017755
      5          6           0        1.546428    0.577126   -0.381508
      6          6           0        0.331273    1.492524   -0.496702
      7          6           0       -0.904362    0.820724    0.122024
      8          8           0       -1.931401    1.427010    0.307829
      9          8           0        1.177951   -0.715011   -0.945955
     10          1           0       -1.698732   -2.559877   -0.085986
     11          1           0       -2.710622   -1.131500   -0.386336
     12          1           0       -1.330703   -1.489016   -1.450146
     13          1           0       -1.113617   -0.769351    1.525102
     14          1           0        0.845757   -2.158812    0.579438
     15          1           0        1.287099    0.506263    1.879344
     16          1           0        2.631671   -0.478659    1.217511
     17          1           0        2.447881    0.988442   -0.842036
     18          1           0        0.481674    2.463760   -0.012631
     19          1           0        0.113137    1.689004   -1.553173
 ---------------------------------------------------------------------

 SCF Done:  E(RB3LYP) =  -423.203736440     A.U. after    1 cycles

 The electronic state is 1-A.
 Alpha  occ. eigenvalues --  -19.14054 -19.12965 -10.27063 -10.24686 -10.24361
 Alpha  occ. eigenvalues --  -10.19772 -10.19665 -10.19437 -10.18043  -1.05198
 Alpha  occ. eigenvalues --   -1.03925  -0.80426  -0.77643  -0.73557  -0.67453
 Alpha  occ. eigenvalues --   -0.61818  -0.57787  -0.52594  -0.49719  -0.47573
 Alpha  occ. eigenvalues --   -0.46491  -0.45996  -0.43858  -0.41719  -0.40874
 Alpha  occ. eigenvalues --   -0.39364  -0.38551  -0.36580  -0.35980  -0.34388
 Alpha  occ. eigenvalues --   -0.32214  -0.31481  -0.25659  -0.24039
 Alpha virt. eigenvalues --   -0.02004   0.08280   0.09327   0.10968   0.11220
 Alpha virt. eigenvalues --    0.12978   0.15071   0.15768   0.15848   0.16725
 Alpha virt. eigenvalues --    0.17447   0.17868   0.18392   0.19692   0.22020

 Mulliken charges:
               1
     1  C   -0.406998
     2  C   -0.081543
     3  C    0.085926
     4  C   -0.273211
     5  C    0.087947
     6  C   -0.315197
     7  C    0.386837
     8  O   -0.322256
     9  O   -0.298940
    10  H    0.114383
    11  H    0.137749
    12  H    0.135791
    13  H    0.097371
    14  H    0.080014
    15  H    0.106055
    16  H    0.116299
    17  H    0.084175
    18  H    0.125735
    19  H    0.139863
 Sum of Mulliken charges =   0.00000

 Dipole moment (field-independent basis, Debye):
    X=              2.0629    Y=             -0.6359    Z=              0.9576  Tot=              2.3615
 Quadrupole moment (field-independent basis, Debye-Ang):
   XX=            -56.9492   YY=            -53.3555   ZZ=            -53.0205
   XY=              6.3145   XZ=              2.6432   YZ=             -3.1547

  Exact polarizability:  80.495   2.133  77.899  -0.181  -2.506  64.053
 Approx polarizability: 113.274  -3.366 112.325  -4.802  -0.312 101.267

                      1                      2                      3
                      A                      A                      A
 Frequencies --     59.7579               192.6232               235.0597
 Red. masses --      3.9860                 3.0915                 1.6522
 Frc consts  --      0.0084                 0.0676                 0.0538
 IR Inten    --      5.0809                 2.7139                 0.8744

                      4                      5                      6
                      A                      A                      A
 Frequencies --    259.0699               330.9704               376.0985
 Red. masses --      1.4291                 1.9735                 4.6298
 Frc consts  --      0.0565                 0.1274                 0.3859
 IR Inten    --      1.4692                 1.5625                 2.7881

                      7                      8                      9
                      A                      A                      A
 Frequencies --    424.3922               453.8495               535.8847
 Red. masses --      3.3859                 4.7717                 3.3531
 Frc consts  --      0.3593                 0.5791                 0.5673
 IR Inten    --      3.0531                10.7281                 0.9632

                     10                     11                     12
                      A                      A                      A
 Frequencies --    614.9108               649.0731               700.6056
 Red. masses --      2.9888                 3.7547                 3.3312
 Frc consts  --      0.6658                 0.9320                 0.9634
 IR Inten    --      2.7262                 6.4032                 0.7036

                     13                     14                     15
                      A                      A                      A
 Frequencies --    838.2066               851.8859               868.0843
 Red. masses --      1.9889                 2.3919                 2.1765
 Frc consts  --      0.8233                 1.0227                 0.9664
 IR Inten    --      1.2285                 9.8895                 3.7041

                     16                     17                     18
                      A                      A                      A
 Frequencies --    907.3420               926.9594               938.0250
 Red. masses --      4.1944                 2.8948                 2.4101
 Frc consts  --      2.0345                 1.4655                 1.2494
 IR Inten    --     21.6223                24.6166                 6.0712

                     19                     20                     21
                      A                      A                      A
 Frequencies --    978.7410              1020.6196              1027.7808
 Red. masses --      2.2414                 2.2604                 1.5061
 Frc consts  --      1.2651                 1.3873                 0.9374
 IR Inten    --     21.0171                 1.5325                16.1628

                     22                     23                     24
                      A                      A                      A
 Frequencies --   1064.2341              1082.4868              1108.0657
 Red. masses --      1.2350                 2.2221                 1.7979
 Frc consts  --      0.8241                 1.5341                 1.3006
 IR Inten    --      1.0551                27.9771                28.1073

                     25                     26                     27
                      A                      A                      A
 Frequencies --   1117.2295              1171.2286              1186.2411
 Red. masses --      2.5757                 1.2498                 1.9189
 Frc consts  --      1.8942                 1.0101                 1.5909
 IR Inten    --      1.8018                 1.1921                28.7257

                     28                     29                     30
                      A                      A                      A
 Frequencies --   1238.8134              1251.1184              1288.7247
 Red. masses --      1.6060                 1.3868                 1.4616
 Frc consts  --      1.4522                 1.2790                 1.4302
 IR Inten    --     15.3514                 2.0811                 3.4245

                     31                     32                     33
                      A                      A                      A
 Frequencies --   1306.8681              1309.7906              1347.6614
 Red. masses --      1.7554                 1.5927                 1.6754
 Frc consts  --      1.7664                 1.6099                 1.7927
 IR Inten    --      4.3568                 2.9599                 2.1631

                     34                     35                     36
                      A                      A                      A
 Frequencies --   1353.5713              1368.4238              1398.1382
 Red. masses --      1.5166                 1.4824                 1.2287
 Frc consts  --      1.6371                 1.6355                 1.4152
 IR Inten    --     23.3093                 3.4986                 7.4404

                     37                     38                     39
                      A                      A                      A
 Frequencies --   1438.3045              1492.0003              1495.8496
 Red. masses --      1.0876                 1.1239                 1.0491
 Frc consts  --      1.3256                 1.4741                 1.3830
 IR Inten    --      6.2155                 2.8789                 7.6487

                     40                     41                     42
                      A                      A                      A
 Frequencies --   1507.4632              1817.6606              3029.1890
 Red. masses --      1.0545                12.4623                 1.0824
 Frc consts  --      1.4119                24.2591                 5.8517
 IR Inten    --      3.0777               166.4749                11.8083

                     43                     44                     45
                      A                      A                      A
 Frequencies --   3041.4293              3042.1237              3065.1008
 Red. masses --      1.0377                 1.0579                 1.0666
 Frc consts  --      5.6554                 5.7681                 5.9041
 IR Inten    --     20.5744                 8.0311                27.0614

                     46                     47                     48
                      A                      A                      A
 Frequencies --   3072.0961              3083.2341              3087.5992
 Red. masses --      1.0821                 1.0905                 1.1003
 Frc consts  --      6.0169                 6.1080                 6.1805
 IR Inten    --     54.5102                33.5151                13.2297

                     49                     50                     51
                      A                      A                      A
 Frequencies --   3112.8957              3132.9271              3135.5824
 Red. masses --      1.1008                 1.1026                 1.1067
 Frc consts  --      6.2848                 6.3762                 6.4106
 IR Inten    --     18.6906                 7.2410                26.0004

 - Thermochemistry -
 -------------------
 Temperature   298.150 Kelvin.  Pressure   1.00000 Atm.
 Atom     1 has atomic number  6 and mass  12.00000

 Molecular mass:   126.06808 amu.
 Principal axes and moments of inertia in atomic units:
                           1         2         3
     Eigenvalues --   728.225761017.002281368.87374
           X            0.98902   0.14509   0.02801
           Y           -0.14444   0.98922  -0.02391
           Z           -0.03117   0.01960   0.99932
 This molecule is an asymmetric top.
 Rotational symmetry number  1.
 Warning -- assumption of classical behavior for rotation
           may cause significant error
 Rotational temperatures (Kelvin)      0.11894     0.08517     0.06327
 Rotational constants (GHZ):           2.47827     1.77457     1.31841
 Zero-point vibrational energy     420702.7 (Joules/Mol)
                                  100.55035 (Kcal/Mol)
 Warning -- explicit consideration of  10 degrees of freedom as
           vibrations may cause significant error
 Vibrational temperatures:     85.98   277.14   338.20   372.74   476.19
          (Kelvin)            541.12   610.61   652.99   771.02   884.72
                              933.87  1008.01  1205.99  1225.67  1248.98
                             1305.46  1333.69  1349.61  1408.19  1468.44
                             1478.75  1531.19  1557.46  1594.26  1607.44
                             1685.13  1706.73  1782.37  1800.08  1854.19
                             1880.29  1884.49  1938.98  1947.48  1968.85
                             2011.61  2069.40  2146.65  2152.19  2168.90
                             2615.20  4358.32  4375.93  4376.93  4409.99
                             4420.06  4436.08  4442.36  4478.76  4507.58
                             4511.40

 Zero-point correction=                           0.160237 (Hartree/Particle)
 Thermal correction to Energy=                    0.168006
 Thermal correction to Enthalpy=                  0.168950
 Thermal correction to Gibbs Free Energy=         0.127883
 Sum of electronic and zero-point Energies=           -423.043499
 Sum of electronic and thermal Energies=              -423.035731
 Sum of electronic and thermal Enthalpies=            -423.034786
 Sum of electronic and thermal Free Energies=         -423.075854

                     E (Thermal)             CV                S
                      KCal/Mol        Cal/Mol-Kelvin    Cal/Mol-Kelvin
 Total                  105.425             30.565             86.433
 Electronic               0.000              0.000              0.000
 Translational            0.889              2.981             40.409
 Rotational               0.889              2.981             28.407
 Vibrational            103.648             24.603             17.617
 Vibration     1          0.597              1.973              4.465
 Vibration     2          0.635              1.850              2.202
 Vibration     3          0.655              1.787              1.840
 Vibration     4          0.668              1.747              1.668
 Vibration     5          0.713              1.614              1.255
 Vibration     6          0.747              1.521              1.055
 Vibration     7          0.786              1.417              0.877
 Vibration     8          0.812              1.352              0.784
 Vibration     9          0.891              1.171              0.574
 Vibration    10          0.974              1.000              0.425

 Optimization completed.
    -- Stationary point found.
 Normal termination of Gaussian 09 at Mon Jan 27 23:43:51 2020.
