 Gaussian 09, Revision D.01,
 Gaussian 09:  ES64L-G09RevD.01 24-Apr-2013

 -----------------------------
 # b3lyp 6-31G(2df,p) opt Freq
 -----------------------------

 -----
 titel
 -----
 Symbolic Z-matrix:
 Charge =  0 Multiplicity = 1

 SCF Done:  E(RB3LYP) =  -423.149863855     A.U. after   14 cycles
 Optimization completed.
    -- Stationary point found.
 Normal termination of Gaussian 09 at Tue Jan 28 08:18:08 2020.

 ----------------------------------------------------------------------
 #N Geom=AllCheck Guess=TCheck SCRF=Check GenChk RB3LYP/6-31G(2df,p) Fr
 eq
 ----------------------------------------------------------------------

 Structure from the checkpoint file:  "/scratch/puck/g09_8d3a06e0-bee0-4830-814a-3ec219690cfd/Gau-74402.chk"
 -----
 titel
 -----
 Charge =  0 Multiplicity = 1

                         Standard orientation:
 ---------------------------------------------------------------------
 Center     Atomic      Atomic             Coordinates (Angstroms)
 Number     Number       Type             X           Y           Z
 ---------------------------------------------------------------------
      1          8           0       -3.142315   -0.726012   -0.229046
      2          6           0       -1.868273   -1.220622    0.150608
      3          6           0       -0.841527   -0.161895   -0.237817
      4          6           0        0.589278   -0.596608    0.149306
      5          6           0        1.680892    0.283947   -0.493263
      6          6           0        3.023017   -0.119733   -0.093418
      7          6           0        4.117606   -0.475774    0.252796
      8          6           0       -1.169491    1.151698    0.453546
      9          8           0       -0.998648    2.241918   -0.026202
     10          1           0       -3.815907   -1.342260    0.073407
     11          1           0       -1.816283   -1.404002    1.237088
     12          1           0       -1.631878   -2.169760   -0.353564
     13          1           0       -0.894563    0.012639   -1.318245
     14          1           0        0.705241   -0.578092    1.240024
     15          1           0        0.742551   -1.637071   -0.157866
     16          1           0        1.590694    0.230439   -1.585768
     17          1           0        1.513081    1.335045   -0.231352
     18          1           0        5.091634   -0.775901    0.549917
     19          1           0       -1.545876    1.035643    1.497795
 ---------------------------------------------------------------------

 SCF Done:  E(RB3LYP) =  -423.149863856     A.U. after    1 cycles

 The electronic state is 1-A.
 Alpha  occ. eigenvalues --  -19.15033 -19.14050 -10.27121 -10.24473 -10.21142
 Alpha  occ. eigenvalues --  -10.20690 -10.20264 -10.18131 -10.17029  -1.04799
 Alpha  occ. eigenvalues --   -1.03145  -0.83036  -0.77731  -0.71671  -0.65668
 Alpha  occ. eigenvalues --   -0.63506  -0.57455  -0.52683  -0.52511  -0.48839
 Alpha  occ. eigenvalues --   -0.47008  -0.46191  -0.45520  -0.41988  -0.40888
 Alpha  occ. eigenvalues --   -0.39852  -0.37923  -0.36912  -0.35330  -0.34310
 Alpha  occ. eigenvalues --   -0.28528  -0.26499  -0.26361  -0.24965
 Alpha virt. eigenvalues --   -0.02278   0.05245   0.05893   0.06725   0.09616
 Alpha virt. eigenvalues --    0.10647   0.12268   0.13141   0.14035   0.15252
 Alpha virt. eigenvalues --    0.16590   0.16636   0.18891   0.20323   0.21072

 Mulliken charges:
               1
     1  O   -0.419419
     2  C   -0.108174
     3  C   -0.057523
     4  C   -0.215683
     5  C   -0.364348
     6  C    0.291876
     7  C   -0.434957
     8  C    0.181142
     9  O   -0.254607
    10  H    0.292886
    11  H    0.092181
    12  H    0.097761
    13  H    0.106689
    14  H    0.116298
    15  H    0.116646
    16  H    0.135044
    17  H    0.155311
    18  H    0.194882
    19  H    0.073994
 Sum of Mulliken charges =   0.00000

 Dipole moment (field-independent basis, Debye):
    X=             -0.7266    Y=             -3.5587    Z=              1.0962  Tot=              3.7939
 Quadrupole moment (field-independent basis, Debye-Ang):
   XX=            -49.2198   YY=            -57.4013   ZZ=            -52.4610
   XY=              6.1461   XZ=             -2.2070   YZ=             -0.0526

  Exact polarizability: 103.095  -4.298  71.170   2.829  -3.208  61.859
 Approx polarizability: 134.222 -11.336 109.512   9.079  -9.866  97.257

                      1                      2                      3
                      A                      A                      A
 Frequencies --     48.8827                66.4268                84.9973
 Red. masses --      4.3178                 3.9295                 3.0718
 Frc consts  --      0.0061                 0.0102                 0.0131
 IR Inten    --      3.7983                 4.6250                 1.1008

                      4                      5                      6
                      A                      A                      A
 Frequencies --    105.2145               137.8979               201.0725
 Red. masses --      3.7347                 2.5041                 4.4078
 Frc consts  --      0.0244                 0.0281                 0.1050
 IR Inten    --      0.8280                 3.9802                 4.4941

                      7                      8                      9
                      A                      A                      A
 Frequencies --    233.6825               282.1239               325.6018
 Red. masses --      2.0122                 1.2988                 2.5381
 Frc consts  --      0.0647                 0.0609                 0.1585
 IR Inten    --     15.0835                64.4323                25.3504

                     10                     11                     12
                      A                      A                      A
 Frequencies --    345.7937               359.5696               427.3121
 Red. masses --      4.2064                 2.8102                 4.8024
 Frc consts  --      0.2963                 0.2141                 0.5167
 IR Inten    --     11.1240                 2.3563                 5.5963

                     13                     14                     15
                      A                      A                      A
 Frequencies --    551.9903               564.8468               618.5540
 Red. masses --      3.7259                 4.3700                 1.2021
 Frc consts  --      0.6689                 0.8215                 0.2710
 IR Inten    --     10.7654                12.9838                44.2675

                     16                     17                     18
                      A                      A                      A
 Frequencies --    643.0210               760.7202               872.5242
 Red. masses --      1.2253                 1.2172                 1.9165
 Frc consts  --      0.2985                 0.4150                 0.8597
 IR Inten    --     41.6148                 5.6910                15.8891

                     19                     20                     21
                      A                      A                      A
 Frequencies --    943.7748               950.4735               980.5828
 Red. masses --      1.7329                 4.4240                 1.8586
 Frc consts  --      0.9094                 2.3547                 1.0529
 IR Inten    --      2.9543                 2.3799                 5.0321

                     22                     23                     24
                      A                      A                      A
 Frequencies --   1022.9458              1050.5972              1084.8064
 Red. masses --      3.2228                 3.0382                 4.2380
 Frc consts  --      1.9870                 1.9758                 2.9385
 IR Inten    --      8.0415                32.1813                17.7160

                     25                     26                     27
                      A                      A                      A
 Frequencies --   1111.0493              1134.9561              1193.6124
 Red. masses --      1.9670                 2.2804                 1.3128
 Frc consts  --      1.4306                 1.7307                 1.1020
 IR Inten    --     13.6862                36.7674                 7.5215

                     28                     29                     30
                      A                      A                      A
 Frequencies --   1231.6137              1245.1361              1288.9992
 Red. masses --      1.1899                 1.1391                 1.2631
 Frc consts  --      1.0634                 1.0405                 1.2365
 IR Inten    --     22.1848                13.9361                19.3959

                     31                     32                     33
                      A                      A                      A
 Frequencies --   1305.1670              1330.6773              1352.7509
 Red. masses --      1.1913                 1.2907                 1.3237
 Frc consts  --      1.1956                 1.3465                 1.4271
 IR Inten    --      3.2180                16.0388                 2.0404

                     34                     35                     36
                      A                      A                      A
 Frequencies --   1383.2130              1427.1383              1454.8586
 Red. masses --      1.4416                 1.2252                 1.4430
 Frc consts  --      1.6251                 1.4702                 1.7995
 IR Inten    --      1.9258                 2.5969                 6.5207

                     37                     38                     39
                      A                      A                      A
 Frequencies --   1473.7996              1494.4100              1521.6329
 Red. masses --      1.0779                 1.0895                 1.0821
 Frc consts  --      1.3795                 1.4336                 1.4762
 IR Inten    --      1.4046                 3.0077                 2.9573

                     40                     41                     42
                      A                      A                      A
 Frequencies --   1834.0878              2240.0291              2849.8953
 Red. masses --     10.5119                 5.9316                 1.0818
 Frc consts  --     20.8340                17.5360                 5.1768
 IR Inten    --    150.4080                 3.2402               100.7896

                     43                     44                     45
                      A                      A                      A
 Frequencies --   2962.5456              3002.9594              3025.6336
 Red. masses --      1.0610                 1.0990                 1.0614
 Frc consts  --      5.4865                 5.8393                 5.7250
 IR Inten    --     47.3727                45.7506                 1.1918

                     46                     47                     48
                      A                      A                      A
 Frequencies --   3035.3453              3056.3486              3063.1880
 Red. masses --      1.0615                 1.0898                 1.0913
 Frc consts  --      5.7621                 5.9982                 6.0329
 IR Inten    --     25.4140                 7.1460                 9.0350

                     49                     50                     51
                      A                      A                      A
 Frequencies --   3082.1231              3507.5329              3831.1511
 Red. masses --      1.1026                 1.1622                 1.0664
 Frc consts  --      6.1712                 8.4242                 9.2221
 IR Inten    --     29.0472                68.7481                30.0588

 - Thermochemistry -
 -------------------
 Temperature   298.150 Kelvin.  Pressure   1.00000 Atm.
 Atom     1 has atomic number  8 and mass  15.99491

 Molecular mass:   126.06808 amu.
 Principal axes and moments of inertia in atomic units:
                           1         2         3
     Eigenvalues --   586.911212379.618682834.71610
           X            0.99991   0.01264  -0.00387
           Y           -0.01267   0.99988  -0.00900
           Z            0.00376   0.00905   0.99995
 This molecule is an asymmetric top.
 Rotational symmetry number  1.
 Warning -- assumption of classical behavior for rotation
           may cause significant error
 Rotational temperatures (Kelvin)      0.14758     0.03640     0.03055
 Rotational constants (GHZ):           3.07498     0.75842     0.63666
 Zero-point vibrational energy     407348.0 (Joules/Mol)
                                   97.35851 (Kcal/Mol)
 Warning -- explicit consideration of  15 degrees of freedom as
           vibrations may cause significant error
 Vibrational temperatures:     70.33    95.57   122.29   151.38   198.40
          (Kelvin)            289.30   336.22   405.91   468.47   497.52
                              517.34   614.81   794.19   812.69   889.96
                              925.16  1094.51  1255.37  1357.88  1367.52
                             1410.84  1471.79  1511.57  1560.79  1598.55
                             1632.95  1717.34  1772.02  1791.47  1854.58
                             1877.84  1914.55  1946.30  1990.13  2053.33
                             2093.21  2120.47  2150.12  2189.29  2638.84
                             3222.90  4100.36  4262.44  4320.58  4353.21
                             4367.18  4397.40  4407.24  4434.48  5046.55
                             5512.16

 Zero-point correction=                           0.155151 (Hartree/Particle)
 Thermal correction to Energy=                    0.165873
 Thermal correction to Enthalpy=                  0.166818
 Thermal correction to Gibbs Free Energy=         0.118150
 Sum of electronic and zero-point Energies=           -422.994713
 Sum of electronic and thermal Energies=              -422.983990
 Sum of electronic and thermal Enthalpies=            -422.983046
 Sum of electronic and thermal Free Energies=         -423.031714

                     E (Thermal)             CV                S
                      KCal/Mol        Cal/Mol-Kelvin    Cal/Mol-Kelvin
 Total                  104.087             37.123            102.430
 Electronic               0.000              0.000              0.000
 Translational            0.889              2.981             40.409
 Rotational               0.889              2.981             29.761
 Vibrational            102.310             31.162             32.261
 Vibration     1          0.595              1.978              4.862
 Vibration     2          0.598              1.970              4.257
 Vibration     3          0.601              1.960              3.772
 Vibration     4          0.605              1.945              3.355
 Vibration     5          0.614              1.915              2.833
 Vibration     6          0.638              1.838              2.123
 Vibration     7          0.654              1.789              1.850
 Vibration     8          0.681              1.707              1.521
 Vibration     9          0.710              1.624              1.282
 Vibration    10          0.724              1.584              1.185
 Vibration    11          0.734              1.556              1.124
 Vibration    12          0.789              1.411              0.867
 Vibration    13          0.907              1.135              0.540
 Vibration    14          0.921              1.107              0.514
 Vibration    15          0.978              0.993              0.419

 Normal termination of Gaussian 09 at Tue Jan 28 08:57:29 2020.
