 Gaussian 09, Revision D.01,
 Gaussian 09:  ES64L-G09RevD.01 24-Apr-2013

 -----------------------------
 # b3lyp 6-31G(2df,p) opt Freq
 -----------------------------

 -----
 titel
 -----
 Symbolic Z-matrix:
 Charge =  0 Multiplicity = 1

 SCF Done:  E(RB3LYP) =  -423.164812424     A.U. after   14 cycles
 Optimization completed.
    -- Stationary point found.
 Normal termination of Gaussian 09 at Mon Jan 27 22:55:32 2020.

 ----------------------------------------------------------------------
 #N Geom=AllCheck Guess=TCheck SCRF=Check GenChk RB3LYP/6-31G(2df,p) Fr
 eq
 ----------------------------------------------------------------------

 Structure from the checkpoint file:  "/scratch/puck/g09_43d30823-eb15-4332-8747-7919d4ab7f0e/Gau-183370.chk"
 -----
 titel
 -----
 Charge =  0 Multiplicity = 1

                         Standard orientation:
 ---------------------------------------------------------------------
 Center     Atomic      Atomic             Coordinates (Angstroms)
 Number     Number       Type             X           Y           Z
 ---------------------------------------------------------------------
      1          6           0        2.986783   -0.817653   -0.284115
      2          6           0        1.625597   -0.445649    0.265818
      3          6           0        1.246078    1.005003    0.294334
      4          6           0       -0.103923    1.187860    0.999442
      5          6           0       -0.790375    0.273477   -0.089593
      6          8           0       -1.652476    0.997424   -0.919851
      7          6           0       -1.496577   -0.967030    0.405885
      8          8           0       -2.647106   -1.204778    0.117710
      9          6           0        0.603402    0.061526   -0.724529
     10          1           0        2.994053   -1.843494   -0.667244
     11          1           0        3.274511   -0.153865   -1.106211
     12          1           0        3.757365   -0.742392    0.490365
     13          1           0        1.299733   -1.073918    1.093957
     14          1           0        1.975172    1.788636    0.127749
     15          1           0       -0.154083    0.872937    2.047890
     16          1           0       -0.526767    2.187723    0.896371
     17          1           0       -2.487600    0.501906   -0.920323
     18          1           0       -0.911739   -1.654064    1.046870
     19          1           0        0.750097   -0.009844   -1.795747
 ---------------------------------------------------------------------

 SCF Done:  E(RB3LYP) =  -423.164812424     A.U. after    1 cycles

 The electronic state is 1-A.
 Alpha  occ. eigenvalues --  -19.15811 -19.13419 -10.27882 -10.25014 -10.20392
 Alpha  occ. eigenvalues --  -10.19881 -10.19859 -10.19440 -10.18705  -1.06949
 Alpha  occ. eigenvalues --   -1.01892  -0.90199  -0.76384  -0.69724  -0.67758
 Alpha  occ. eigenvalues --   -0.61335  -0.56731  -0.54015  -0.52425  -0.50901
 Alpha  occ. eigenvalues --   -0.47766  -0.45494  -0.43192  -0.41586  -0.41056
 Alpha  occ. eigenvalues --   -0.39007  -0.37658  -0.36199  -0.35880  -0.34087
 Alpha  occ. eigenvalues --   -0.29998  -0.28806  -0.26486  -0.24892
 Alpha virt. eigenvalues --   -0.03813   0.08817   0.09461   0.10158   0.11490
 Alpha virt. eigenvalues --    0.12380   0.13473   0.15262   0.16048   0.16369
 Alpha virt. eigenvalues --    0.17040   0.17883   0.19545   0.20129   0.23948

 Mulliken charges:
               1
     1  C   -0.421372
     2  C   -0.018049
     3  C   -0.047379
     4  C   -0.314136
     5  C    0.325613
     6  O   -0.483874
     7  C    0.109369
     8  O   -0.279025
     9  C   -0.115543
    10  H    0.122417
    11  H    0.121134
    12  H    0.122004
    13  H    0.076387
    14  H    0.090119
    15  H    0.095129
    16  H    0.132548
    17  H    0.290999
    18  H    0.096558
    19  H    0.097100
 Sum of Mulliken charges =   0.00000

 Dipole moment (field-independent basis, Debye):
    X=              2.4021    Y=             -0.3239    Z=              0.9599  Tot=              2.6070
 Quadrupole moment (field-independent basis, Debye-Ang):
   XX=            -57.1970   YY=            -54.7062   ZZ=            -52.5959
   XY=             -1.7716   XZ=             -1.1167   YZ=              1.0340

  Exact polarizability:  93.014  -0.040  71.784   2.004  -0.054  65.372
 Approx polarizability: 126.804   4.560 108.049   7.852  -0.947 102.243

                      1                      2                      3
                      A                      A                      A
 Frequencies --     85.5636               142.8596               191.1944
 Red. masses --      5.1025                 3.0135                 1.9360
 Frc consts  --      0.0220                 0.0362                 0.0417
 IR Inten    --      0.0420                 0.6729                 1.5367

                      4                      5                      6
                      A                      A                      A
 Frequencies --    231.0169               243.2206               311.8615
 Red. masses --      1.5359                 2.1742                 2.2258
 Frc consts  --      0.0483                 0.0758                 0.1275
 IR Inten    --      0.8158                 0.3343                 3.0135

                      7                      8                      9
                      A                      A                      A
 Frequencies --    321.1721               383.1289               416.2234
 Red. masses --      4.2457                 2.6266                 2.9991
 Frc consts  --      0.2580                 0.2272                 0.3061
 IR Inten    --     12.1373                24.3083                 7.5213

                     10                     11                     12
                      A                      A                      A
 Frequencies --    448.1444               503.8361               514.1994
 Red. masses --      2.2216                 2.0631                 2.4499
 Frc consts  --      0.2629                 0.3086                 0.3816
 IR Inten    --     33.0276                 8.9208                 8.1109

                     13                     14                     15
                      A                      A                      A
 Frequencies --    766.5572               791.0473               829.5178
 Red. masses --      2.8800                 2.7608                 2.0612
 Frc consts  --      0.9971                 1.0178                 0.8356
 IR Inten    --      3.2482                 4.1835                28.7314

                     16                     17                     18
                      A                      A                      A
 Frequencies --    849.1178               868.7721               894.7104
 Red. masses --      3.1174                 2.1532                 1.6308
 Frc consts  --      1.3243                 0.9575                 0.7691
 IR Inten    --     13.5909                 6.9854                 1.5645

                     19                     20                     21
                      A                      A                      A
 Frequencies --    967.3880               985.7509               999.6162
 Red. masses --      2.0259                 1.4610                 1.8429
 Frc consts  --      1.1170                 0.8365                 1.0850
 IR Inten    --      1.1098                 3.0463                 7.2388

                     22                     23                     24
                      A                      A                      A
 Frequencies --   1013.2841              1054.6410              1069.1810
 Red. masses --      1.8518                 1.1675                 2.3643
 Frc consts  --      1.1202                 0.7651                 1.5924
 IR Inten    --      3.0425                 1.8801                12.4617

                     25                     26                     27
                      A                      A                      A
 Frequencies --   1091.7625              1118.7527              1144.7852
 Red. masses --      2.7104                 1.9767                 1.8456
 Frc consts  --      1.9034                 1.4577                 1.4251
 IR Inten    --     56.4635                 0.9999                 3.5393

                     28                     29                     30
                      A                      A                      A
 Frequencies --   1157.7146              1212.8087              1219.1385
 Red. masses --      1.4421                 1.8273                 1.9998
 Frc consts  --      1.1388                 1.5836                 1.7512
 IR Inten    --      1.7870                10.5592                21.1479

                     31                     32                     33
                      A                      A                      A
 Frequencies --   1245.9299              1281.0886              1313.4222
 Red. masses --      1.6193                 1.8782                 1.7214
 Frc consts  --      1.4810                 1.8162                 1.7496
 IR Inten    --      3.9984                17.9654                 7.7231

                     34                     35                     36
                      A                      A                      A
 Frequencies --   1390.2746              1418.1492              1424.0806
 Red. masses --      1.2130                 1.2336                 2.4114
 Frc consts  --      1.3814                 1.4618                 2.8814
 IR Inten    --     76.0684                 2.8041                11.7275

                     37                     38                     39
                      A                      A                      A
 Frequencies --   1445.8054              1471.0783              1494.5759
 Red. masses --      1.4250                 1.1159                 1.0445
 Frc consts  --      1.7550                 1.4229                 1.3747
 IR Inten    --     30.2754                 1.5715                 1.9877

                     40                     41                     42
                      A                      A                      A
 Frequencies --   1502.7779              1800.0038              2953.0931
 Red. masses --      1.0771                10.3538                 1.0856
 Frc consts  --      1.4332                19.7650                 5.5782
 IR Inten    --      4.9379               177.4239                55.6437

                     43                     44                     45
                      A                      A                      A
 Frequencies --   3030.8220              3039.4408              3092.8106
 Red. masses --      1.0350                 1.0654                 1.0939
 Frc consts  --      5.6018                 5.7989                 6.1653
 IR Inten    --     34.5539                37.3849                 2.5483

                     46                     47                     48
                      A                      A                      A
 Frequencies --   3096.3264              3110.4987              3133.3237
 Red. masses --      1.1016                 1.0945                 1.0998
 Frc consts  --      6.2227                 6.2394                 6.3617
 IR Inten    --     22.0762                43.4532                 7.9735

                     49                     50                     51
                      A                      A                      A
 Frequencies --   3180.1326              3191.0226              3677.0600
 Red. masses --      1.0884                 1.0967                 1.0647
 Frc consts  --      6.4853                 6.5798                 8.4817
 IR Inten    --     13.0482                11.9710                83.5915

 - Thermochemistry -
 -------------------
 Temperature   298.150 Kelvin.  Pressure   1.00000 Atm.
 Atom     1 has atomic number  6 and mass  12.00000

 Molecular mass:   126.06808 amu.
 Principal axes and moments of inertia in atomic units:
                           1         2         3
     Eigenvalues --   563.778391604.827741809.51598
           X            0.99963  -0.02596  -0.00862
           Y            0.02621   0.99921   0.02973
           Z            0.00785  -0.02994   0.99952
 This molecule is an asymmetric top.
 Rotational symmetry number  1.
 Warning -- assumption of classical behavior for rotation
           may cause significant error
 Rotational temperatures (Kelvin)      0.15363     0.05397     0.04787
 Rotational constants (GHZ):           3.20115     1.12457     0.99736
 Zero-point vibrational energy     413421.5 (Joules/Mol)
                                   98.81012 (Kcal/Mol)
 Warning -- explicit consideration of  12 degrees of freedom as
           vibrations may cause significant error
 Vibrational temperatures:    123.11   205.54   275.09   332.38   349.94
          (Kelvin)            448.70   462.09   551.24   598.85   644.78
                              724.91   739.82  1102.90  1138.14  1193.49
                             1221.69  1249.97  1287.29  1391.85  1418.27
                             1438.22  1457.89  1517.39  1538.31  1570.80
                             1609.63  1647.09  1665.69  1744.96  1754.07
                             1792.61  1843.20  1889.72  2000.29  2040.40
                             2048.93  2080.19  2116.55  2150.36  2162.16
                             2589.80  4248.84  4360.67  4373.07  4449.86
                             4454.92  4475.31  4508.15  4575.50  4591.16
                             5290.46

 Zero-point correction=                           0.157464 (Hartree/Particle)
 Thermal correction to Energy=                    0.166254
 Thermal correction to Enthalpy=                  0.167198
 Thermal correction to Gibbs Free Energy=         0.124207
 Sum of electronic and zero-point Energies=           -423.007348
 Sum of electronic and thermal Energies=              -422.998559
 Sum of electronic and thermal Enthalpies=            -422.997615
 Sum of electronic and thermal Free Energies=         -423.040606

                     E (Thermal)             CV                S
                      KCal/Mol        Cal/Mol-Kelvin    Cal/Mol-Kelvin
 Total                  104.326             33.630             90.482
 Electronic               0.000              0.000              0.000
 Translational            0.889              2.981             40.409
 Rotational               0.889              2.981             28.883
 Vibrational            102.548             27.668             21.190
 Vibration     1          0.601              1.959              3.759
 Vibration     2          0.616              1.910              2.765
 Vibration     3          0.634              1.852              2.216
 Vibration     4          0.653              1.794              1.871
 Vibration     5          0.659              1.774              1.779
 Vibration     6          0.700              1.651              1.352
 Vibration     7          0.707              1.633              1.304
 Vibration     8          0.752              1.506              1.027
 Vibration     9          0.779              1.435              0.905
 Vibration    10          0.807              1.365              0.801
 Vibration    11          0.859              1.242              0.649
 Vibration    12          0.869              1.219              0.624

 Optimization completed.
    -- Stationary point found.
 Normal termination of Gaussian 09 at Mon Jan 27 23:38:54 2020.
