 Gaussian 09, Revision D.01,
 Gaussian 09:  ES64L-G09RevD.01 24-Apr-2013

 -----------------------------
 # b3lyp 6-31G(2df,p) opt Freq
 -----------------------------

 -----
 titel
 -----
 Symbolic Z-matrix:
 Charge =  0 Multiplicity = 1

 SCF Done:  E(RB3LYP) =  -423.173103239     A.U. after   14 cycles
 Optimization completed.
    -- Stationary point found.
 Normal termination of Gaussian 09 at Tue Jan 28 02:50:51 2020.

 ----------------------------------------------------------------------
 #N Geom=AllCheck Guess=TCheck SCRF=Check GenChk RB3LYP/6-31G(2df,p) Fr
 eq
 ----------------------------------------------------------------------

 Structure from the checkpoint file:  "/scratch/puck/g09_5c0f8153-f41e-457e-84fb-ee1a68c3ec81/Gau-113527.chk"
 -----
 titel
 -----
 Charge =  0 Multiplicity = 1

                         Standard orientation:
 ---------------------------------------------------------------------
 Center     Atomic      Atomic             Coordinates (Angstroms)
 Number     Number       Type             X           Y           Z
 ---------------------------------------------------------------------
      1          6           0        2.563994   -0.689911    0.123904
      2          6           0        1.116173   -0.553457    0.552370
      3          8           0        0.266919   -1.482147   -0.182286
      4          6           0       -0.462150   -0.413611   -0.823452
      5          6           0       -1.744996   -0.117750   -0.018689
      6          8           0       -2.882135   -0.476096   -0.098426
      7          6           0       -0.995294    0.874959    0.895445
      8          6           0        0.294360    0.659023    0.040413
      9          6           0        0.976538    1.894978   -0.501497
     10          1           0        2.920011   -1.698197    0.356166
     11          1           0        2.679617   -0.529882   -0.951811
     12          1           0        3.197174    0.027487    0.657064
     13          1           0        1.028287   -0.723014    1.634150
     14          1           0       -0.491809   -0.498157   -1.913548
     15          1           0       -1.416009    1.883438    0.819697
     16          1           0       -0.937400    0.603878    1.953835
     17          1           0        1.429333    2.480174    0.307375
     18          1           0        1.764826    1.649895   -1.218618
     19          1           0        0.255949    2.544936   -1.009585
 ---------------------------------------------------------------------

 SCF Done:  E(RB3LYP) =  -423.173103239     A.U. after    1 cycles

 The electronic state is 1-A.
 Alpha  occ. eigenvalues --  -19.14795 -19.14156 -10.27038 -10.24433 -10.23901
 Alpha  occ. eigenvalues --  -10.21234 -10.19687 -10.19298 -10.18580  -1.05780
 Alpha  occ. eigenvalues --   -1.04242  -0.83660  -0.77045  -0.72349  -0.67085
 Alpha  occ. eigenvalues --   -0.64307  -0.55978  -0.52529  -0.49831  -0.48857
 Alpha  occ. eigenvalues --   -0.46584  -0.43539  -0.42735  -0.42315  -0.41555
 Alpha  occ. eigenvalues --   -0.40696  -0.39508  -0.38319  -0.36959  -0.34890
 Alpha  occ. eigenvalues --   -0.31028  -0.29603  -0.28320  -0.23213
 Alpha virt. eigenvalues --   -0.03193   0.06721   0.09553   0.10837   0.11895
 Alpha virt. eigenvalues --    0.12722   0.13187   0.14094   0.14877   0.15272
 Alpha virt. eigenvalues --    0.16891   0.18501   0.18879   0.19290   0.21297

 Mulliken charges:
               1
     1  C   -0.413567
     2  C    0.116219
     3  O   -0.308251
     4  C   -0.054004
     5  C    0.425150
     6  O   -0.291504
     7  C   -0.424809
     8  C    0.270998
     9  C   -0.499467
    10  H    0.133267
    11  H    0.123914
    12  H    0.118401
    13  H    0.078784
    14  H    0.087442
    15  H    0.131993
    16  H    0.130123
    17  H    0.126245
    18  H    0.126287
    19  H    0.122778
 Sum of Mulliken charges =   0.00000

 Dipole moment (field-independent basis, Debye):
    X=              3.0399    Y=              2.4954    Z=              0.3552  Tot=              3.9489
 Quadrupole moment (field-independent basis, Debye-Ang):
   XX=            -60.9729   YY=            -55.1313   ZZ=            -50.3730
   XY=             -2.8430   XZ=              0.2907   YZ=             -0.5848

  Exact polarizability:  89.057  -0.289  70.997   1.267   2.027  67.560
 Approx polarizability: 123.376   2.449 105.421   4.578   4.686 103.658

                      1                      2                      3
                      A                      A                      A
 Frequencies --     66.9690               136.0774               208.4863
 Red. masses --      4.6787                 3.8728                 1.3058
 Frc consts  --      0.0124                 0.0423                 0.0334
 IR Inten    --      1.4870                 2.6480                 0.0408

                      4                      5                      6
                      A                      A                      A
 Frequencies --    221.9605               263.2189               292.1949
 Red. masses --      1.3747                 1.3747                 2.6014
 Frc consts  --      0.0399                 0.0561                 0.1309
 IR Inten    --      0.0439                 0.3163                 1.2927

                      7                      8                      9
                      A                      A                      A
 Frequencies --    335.4262               361.3286               430.8759
 Red. masses --      2.3103                 2.8963                 4.0150
 Frc consts  --      0.1531                 0.2228                 0.4392
 IR Inten    --      2.8167                 2.0250                 1.7817

                     10                     11                     12
                      A                      A                      A
 Frequencies --    453.3587               534.2756               613.0442
 Red. masses --      3.5368                 2.1427                 3.7538
 Frc consts  --      0.4283                 0.3604                 0.8312
 IR Inten    --      2.3788                 7.1951                 0.3312

                     13                     14                     15
                      A                      A                      A
 Frequencies --    647.5081               778.5554               802.7734
 Red. masses --      3.5777                 2.3764                 2.0573
 Frc consts  --      0.8838                 0.8487                 0.7811
 IR Inten    --      0.0545                 2.2738                 2.1466

                     16                     17                     18
                      A                      A                      A
 Frequencies --    871.3922               878.2832               901.7875
 Red. masses --      2.6439                 2.7229                 2.5769
 Frc consts  --      1.1828                 1.2375                 1.2347
 IR Inten    --     23.2656                 1.8044                16.1762

                     19                     20                     21
                      A                      A                      A
 Frequencies --    949.6486              1005.9319              1046.0440
 Red. masses --      2.0399                 4.1744                 1.4888
 Frc consts  --      1.0839                 2.4887                 0.9598
 IR Inten    --      2.7204                53.4924                 7.7210

                     22                     23                     24
                      A                      A                      A
 Frequencies --   1065.6988              1080.3384              1086.3612
 Red. masses --      2.4327                 1.5497                 3.3370
 Frc consts  --      1.6278                 1.0656                 2.3203
 IR Inten    --      9.7828                10.4799                37.9611

                     25                     26                     27
                      A                      A                      A
 Frequencies --   1118.1094              1154.1228              1163.6219
 Red. masses --      2.1342                 1.9205                 1.9681
 Frc consts  --      1.5720                 1.5072                 1.5701
 IR Inten    --     11.4515                 3.5076                 5.1100

                     28                     29                     30
                      A                      A                      A
 Frequencies --   1204.3329              1238.7533              1257.7725
 Red. masses --      1.9363                 2.0797                 1.3599
 Frc consts  --      1.6547                 1.8803                 1.2675
 IR Inten    --     11.6989                 0.6064                 2.4820

                     31                     32                     33
                      A                      A                      A
 Frequencies --   1296.5179              1333.8655              1385.1896
 Red. masses --      1.6846                 2.4891                 1.3119
 Frc consts  --      1.6684                 2.6092                 1.4831
 IR Inten    --      4.7716                 1.9140                 7.3761

                     34                     35                     36
                      A                      A                      A
 Frequencies --   1408.8631              1419.1875              1437.5843
 Red. masses --      1.3351                 1.2838                 1.1099
 Frc consts  --      1.5613                 1.5234                 1.3515
 IR Inten    --     12.3279                 3.3541                10.6089

                     37                     38                     39
                      A                      A                      A
 Frequencies --   1480.9260              1488.0286              1498.5816
 Red. masses --      1.0496                 1.0515                 1.0569
 Frc consts  --      1.3562                 1.3717                 1.3985
 IR Inten    --      6.0107                 0.7664                 3.9536

                     40                     41                     42
                      A                      A                      A
 Frequencies --   1504.3232              1894.9933              3010.3060
 Red. masses --      1.0480                12.6517                 1.0847
 Frc consts  --      1.3973                26.7678                 5.7914
 IR Inten    --      7.1544               272.4395                45.2163

                     43                     44                     45
                      A                      A                      A
 Frequencies --   3030.0818              3038.1732              3049.2622
 Red. masses --      1.0373                 1.0357                 1.0590
 Frc consts  --      5.6112                 5.6328                 5.8015
 IR Inten    --     17.6191                15.7829                11.1095

                     46                     47                     48
                      A                      A                      A
 Frequencies --   3074.1574              3089.9653              3103.0216
 Red. masses --      1.0891                 1.1001                 1.1050
 Frc consts  --      6.0643                 6.1888                 6.2686
 IR Inten    --     34.0812                15.6884                 7.2578

                     49                     50                     51
                      A                      A                      A
 Frequencies --   3109.8299              3110.3477              3120.1700
 Red. masses --      1.1004                 1.1004                 1.1017
 Frc consts  --      6.2702                 6.2719                 6.3191
 IR Inten    --     12.2865                23.8237                26.0712

 - Thermochemistry -
 -------------------
 Temperature   298.150 Kelvin.  Pressure   1.00000 Atm.
 Atom     1 has atomic number  6 and mass  12.00000

 Molecular mass:   126.06808 amu.
 Principal axes and moments of inertia in atomic units:
                           1         2         3
     Eigenvalues --   611.627141308.517341632.31187
           X            0.99990  -0.01253  -0.00577
           Y            0.01244   0.99981  -0.01488
           Z            0.00595   0.01481   0.99987
 This molecule is an asymmetric top.
 Rotational symmetry number  1.
 Warning -- assumption of classical behavior for rotation
           may cause significant error
 Rotational temperatures (Kelvin)      0.14161     0.06619     0.05306
 Rotational constants (GHZ):           2.95072     1.37923     1.10564
 Zero-point vibrational energy     413020.4 (Joules/Mol)
                                   98.71426 (Kcal/Mol)
 Warning -- explicit consideration of  12 degrees of freedom as
           vibrations may cause significant error
 Vibrational temperatures:     96.35   195.78   299.96   319.35   378.71
          (Kelvin)            420.40   482.60   519.87   619.93   652.28
                              768.70   882.03   931.62  1120.17  1155.01
                             1253.74  1263.65  1297.47  1366.33  1447.31
                             1505.02  1533.30  1554.36  1563.03  1608.71
                             1660.52  1674.19  1732.76  1782.29  1809.65
                             1865.40  1919.13  1992.98  2027.04  2041.89
                             2068.36  2130.72  2140.94  2156.12  2164.38
                             2726.47  4331.15  4359.61  4371.25  4387.20
                             4423.02  4445.77  4464.55  4474.35  4475.09
                             4489.22

 Zero-point correction=                           0.157311 (Hartree/Particle)
 Thermal correction to Energy=                    0.166046
 Thermal correction to Enthalpy=                  0.166991
 Thermal correction to Gibbs Free Energy=         0.124019
 Sum of electronic and zero-point Energies=           -423.015792
 Sum of electronic and thermal Energies=              -423.007057
 Sum of electronic and thermal Enthalpies=            -423.006113
 Sum of electronic and thermal Free Energies=         -423.049084

                     E (Thermal)             CV                S
                      KCal/Mol        Cal/Mol-Kelvin    Cal/Mol-Kelvin
 Total                  104.196             33.173             90.441
 Electronic               0.000              0.000              0.000
 Translational            0.889              2.981             40.409
 Rotational               0.889              2.981             28.659
 Vibrational            102.418             27.212             21.374
 Vibration     1          0.598              1.970              4.241
 Vibration     2          0.614              1.917              2.858
 Vibration     3          0.642              1.828              2.057
 Vibration     4          0.648              1.808              1.943
 Vibration     5          0.670              1.740              1.640
 Vibration     6          0.688              1.688              1.461
 Vibration     7          0.717              1.605              1.234
 Vibration     8          0.736              1.552              1.116
 Vibration     9          0.792              1.403              0.856
 Vibration    10          0.812              1.353              0.786
 Vibration    11          0.889              1.174              0.578
 Vibration    12          0.972              1.004              0.428

 Optimization completed.
    -- Stationary point found.
 Normal termination of Gaussian 09 at Tue Jan 28 03:32:54 2020.
