 Gaussian 09, Revision D.01,
 Gaussian 09:  ES64L-G09RevD.01 24-Apr-2013

 -----------------------------
 # b3lyp 6-31G(2df,p) opt Freq
 -----------------------------

 -----
 titel
 -----
 Symbolic Z-matrix:
 Charge =  0 Multiplicity = 1

 SCF Done:  E(RB3LYP) =  -423.159743128     A.U. after   13 cycles
 Optimization completed.
    -- Stationary point found.
 Normal termination of Gaussian 09 at Mon Jan 27 12:03:43 2020.

 ----------------------------------------------------------------------
 #N Geom=AllCheck Guess=TCheck SCRF=Check GenChk RB3LYP/6-31G(2df,p) Fr
 eq
 ----------------------------------------------------------------------

 Structure from the checkpoint file:  "/scratch/puck/g09_77a97244-e9f6-48ad-899d-5fcddec326ec/Gau-18012.chk"
 -----
 titel
 -----
 Charge =  0 Multiplicity = 1

                         Standard orientation:
 ---------------------------------------------------------------------
 Center     Atomic      Atomic             Coordinates (Angstroms)
 Number     Number       Type             X           Y           Z
 ---------------------------------------------------------------------
      1          6           0        1.961610   -0.174530    0.954362
      2          8           0        2.406653    0.003478   -0.395819
      3          6           0        0.997829    0.052012   -0.129192
      4          6           0        0.216244   -1.146322   -0.632906
      5          8           0       -0.828465   -1.480003    0.259848
      6          6           0       -2.042675   -0.792406    0.060801
      7          6           0       -2.041626    0.708613    0.212462
      8          6           0       -1.062665    1.600700    0.060241
      9          6           0        0.380866    1.418956   -0.334330
     10          1           0        2.090972   -1.175762    1.362543
     11          1           0        2.204628    0.639467    1.635680
     12          1           0       -0.174186   -0.964918   -1.647140
     13          1           0        0.890076   -2.007146   -0.678031
     14          1           0       -2.457510   -1.038970   -0.935607
     15          1           0       -2.734784   -1.219415    0.795243
     16          1           0       -3.032837    1.099820    0.439551
     17          1           0       -1.339397    2.645979    0.185717
     18          1           0        0.473328    1.669312   -1.403753
     19          1           0        0.996700    2.161697    0.184929
 ---------------------------------------------------------------------

 SCF Done:  E(RB3LYP) =  -423.159743128     A.U. after    1 cycles

 The electronic state is 1-A.
 Alpha  occ. eigenvalues --  -19.14865 -19.14389 -10.23979 -10.23638 -10.23104
 Alpha  occ. eigenvalues --  -10.22995 -10.19460 -10.19062 -10.18632  -1.06966
 Alpha  occ. eigenvalues --   -1.03673  -0.80448  -0.77059  -0.69429  -0.67162
 Alpha  occ. eigenvalues --   -0.65688  -0.56816  -0.53999  -0.50904  -0.49519
 Alpha  occ. eigenvalues --   -0.47939  -0.45222  -0.44489  -0.43256  -0.41240
 Alpha  occ. eigenvalues --   -0.40319  -0.37560  -0.36890  -0.34305  -0.32147
 Alpha  occ. eigenvalues --   -0.29813  -0.27617  -0.25190  -0.24901
 Alpha virt. eigenvalues --    0.01670   0.07127   0.09962   0.11265   0.11683
 Alpha virt. eigenvalues --    0.12657   0.13547   0.14751   0.15606   0.16138
 Alpha virt. eigenvalues --    0.17352   0.18588   0.19183   0.21511   0.21940

 Mulliken charges:
               1
     1  C   -0.216821
     2  O   -0.285208
     3  C    0.417508
     4  C   -0.169637
     5  O   -0.234749
     6  C   -0.127454
     7  C   -0.064483
     8  C   -0.059183
     9  C   -0.337895
    10  H    0.118756
    11  H    0.112139
    12  H    0.090987
    13  H    0.116115
    14  H    0.100748
    15  H    0.117801
    16  H    0.090240
    17  H    0.092868
    18  H    0.124802
    19  H    0.113465
 Sum of Mulliken charges =   0.00000

 Dipole moment (field-independent basis, Debye):
    X=             -1.5091    Y=              0.8215    Z=              0.2001  Tot=              1.7299
 Quadrupole moment (field-independent basis, Debye-Ang):
   XX=            -54.7462   YY=            -52.4208   ZZ=            -52.6386
   XY=             -0.6878   XZ=              3.2560   YZ=              1.0870

  Exact polarizability:  90.814   3.716  78.020   1.448  -0.033  62.047
 Approx polarizability: 126.668  11.693 112.640  -2.091  -3.259  98.586

                      1                      2                      3
                      A                      A                      A
 Frequencies --     70.1360                91.8213               257.5793
 Red. masses --      2.1910                 3.3611                 4.3795
 Frc consts  --      0.0064                 0.0167                 0.1712
 IR Inten    --      0.2905                 1.5063                 8.4705

                      4                      5                      6
                      A                      A                      A
 Frequencies --    306.3755               314.4963               369.2042
 Red. masses --      3.8984                 3.6211                 2.6449
 Frc consts  --      0.2156                 0.2110                 0.2124
 IR Inten    --      4.2283                 2.1745                 1.9214

                      7                      8                      9
                      A                      A                      A
 Frequencies --    401.3066               411.0482               463.0337
 Red. masses --      2.8809                 2.1235                 2.7854
 Frc consts  --      0.2734                 0.2114                 0.3519
 IR Inten    --      2.0190                 0.1384                 1.0078

                     10                     11                     12
                      A                      A                      A
 Frequencies --    553.9066               661.7294               744.2897
 Red. masses --      5.2175                 1.2997                 3.3392
 Frc consts  --      0.9432                 0.3353                 1.0899
 IR Inten    --      6.5504                11.1930                22.7427

                     13                     14                     15
                      A                      A                      A
 Frequencies --    811.0540               841.8438               879.4463
 Red. masses --      4.1350                 3.1098                 5.6616
 Frc consts  --      1.6026                 1.2985                 2.5799
 IR Inten    --     16.9201                 7.3483                15.8720

                     16                     17                     18
                      A                      A                      A
 Frequencies --    920.7406               933.5725               949.2796
 Red. masses --      1.6728                 2.2304                 2.1750
 Frc consts  --      0.8355                 1.1453                 1.1548
 IR Inten    --      5.1678                 3.7611                20.4391

                     19                     20                     21
                      A                      A                      A
 Frequencies --    980.4688              1007.5524              1031.1839
 Red. masses --      2.3944                 1.3274                 1.8621
 Frc consts  --      1.3561                 0.7939                 1.1666
 IR Inten    --      7.6709                 2.5854                 7.5509

                     22                     23                     24
                      A                      A                      A
 Frequencies --   1038.7535              1068.3457              1129.4151
 Red. masses --      2.4765                 2.1619                 1.2838
 Frc consts  --      1.5744                 1.4538                 0.9648
 IR Inten    --     17.7987                 2.6516                 2.8721

                     25                     26                     27
                      A                      A                      A
 Frequencies --   1155.0934              1172.4070              1204.8409
 Red. masses --      1.6648                 2.4003                 1.3130
 Frc consts  --      1.3087                 1.9439                 1.1230
 IR Inten    --     36.9139                81.6778                 2.4265

                     28                     29                     30
                      A                      A                      A
 Frequencies --   1245.1315              1272.0891              1307.0691
 Red. masses --      1.2446                 1.2377                 1.6701
 Frc consts  --      1.1368                 1.1801                 1.6811
 IR Inten    --      3.5193                13.5812                16.0908

                     31                     32                     33
                      A                      A                      A
 Frequencies --   1323.5122              1360.5950              1390.0579
 Red. masses --      1.2665                 1.8208                 1.3511
 Frc consts  --      1.3071                 1.9859                 1.5382
 IR Inten    --      6.0366                 5.6433                14.5877

                     34                     35                     36
                      A                      A                      A
 Frequencies --   1413.4119              1426.1642              1436.4977
 Red. masses --      1.3347                 1.5641                 1.6757
 Frc consts  --      1.5710                 1.8744                 2.0374
 IR Inten    --     10.0447                 8.4673                 2.6976

                     37                     38                     39
                      A                      A                      A
 Frequencies --   1471.9931              1478.6602              1498.3659
 Red. masses --      1.1436                 1.0951                 1.1201
 Frc consts  --      1.4599                 1.4107                 1.4816
 IR Inten    --      3.9063                 4.4864                 3.7230

                     40                     41                     42
                      A                      A                      A
 Frequencies --   1532.8506              1739.2687              2922.0968
 Red. masses --      1.3713                 7.0893                 1.0725
 Frc consts  --      1.8984                12.6353                 5.3955
 IR Inten    --      4.5636                 2.5365                57.6413

                     43                     44                     45
                      A                      A                      A
 Frequencies --   2980.2898              2985.5535              3058.1165
 Red. masses --      1.0686                 1.0705                 1.0880
 Frc consts  --      5.5924                 5.6220                 5.9949
 IR Inten    --     25.0764                40.7573                22.9643

                     46                     47                     48
                      A                      A                      A
 Frequencies --   3058.8922              3083.9096              3085.2310
 Red. masses --      1.0868                 1.0727                 1.0724
 Frc consts  --      5.9916                 6.0107                 6.0144
 IR Inten    --     21.2207                13.2246                35.7048

                     49                     50                     51
                      A                      A                      A
 Frequencies --   3123.6815              3148.5465              3171.5101
 Red. masses --      1.0830                 1.0931                 1.1196
 Frc consts  --      6.2259                 6.3843                 6.6352
 IR Inten    --      7.5452                33.2375                19.9218

 - Thermochemistry -
 -------------------
 Temperature   298.150 Kelvin.  Pressure   1.00000 Atm.
 Atom     1 has atomic number  6 and mass  12.00000

 Molecular mass:   126.06808 amu.
 Principal axes and moments of inertia in atomic units:
                           1         2         3
     Eigenvalues --   634.905821238.047441637.62849
           X            0.99988  -0.00472   0.01480
           Y            0.00454   0.99991   0.01254
           Z           -0.01485  -0.01247   0.99981
 This molecule is an asymmetric top.
 Rotational symmetry number  1.
 Warning -- assumption of classical behavior for rotation
           may cause significant error
 Rotational temperatures (Kelvin)      0.13642     0.06996     0.05289
 Rotational constants (GHZ):           2.84253     1.45773     1.10205
 Zero-point vibrational energy     420382.2 (Joules/Mol)
                                  100.47376 (Kcal/Mol)
 Warning -- explicit consideration of  10 degrees of freedom as
           vibrations may cause significant error
 Vibrational temperatures:    100.91   132.11   370.60   440.81   452.49
          (Kelvin)            531.20   577.39   591.41   666.20   796.95
                              952.08  1070.87  1166.92  1211.22  1265.33
                             1324.74  1343.20  1365.80  1410.67  1449.64
                             1483.64  1494.53  1537.11  1624.97  1661.92
                             1686.83  1733.50  1791.46  1830.25  1880.58
                             1904.24  1957.59  1999.98  2033.58  2051.93
                             2066.80  2117.87  2127.46  2155.81  2205.43
                             2502.42  4204.24  4287.97  4295.54  4399.94
                             4401.06  4437.05  4438.95  4494.28  4530.05
                             4563.09

 Zero-point correction=                           0.160115 (Hartree/Particle)
 Thermal correction to Energy=                    0.168089
 Thermal correction to Enthalpy=                  0.169033
 Thermal correction to Gibbs Free Energy=         0.127289
 Sum of electronic and zero-point Energies=           -422.999628
 Sum of electronic and thermal Energies=              -422.991654
 Sum of electronic and thermal Enthalpies=            -422.990710
 Sum of electronic and thermal Free Energies=         -423.032454

                     E (Thermal)             CV                S
                      KCal/Mol        Cal/Mol-Kelvin    Cal/Mol-Kelvin
 Total                  105.478             30.772             87.858
 Electronic               0.000              0.000              0.000
 Translational            0.889              2.981             40.409
 Rotational               0.889              2.981             28.645
 Vibrational            103.700             24.810             18.805
 Vibration     1          0.598              1.968              4.150
 Vibration     2          0.602              1.955              3.621
 Vibration     3          0.667              1.750              1.678
 Vibration     4          0.697              1.662              1.382
 Vibration     5          0.702              1.646              1.339
 Vibration     6          0.742              1.536              1.083
 Vibration     7          0.767              1.467              0.958
 Vibration     8          0.775              1.446              0.923
 Vibration     9          0.821              1.332              0.757
 Vibration    10          0.909              1.131              0.536

 Optimization completed.
    -- Stationary point found.
 Normal termination of Gaussian 09 at Mon Jan 27 12:53:35 2020.
