 Gaussian 09, Revision D.01,
 Gaussian 09:  ES64L-G09RevD.01 24-Apr-2013

 -----------------------------
 # b3lyp 6-31G(2df,p) opt Freq
 -----------------------------

 -----
 titel
 -----
 Symbolic Z-matrix:
 Charge =  0 Multiplicity = 1

 SCF Done:  E(RB3LYP) =  -423.154687943     A.U. after   14 cycles
 Optimization completed.
    -- Stationary point found.
 Normal termination of Gaussian 09 at Tue Jan 28 14:11:53 2020.

 ----------------------------------------------------------------------
 #N Geom=AllCheck Guess=TCheck SCRF=Check GenChk RB3LYP/6-31G(2df,p) Fr
 eq
 ----------------------------------------------------------------------

 Structure from the checkpoint file:  "/scratch/puck/g09_b811e31a-ae64-4821-833a-b11de7242238/Gau-111612.chk"
 -----
 titel
 -----
 Charge =  0 Multiplicity = 1

                         Standard orientation:
 ---------------------------------------------------------------------
 Center     Atomic      Atomic             Coordinates (Angstroms)
 Number     Number       Type             X           Y           Z
 ---------------------------------------------------------------------
      1          6           0        2.405155   -1.385402   -0.470385
      2          6           0        2.059854   -0.007952    0.104421
      3          6           0        0.728366    0.016270    0.827964
      4          6           0       -0.171182    1.189887    0.891956
      5          8           0       -0.139331    1.986367   -0.281051
      6          6           0       -0.642065    0.880798   -1.087642
      7          6           0       -0.622447   -0.068279    0.103386
      8          6           0       -1.668147   -1.036257    0.430329
      9          8           0       -2.587924   -1.319209   -0.303530
     10          1           0        2.450983   -2.145622    0.317005
     11          1           0        1.654413   -1.709524   -1.198552
     12          1           0        3.376470   -1.368303   -0.973450
     13          1           0        2.836490    0.304888    0.813438
     14          1           0        2.053342    0.747651   -0.686734
     15          1           0        0.697424   -0.569025    1.747857
     16          1           0       -0.578992    1.632663    1.794554
     17          1           0       -1.657307    1.088559   -1.435411
     18          1           0        0.010567    0.655359   -1.936878
     19          1           0       -1.562561   -1.508310    1.434658
 ---------------------------------------------------------------------

 SCF Done:  E(RB3LYP) =  -423.154687943     A.U. after    1 cycles

 The electronic state is 1-A.
 Alpha  occ. eigenvalues --  -19.15659 -19.13298 -10.27109 -10.26454 -10.24588
 Alpha  occ. eigenvalues --  -10.21721 -10.21467 -10.19564 -10.18371  -1.07069
 Alpha  occ. eigenvalues --   -1.03959  -0.86287  -0.77201  -0.72309  -0.66259
 Alpha  occ. eigenvalues --   -0.63583  -0.58145  -0.56053  -0.51670  -0.48877
 Alpha  occ. eigenvalues --   -0.47546  -0.44613  -0.43755  -0.42696  -0.40814
 Alpha  occ. eigenvalues --   -0.39974  -0.38937  -0.36634  -0.35830  -0.34897
 Alpha  occ. eigenvalues --   -0.33724  -0.28017  -0.26046  -0.24680
 Alpha virt. eigenvalues --   -0.02567   0.06430   0.08108   0.09603   0.11036
 Alpha virt. eigenvalues --    0.12834   0.13455   0.14286   0.15874   0.16086
 Alpha virt. eigenvalues --    0.16834   0.17560   0.18372   0.20245   0.20480

 Mulliken charges:
               1
     1  C   -0.377110
     2  C   -0.218710
     3  C   -0.097501
     4  C    0.037046
     5  O   -0.274837
     6  C   -0.153069
     7  C    0.175954
     8  C    0.053025
     9  O   -0.274097
    10  H    0.116607
    11  H    0.124358
    12  H    0.119256
    13  H    0.106702
    14  H    0.122591
    15  H    0.099971
    16  H    0.120038
    17  H    0.137319
    18  H    0.116209
    19  H    0.066248
 Sum of Mulliken charges =   0.00000

 Dipole moment (field-independent basis, Debye):
    X=              2.3634    Y=             -0.0208    Z=              1.4839  Tot=              2.7907
 Quadrupole moment (field-independent basis, Debye-Ang):
   XX=            -59.5798   YY=            -58.9484   ZZ=            -49.1267
   XY=             -5.1087   XZ=             -2.1197   YZ=             -0.6136

  Exact polarizability:  86.972   4.128  73.293   4.132  -0.779  72.509
 Approx polarizability: 123.024  14.159 113.985  14.644   2.696 113.021

                      1                      2                      3
                      A                      A                      A
 Frequencies --     73.1633                86.9947               171.9983
 Red. masses --      3.1070                 3.4571                 3.6560
 Frc consts  --      0.0098                 0.0154                 0.0637
 IR Inten    --      2.2652                 0.7228                 5.3716

                      4                      5                      6
                      A                      A                      A
 Frequencies --    184.3945               222.0385               253.7641
 Red. masses --      2.1577                 1.8057                 2.1599
 Frc consts  --      0.0432                 0.0525                 0.0819
 IR Inten    --      5.6836                 5.0144                 1.8670

                      7                      8                      9
                      A                      A                      A
 Frequencies --    279.3997               347.4059               431.8978
 Red. masses --      2.1448                 2.5195                 3.7428
 Frc consts  --      0.0987                 0.1792                 0.4113
 IR Inten    --      0.2630                 2.9249                 3.2964

                     10                     11                     12
                      A                      A                      A
 Frequencies --    528.8635               582.4184               707.3956
 Red. masses --      2.7080                 4.0041                 3.2244
 Frc consts  --      0.4463                 0.8002                 0.9507
 IR Inten    --      4.8821                14.9524                12.2436

                     13                     14                     15
                      A                      A                      A
 Frequencies --    733.8191               796.2771               816.0330
 Red. masses --      3.2358                 3.0929                 1.4447
 Frc consts  --      1.0266                 1.1554                 0.5668
 IR Inten    --     33.0738                23.0963                 2.7233

                     16                     17                     18
                      A                      A                      A
 Frequencies --    887.3695               939.2981               955.1757
 Red. masses --      2.2544                 1.6863                 2.9244
 Frc consts  --      1.0459                 0.8766                 1.5720
 IR Inten    --      4.0750                27.9259                 5.2555

                     19                     20                     21
                      A                      A                      A
 Frequencies --    975.9438              1005.5869              1033.6135
 Red. masses --      1.9880                 1.7829                 2.7625
 Frc consts  --      1.1156                 1.0622                 1.7389
 IR Inten    --     39.2578                 5.1160                17.8101

                     22                     23                     24
                      A                      A                      A
 Frequencies --   1050.5868              1086.4510              1103.3694
 Red. masses --      1.7096                 2.1578                 1.8155
 Frc consts  --      1.1118                 1.5006                 1.3022
 IR Inten    --      1.9246                13.3661                22.1340

                     25                     26                     27
                      A                      A                      A
 Frequencies --   1119.7893              1124.8732              1153.3411
 Red. masses --      1.9336                 2.3843                 1.1718
 Frc consts  --      1.4286                 1.7776                 0.9184
 IR Inten    --     12.5316                20.6168                 0.6800

                     28                     29                     30
                      A                      A                      A
 Frequencies --   1229.2014              1268.3764              1286.9471
 Red. masses --      1.5716                 1.4053                 1.2995
 Frc consts  --      1.3991                 1.3320                 1.2681
 IR Inten    --      2.1410                18.0976                 2.9825

                     31                     32                     33
                      A                      A                      A
 Frequencies --   1330.8414              1346.5110              1369.3485
 Red. masses --      1.5643                 2.3067                 1.5857
 Frc consts  --      1.6323                 2.4641                 1.7518
 IR Inten    --     23.0655                 7.1935                17.2429

                     34                     35                     36
                      A                      A                      A
 Frequencies --   1413.0386              1426.0617              1467.1202
 Red. masses --      1.2435                 1.2380                 2.6811
 Frc consts  --      1.4629                 1.4834                 3.4001
 IR Inten    --      3.0360                 1.0807                24.9553

                     37                     38                     39
                      A                      A                      A
 Frequencies --   1489.0774              1499.7936              1508.0970
 Red. masses --      1.0604                 1.0399                 1.0870
 Frc consts  --      1.3853                 1.3782                 1.4566
 IR Inten    --      0.6630                 5.2082                 5.2768

                     40                     41                     42
                      A                      A                      A
 Frequencies --   1518.7411              1792.4860              2861.3226
 Red. masses --      1.0995                10.2825                 1.0816
 Frc consts  --      1.4942                19.4653                 5.2175
 IR Inten    --      2.6418               263.2203               105.4708

                     43                     44                     45
                      A                      A                      A
 Frequencies --   3033.4120              3035.2197              3050.1854
 Red. masses --      1.0542                 1.0478                 1.0567
 Frc consts  --      5.7153                 5.6875                 5.7925
 IR Inten    --     15.7754                30.5075                36.7474

                     46                     47                     48
                      A                      A                      A
 Frequencies --   3079.1971              3103.4145              3109.0415
 Red. masses --      1.0937                 1.0991                 1.1085
 Frc consts  --      6.1097                 6.2367                 6.3129
 IR Inten    --      0.3955                20.2650                27.7186

                     49                     50                     51
                      A                      A                      A
 Frequencies --   3109.9146              3114.4943              3174.2021
 Red. masses --      1.1017                 1.0889                 1.0933
 Frc consts  --      6.2780                 6.2233                 6.4901
 IR Inten    --     21.7268                26.5909                17.1995

 - Thermochemistry -
 -------------------
 Temperature   298.150 Kelvin.  Pressure   1.00000 Atm.
 Atom     1 has atomic number  6 and mass  12.00000

 Molecular mass:   126.06808 amu.
 Principal axes and moments of inertia in atomic units:
                           1         2         3
     Eigenvalues --   810.868741336.013331734.77362
           X            0.99700  -0.07644  -0.01253
           Y            0.07639   0.99707  -0.00425
           Z            0.01282   0.00328   0.99991
 This molecule is an asymmetric top.
 Rotational symmetry number  1.
 Warning -- assumption of classical behavior for rotation
           may cause significant error
 Rotational temperatures (Kelvin)      0.10682     0.06483     0.04993
 Rotational constants (GHZ):           2.22569     1.35084     1.04033
 Zero-point vibrational energy     414310.5 (Joules/Mol)
                                   99.02259 (Kcal/Mol)
 Warning -- explicit consideration of  11 degrees of freedom as
           vibrations may cause significant error
 Vibrational temperatures:    105.27   125.17   247.47   265.30   319.46
          (Kelvin)            365.11   401.99   499.84   621.40   760.92
                              837.97  1017.78  1055.80  1145.66  1174.09
                             1276.73  1351.44  1374.28  1404.16  1446.81
                             1487.14  1511.56  1563.16  1587.50  1611.13
                             1618.44  1659.40  1768.54  1824.91  1851.63
                             1914.78  1937.33  1970.18  2033.04  2051.78
                             2110.86  2142.45  2157.87  2169.81  2185.13
                             2578.98  4116.80  4364.40  4367.00  4388.53
                             4430.27  4465.12  4473.21  4474.47  4481.06
                             4566.96

 Zero-point correction=                           0.157803 (Hartree/Particle)
 Thermal correction to Energy=                    0.166719
 Thermal correction to Enthalpy=                  0.167663
 Thermal correction to Gibbs Free Energy=         0.123734
 Sum of electronic and zero-point Energies=           -422.996885
 Sum of electronic and thermal Energies=              -422.987969
 Sum of electronic and thermal Enthalpies=            -422.987025
 Sum of electronic and thermal Free Energies=         -423.030954

                     E (Thermal)             CV                S
                      KCal/Mol        Cal/Mol-Kelvin    Cal/Mol-Kelvin
 Total                  104.618             32.655             92.457
 Electronic               0.000              0.000              0.000
 Translational            0.889              2.981             40.409
 Rotational               0.889              2.981             29.020
 Vibrational            102.840             26.693             23.028
 Vibration     1          0.599              1.967              4.066
 Vibration     2          0.601              1.958              3.727
 Vibration     3          0.626              1.877              2.414
 Vibration     4          0.631              1.861              2.283
 Vibration     5          0.648              1.808              1.942
 Vibration     6          0.665              1.756              1.704
 Vibration     7          0.680              1.712              1.537
 Vibration     8          0.725              1.581              1.178
 Vibration     9          0.793              1.401              0.852
 Vibration    10          0.884              1.186              0.590
 Vibration    11          0.939              1.069              0.481

 Optimization completed.
    -- Stationary point found.
 Normal termination of Gaussian 09 at Tue Jan 28 14:52:40 2020.
