 Gaussian 09, Revision D.01,
 Gaussian 09:  ES64L-G09RevD.01 24-Apr-2013

 -----------------------------
 # b3lyp 6-31G(2df,p) opt Freq
 -----------------------------

 -----
 titel
 -----
 Symbolic Z-matrix:
 Charge =  0 Multiplicity = 1

 SCF Done:  E(RB3LYP) =  -423.126744752     A.U. after   14 cycles
 Optimization completed.
    -- Stationary point found.
 Normal termination of Gaussian 09 at Mon Jan 27 12:11:10 2020.

 ----------------------------------------------------------------------
 #N Geom=AllCheck Guess=TCheck SCRF=Check GenChk RB3LYP/6-31G(2df,p) Fr
 eq
 ----------------------------------------------------------------------

 Structure from the checkpoint file:  "/scratch/puck/g09_92a80a71-6047-4998-94ca-18ccf18aa1a6/Gau-52119.chk"
 -----
 titel
 -----
 Charge =  0 Multiplicity = 1

                         Standard orientation:
 ---------------------------------------------------------------------
 Center     Atomic      Atomic             Coordinates (Angstroms)
 Number     Number       Type             X           Y           Z
 ---------------------------------------------------------------------
      1          6           0       -2.450958   -0.242283   -0.449831
      2          8           0       -2.102929    0.323878    0.815119
      3          6           0       -1.264781   -0.704834    0.284814
      4          6           0        0.113852   -0.285859   -0.114954
      5          6           0        1.155320   -1.345551   -0.550205
      6          6           0        2.232443   -0.626802    0.322817
      7          6           0        1.166511    0.385754    0.827452
      8          6           0        0.971138    1.611978   -0.071006
      9          8           0        0.122933    0.869903   -0.983091
     10          1           0       -3.349538   -0.857591   -0.456757
     11          1           0       -2.308863    0.417458   -1.301486
     12          1           0       -1.320709   -1.652119    0.823800
     13          1           0        0.922033   -2.356465   -0.202745
     14          1           0        1.329022   -1.371101   -1.627744
     15          1           0        2.647078   -1.257219    1.112064
     16          1           0        3.063805   -0.177876   -0.227236
     17          1           0        1.035400    0.507316    1.901438
     18          1           0        0.416428    2.433576    0.397234
     19          1           0        1.864160    2.009354   -0.569314
 ---------------------------------------------------------------------

 SCF Done:  E(RB3LYP) =  -423.126744752     A.U. after    1 cycles

 The electronic state is 1-A.
 Alpha  occ. eigenvalues --  -19.14746 -19.13339 -10.23841 -10.23490 -10.22902
 Alpha  occ. eigenvalues --  -10.22839 -10.19089 -10.18874 -10.18508  -1.07001
 Alpha  occ. eigenvalues --   -1.03701  -0.82550  -0.73038  -0.68672  -0.65388
 Alpha  occ. eigenvalues --   -0.62322  -0.60449  -0.52765  -0.51151  -0.49341
 Alpha  occ. eigenvalues --   -0.46961  -0.46500  -0.43838  -0.41690  -0.39742
 Alpha  occ. eigenvalues --   -0.38943  -0.36857  -0.34489  -0.33488  -0.32102
 Alpha  occ. eigenvalues --   -0.30446  -0.27475  -0.26613  -0.24397
 Alpha virt. eigenvalues --    0.06148   0.08809   0.09619   0.11097   0.11600
 Alpha virt. eigenvalues --    0.13160   0.13582   0.14291   0.15020   0.16521
 Alpha virt. eigenvalues --    0.17167   0.18937   0.19418   0.20367   0.21504

 Mulliken charges:
               1
     1  C   -0.173882
     2  O   -0.238848
     3  C   -0.032194
     4  C    0.455028
     5  C   -0.287109
     6  C   -0.227558
     7  C   -0.132061
     8  C   -0.084312
     9  O   -0.330094
    10  H    0.110919
    11  H    0.133561
    12  H    0.088542
    13  H    0.101095
    14  H    0.113024
    15  H    0.105962
    16  H    0.104405
    17  H    0.084435
    18  H    0.111924
    19  H    0.097162
 Sum of Mulliken charges =   0.00000

 Dipole moment (field-independent basis, Debye):
    X=              1.2599    Y=             -1.3669    Z=              0.1696  Tot=              1.8667
 Quadrupole moment (field-independent basis, Debye-Ang):
   XX=            -51.8593   YY=            -50.9615   ZZ=            -54.8481
   XY=              3.1354   XZ=              3.3052   YZ=             -0.0584

  Exact polarizability:  86.466   0.855  74.586   3.578  -0.652  63.958
 Approx polarizability: 111.795  -0.605 107.984   4.795  -0.164 101.746

                      1                      2                      3
                      A                      A                      A
 Frequencies --     84.8337                94.8401               170.9681
 Red. masses --      3.2912                 2.5840                 2.9777
 Frc consts  --      0.0140                 0.0137                 0.0513
 IR Inten    --      2.0092                 1.8305                 4.7749

                      4                      5                      6
                      A                      A                      A
 Frequencies --    235.0416               332.2210               342.1154
 Red. masses --      3.6532                 2.3351                 3.5260
 Frc consts  --      0.1189                 0.1518                 0.2432
 IR Inten    --      2.3908                 0.2962                 0.4961

                      7                      8                      9
                      A                      A                      A
 Frequencies --    414.7704               483.7841               650.4981
 Red. masses --      2.9664                 3.7430                 3.1124
 Frc consts  --      0.3007                 0.5162                 0.7760
 IR Inten    --      0.9240                11.6920                 3.0837

                     10                     11                     12
                      A                      A                      A
 Frequencies --    685.1604               741.4788               817.3645
 Red. masses --      3.1244                 1.2604                 2.3096
 Frc consts  --      0.8642                 0.4083                 0.9091
 IR Inten    --      7.9491                 0.1769                 1.5014

                     13                     14                     15
                      A                      A                      A
 Frequencies --    855.6904               871.8934               901.4070
 Red. masses --      3.4097                 2.8212                 3.1644
 Frc consts  --      1.4710                 1.2636                 1.5149
 IR Inten    --      8.3213                11.0595                36.7641

                     16                     17                     18
                      A                      A                      A
 Frequencies --    919.1214               943.0308               967.1104
 Red. masses --      2.4703                 2.5506                 1.9351
 Frc consts  --      1.2295                 1.3364                 1.0663
 IR Inten    --     12.3123                11.8915                 3.6293

                     19                     20                     21
                      A                      A                      A
 Frequencies --   1003.8945              1020.3070              1033.2852
 Red. masses --      7.1871                 1.5025                 1.8201
 Frc consts  --      4.2676                 0.9216                 1.1450
 IR Inten    --     70.2382                 7.7403                 1.7055

                     22                     23                     24
                      A                      A                      A
 Frequencies --   1075.3683              1096.1459              1122.3679
 Red. masses --      1.5196                 2.5033                 2.2260
 Frc consts  --      1.0354                 1.7721                 1.6521
 IR Inten    --      2.4128                21.2588                 1.6127

                     25                     26                     27
                      A                      A                      A
 Frequencies --   1132.1985              1152.1683              1163.8325
 Red. masses --      1.6888                 1.4827                 1.4102
 Frc consts  --      1.2755                 1.1597                 1.1254
 IR Inten    --      4.3117                 2.9328                 1.8935

                     28                     29                     30
                      A                      A                      A
 Frequencies --   1168.9919              1187.7100              1224.6164
 Red. masses --      1.3167                 1.4015                 1.3651
 Frc consts  --      1.0602                 1.1648                 1.2062
 IR Inten    --      0.3615                 1.7606                 1.2480

                     31                     32                     33
                      A                      A                      A
 Frequencies --   1239.8240              1270.4792              1286.6110
 Red. masses --      1.5125                 1.6258                 1.7848
 Frc consts  --      1.3698                 1.5461                 1.7408
 IR Inten    --      2.7227                 2.3214                10.1077

                     34                     35                     36
                      A                      A                      A
 Frequencies --   1298.2626              1321.5929              1352.4288
 Red. masses --      1.5316                 1.7066                 1.4581
 Frc consts  --      1.5210                 1.7563                 1.5713
 IR Inten    --     10.7734                 4.1966                 0.8619

                     37                     38                     39
                      A                      A                      A
 Frequencies --   1435.5684              1461.8278              1486.3032
 Red. masses --      1.9614                 1.0925                 1.1110
 Frc consts  --      2.3815                 1.3755                 1.4460
 IR Inten    --      2.5599                 1.4080                 2.0184

                     40                     41                     42
                      A                      A                      A
 Frequencies --   1513.3506              1519.6060              3015.1658
 Red. masses --      1.3649                 1.1344                 1.0549
 Frc consts  --      1.8417                 1.5434                 5.6504
 IR Inten    --      0.9371                 1.1289                79.4574

                     43                     44                     45
                      A                      A                      A
 Frequencies --   3055.5546              3062.3098              3064.1683
 Red. masses --      1.0602                 1.0911                 1.0800
 Frc consts  --      5.8322                 6.0284                 5.9744
 IR Inten    --     27.8686                 3.8122                67.5967

                     46                     47                     48
                      A                      A                      A
 Frequencies --   3091.0054              3099.4835              3106.8573
 Red. masses --      1.0595                 1.0794                 1.1051
 Frc consts  --      5.9644                 6.1096                 6.2847
 IR Inten    --     25.9250                33.8452                 2.9835

                     49                     50                     51
                      A                      A                      A
 Frequencies --   3123.5027              3129.2989              3195.2947
 Red. masses --      1.0989                 1.0979                 1.1176
 Frc consts  --      6.3169                 6.3345                 6.7227
 IR Inten    --      7.6300                48.3328                13.0589

 - Thermochemistry -
 -------------------
 Temperature   298.150 Kelvin.  Pressure   1.00000 Atm.
 Atom     1 has atomic number  6 and mass  12.00000

 Molecular mass:   126.06808 amu.
 Principal axes and moments of inertia in atomic units:
                           1         2         3
     Eigenvalues --   561.863081291.446581471.46692
           X            0.99983   0.00665   0.01722
           Y           -0.00688   0.99989   0.01281
           Z           -0.01713  -0.01292   0.99977
 This molecule is an asymmetric top.
 Rotational symmetry number  1.
 Warning -- assumption of classical behavior for rotation
           may cause significant error
 Rotational temperatures (Kelvin)      0.15415     0.06707     0.05886
 Rotational constants (GHZ):           3.21207     1.39746     1.22649
 Zero-point vibrational energy     418816.9 (Joules/Mol)
                                  100.09963 (Kcal/Mol)
 Warning -- explicit consideration of   8 degrees of freedom as
           vibrations may cause significant error
 Vibrational temperatures:    122.06   136.45   245.98   338.17   477.99
          (Kelvin)            492.23   596.76   696.06   935.92   985.79
                             1066.82  1176.00  1231.15  1254.46  1296.92
                             1322.41  1356.81  1391.45  1444.38  1467.99
                             1486.67  1547.21  1577.11  1614.84  1628.98
                             1657.71  1674.49  1681.92  1708.85  1761.95
                             1783.83  1827.93  1851.14  1867.91  1901.48
                             1945.84  2065.46  2103.24  2138.46  2177.37
                             2186.37  4338.15  4396.26  4405.98  4408.65
                             4447.26  4459.46  4470.07  4494.02  4502.36
                             4597.31

 Zero-point correction=                           0.159519 (Hartree/Particle)
 Thermal correction to Energy=                    0.167385
 Thermal correction to Enthalpy=                  0.168329
 Thermal correction to Gibbs Free Energy=         0.126777
 Sum of electronic and zero-point Energies=           -422.967226
 Sum of electronic and thermal Energies=              -422.959359
 Sum of electronic and thermal Enthalpies=            -422.958415
 Sum of electronic and thermal Free Energies=         -422.999968

                     E (Thermal)             CV                S
                      KCal/Mol        Cal/Mol-Kelvin    Cal/Mol-Kelvin
 Total                  105.036             30.136             87.454
 Electronic               0.000              0.000              0.000
 Translational            0.889              2.981             40.409
 Rotational               0.889              2.981             28.459
 Vibrational            103.258             24.175             18.587
 Vibration     1          0.601              1.960              3.776
 Vibration     2          0.603              1.953              3.558
 Vibration     3          0.626              1.878              2.425
 Vibration     4          0.655              1.787              1.840
 Vibration     5          0.714              1.611              1.249
 Vibration     6          0.721              1.591              1.202
 Vibration     7          0.778              1.438              0.910
 Vibration     8          0.840              1.286              0.700

 Optimization completed.
    -- Stationary point found.
 Normal termination of Gaussian 09 at Mon Jan 27 12:57:48 2020.
