 Gaussian 09, Revision D.01,
 Gaussian 09:  ES64L-G09RevD.01 24-Apr-2013

 -----------------------------
 # b3lyp 6-31G(2df,p) opt Freq
 -----------------------------

 -----
 titel
 -----
 Symbolic Z-matrix:
 Charge =  0 Multiplicity = 1

 SCF Done:  E(RB3LYP) =  -423.182789068     A.U. after   13 cycles
 Optimization completed.
    -- Stationary point found.
 Normal termination of Gaussian 09 at Mon Jan 27 17:27:46 2020.

 ----------------------------------------------------------------------
 #N Geom=AllCheck Guess=TCheck SCRF=Check GenChk RB3LYP/6-31G(2df,p) Fr
 eq
 ----------------------------------------------------------------------

 Structure from the checkpoint file:  "/scratch/puck/g09_6e905c44-2dc1-45d6-a1ee-14c8ed4bbfc6/Gau-39358.chk"
 -----
 titel
 -----
 Charge =  0 Multiplicity = 1

                         Standard orientation:
 ---------------------------------------------------------------------
 Center     Atomic      Atomic             Coordinates (Angstroms)
 Number     Number       Type             X           Y           Z
 ---------------------------------------------------------------------
      1          8           0        1.601760    1.439614   -0.454639
      2          6           0        0.492596    0.779532    0.082017
      3          6           0        0.661844    0.027559    1.390598
      4          6           0        0.522427   -0.731802    0.094819
      5          8           0        1.733643   -1.311133   -0.341597
      6          6           0       -0.730411   -1.529974   -0.197157
      7          6           0       -1.987220   -0.706458   -0.089417
      8          6           0       -2.015341    0.626256   -0.095234
      9          6           0       -0.800880    1.507118   -0.209918
     10          1           0        2.292082    0.767660   -0.542344
     11          1           0        1.652800    0.044497    1.831398
     12          1           0       -0.162626   -0.006964    2.095197
     13          1           0        1.646226   -1.489646   -1.286015
     14          1           0       -0.658999   -1.940689   -1.218137
     15          1           0       -0.784082   -2.404882    0.465142
     16          1           0       -2.919599   -1.260838   -0.020957
     17          1           0       -2.973365    1.135946   -0.030260
     18          1           0       -0.733559    1.914371   -1.228643
     19          1           0       -0.900190    2.379307    0.450261
 ---------------------------------------------------------------------

 SCF Done:  E(RB3LYP) =  -423.182789068     A.U. after    1 cycles

 The electronic state is 1-A.
 Alpha  occ. eigenvalues --  -19.15785 -19.13190 -10.23744 -10.23243 -10.19400
 Alpha  occ. eigenvalues --  -10.18517 -10.18498 -10.18410 -10.17386  -1.04769
 Alpha  occ. eigenvalues --   -1.01222  -0.85425  -0.78496  -0.74496  -0.67069
 Alpha  occ. eigenvalues --   -0.59366  -0.58169  -0.54105  -0.51325  -0.49046
 Alpha  occ. eigenvalues --   -0.45922  -0.44762  -0.42977  -0.41172  -0.39640
 Alpha  occ. eigenvalues --   -0.39429  -0.37336  -0.36385  -0.35135  -0.33567
 Alpha  occ. eigenvalues --   -0.30763  -0.26555  -0.24770  -0.22421
 Alpha virt. eigenvalues --    0.02083   0.06344   0.09713   0.11979   0.12230
 Alpha virt. eigenvalues --    0.13029   0.14954   0.15200   0.16007   0.17472
 Alpha virt. eigenvalues --    0.18302   0.21107   0.21547   0.22839   0.23545

 Mulliken charges:
               1
     1  O   -0.490485
     2  C    0.381847
     3  C   -0.389161
     4  C    0.338083
     5  O   -0.482168
     6  C   -0.342475
     7  C   -0.061860
     8  C   -0.057418
     9  C   -0.319590
    10  H    0.279569
    11  H    0.117942
    12  H    0.116892
    13  H    0.283421
    14  H    0.099226
    15  H    0.114224
    16  H    0.088948
    17  H    0.089557
    18  H    0.120963
    19  H    0.112484
 Sum of Mulliken charges =   0.00000

 Dipole moment (field-independent basis, Debye):
    X=             -1.0280    Y=             -1.2721    Z=             -0.8554  Tot=              1.8457
 Quadrupole moment (field-independent basis, Debye-Ang):
   XX=            -52.3493   YY=            -55.0398   ZZ=            -51.0756
   XY=             -1.6132   XZ=             -1.9469   YZ=              2.8968

  Exact polarizability:  79.513  -0.642  85.282  -0.838   0.888  63.041
 Approx polarizability: 106.638  -1.473 135.326  -3.082   0.335  98.185

                      1                      2                      3
                      A                      A                      A
 Frequencies --    134.2180               184.1177               259.2815
 Red. masses --      2.2440                 3.6452                 2.2529
 Frc consts  --      0.0238                 0.0728                 0.0892
 IR Inten    --      0.5524                 1.1623                67.0089

                      4                      5                      6
                      A                      A                      A
 Frequencies --    275.7434               334.8195               370.8936
 Red. masses --      1.5379                 2.4591                 4.6035
 Frc consts  --      0.0689                 0.1624                 0.3731
 IR Inten    --     45.1944                 3.2163                 7.6169

                      7                      8                      9
                      A                      A                      A
 Frequencies --    402.5292               440.4944               458.2370
 Red. masses --      2.0774                 3.4888                 3.9448
 Frc consts  --      0.1983                 0.3988                 0.4880
 IR Inten    --      3.3257                 4.0981                 8.7479

                     10                     11                     12
                      A                      A                      A
 Frequencies --    507.3656               529.0937               545.5143
 Red. masses --      1.3098                 2.0914                 3.1818
 Frc consts  --      0.1987                 0.3449                 0.5579
 IR Inten    --     36.1462                13.9909                 0.6324

                     13                     14                     15
                      A                      A                      A
 Frequencies --    684.5056               689.2190               722.8619
 Red. masses --      1.3818                 2.8226                 4.2993
 Frc consts  --      0.3815                 0.7900                 1.3236
 IR Inten    --     33.5941                 5.0541                 4.3411

                     16                     17                     18
                      A                      A                      A
 Frequencies --    805.7927               889.6466               912.9648
 Red. masses --      2.5626                 2.0342                 2.9437
 Frc consts  --      0.9803                 0.9486                 1.4456
 IR Inten    --      2.0790                 9.5426                12.8153

                     19                     20                     21
                      A                      A                      A
 Frequencies --    930.7191               949.9335               985.0088
 Red. masses --      1.7106                 2.1029                 1.8454
 Frc consts  --      0.8730                 1.1180                 1.0549
 IR Inten    --      2.3854                23.1034                 5.5314

                     22                     23                     24
                      A                      A                      A
 Frequencies --    998.7521              1024.7112              1027.8195
 Red. masses --      1.2893                 2.1040                 1.9209
 Frc consts  --      0.7577                 1.3017                 1.1956
 IR Inten    --      3.2179                 3.7193                 7.5292

                     25                     26                     27
                      A                      A                      A
 Frequencies --   1047.2541              1137.8745              1171.1825
 Red. masses --      1.4027                 2.9471                 1.8686
 Frc consts  --      0.9064                 2.2482                 1.5101
 IR Inten    --      5.7235                44.3252                56.6613

                     28                     29                     30
                      A                      A                      A
 Frequencies --   1191.6808              1201.8070              1232.2425
 Red. masses --      1.1951                 1.2389                 1.3050
 Frc consts  --      0.9999                 1.0543                 1.1675
 IR Inten    --     17.0871                26.3728                33.9266

                     31                     32                     33
                      A                      A                      A
 Frequencies --   1253.2937              1291.8730              1365.5842
 Red. masses --      1.8883                 1.7835                 1.6909
 Frc consts  --      1.7475                 1.7538                 1.8578
 IR Inten    --     36.3912                50.3714                49.2128

                     34                     35                     36
                      A                      A                      A
 Frequencies --   1367.7857              1392.9364              1415.4386
 Red. masses --      1.6230                 2.0384                 1.4876
 Frc consts  --      1.7890                 2.3303                 1.7560
 IR Inten    --     17.9573                 2.9986                 2.1018

                     37                     38                     39
                      A                      A                      A
 Frequencies --   1432.8392              1470.6568              1479.8061
 Red. masses --      1.4182                 1.2599                 1.1049
 Frc consts  --      1.7154                 1.6055                 1.4256
 IR Inten    --     15.5904                 9.4926                 2.6698

                     40                     41                     42
                      A                      A                      A
 Frequencies --   1503.3098              1725.0990              2969.5818
 Red. masses --      1.7202                 6.5505                 1.0702
 Frc consts  --      2.2905                11.4856                 5.5606
 IR Inten    --     21.1085                 2.7352                44.2616

                     43                     44                     45
                      A                      A                      A
 Frequencies --   3008.8493              3023.1734              3033.9469
 Red. masses --      1.0593                 1.0885                 1.1003
 Frc consts  --      5.6503                 5.8613                 5.9674
 IR Inten    --     34.0061                29.5823                19.8925

                     46                     47                     48
                      A                      A                      A
 Frequencies --   3129.3819              3147.8745              3170.8153
 Red. masses --      1.0540                 1.0834                 1.0965
 Frc consts  --      6.0813                 6.3252                 6.4951
 IR Inten    --      4.9523                 5.7498                35.6068

                     49                     50                     51
                      A                      A                      A
 Frequencies --   3223.9798              3742.4533              3777.6097
 Red. masses --      1.1174                 1.0647                 1.0657
 Frc consts  --      6.8431                 8.7861                 8.9599
 IR Inten    --      3.8535                42.4619                11.6381

 - Thermochemistry -
 -------------------
 Temperature   298.150 Kelvin.  Pressure   1.00000 Atm.
 Atom     1 has atomic number  8 and mass  15.99491

 Molecular mass:   126.06808 amu.
 Principal axes and moments of inertia in atomic units:
                           1         2         3
     Eigenvalues --   743.258981015.489371451.97089
           X            0.99996  -0.00881   0.00191
           Y            0.00879   0.99989   0.01232
           Z           -0.00202  -0.01230   0.99992
 This molecule is an asymmetric top.
 Rotational symmetry number  1.
 Warning -- assumption of classical behavior for rotation
           may cause significant error
 Rotational temperatures (Kelvin)      0.11653     0.08529     0.05965
 Rotational constants (GHZ):           2.42815     1.77721     1.24296
 Zero-point vibrational energy     418528.9 (Joules/Mol)
                                  100.03081 (Kcal/Mol)
 Warning -- explicit consideration of  12 degrees of freedom as
           vibrations may cause significant error
 Vibrational temperatures:    193.11   264.90   373.05   396.73   481.73
          (Kelvin)            533.63   579.15   633.77   659.30   729.98
                              761.25   784.87   984.85   991.63  1040.04
                             1159.35  1280.00  1313.55  1339.10  1366.74
                             1417.21  1436.98  1474.33  1478.80  1506.76
                             1637.15  1685.07  1714.56  1729.13  1772.92
                             1803.21  1858.71  1964.77  1967.94  2004.12
                             2036.50  2061.53  2115.94  2129.11  2162.92
                             2482.03  4272.56  4329.06  4349.67  4365.17
                             4502.48  4529.08  4562.09  4638.58  5384.55
                             5435.13

 Zero-point correction=                           0.159409 (Hartree/Particle)
 Thermal correction to Energy=                    0.167552
 Thermal correction to Enthalpy=                  0.168496
 Thermal correction to Gibbs Free Energy=         0.127428
 Sum of electronic and zero-point Energies=           -423.023380
 Sum of electronic and thermal Energies=              -423.015237
 Sum of electronic and thermal Enthalpies=            -423.014293
 Sum of electronic and thermal Free Energies=         -423.055361

                     E (Thermal)             CV                S
                      KCal/Mol        Cal/Mol-Kelvin    Cal/Mol-Kelvin
 Total                  105.140             33.141             86.434
 Electronic               0.000              0.000              0.000
 Translational            0.889              2.981             40.409
 Rotational               0.889              2.981             28.485
 Vibrational            103.363             27.179             17.541
 Vibration     1          0.613              1.919              2.885
 Vibration     2          0.631              1.861              2.286
 Vibration     3          0.668              1.747              1.667
 Vibration     4          0.677              1.718              1.560
 Vibration     5          0.716              1.606              1.237
 Vibration     6          0.743              1.532              1.076
 Vibration     7          0.768              1.465              0.953
 Vibration     8          0.800              1.382              0.825
 Vibration     9          0.816              1.343              0.771
 Vibration    10          0.863              1.234              0.640
 Vibration    11          0.884              1.186              0.589
 Vibration    12          0.901              1.150              0.554

 Optimization completed.
    -- Stationary point found.
 Normal termination of Gaussian 09 at Mon Jan 27 18:33:20 2020.
