 Gaussian 09, Revision D.01,
 Gaussian 09:  ES64L-G09RevD.01 24-Apr-2013

 -----------------------------
 # b3lyp 6-31G(2df,p) opt Freq
 -----------------------------

 -----
 titel
 -----
 Symbolic Z-matrix:
 Charge =  0 Multiplicity = 1

 SCF Done:  E(RB3LYP) =  -423.153195507     A.U. after   14 cycles
 Optimization completed.
    -- Stationary point found.
 Normal termination of Gaussian 09 at Mon Jan 27 16:43:15 2020.

 ----------------------------------------------------------------------
 #N Geom=AllCheck Guess=TCheck SCRF=Check GenChk RB3LYP/6-31G(2df,p) Fr
 eq
 ----------------------------------------------------------------------

 Structure from the checkpoint file:  "/scratch/puck/g09_0c962924-fe9f-40b4-86ec-e90c7435c1b1/Gau-37730.chk"
 -----
 titel
 -----
 Charge =  0 Multiplicity = 1

                         Standard orientation:
 ---------------------------------------------------------------------
 Center     Atomic      Atomic             Coordinates (Angstroms)
 Number     Number       Type             X           Y           Z
 ---------------------------------------------------------------------
      1          6           0        0.306893    1.800340   -0.566182
      2          6           0       -0.114977    0.506541    0.114913
      3          6           0        0.958013   -0.042244    1.053020
      4          6           0        2.199207   -0.572806    0.375695
      5          8           0        2.394951   -0.589611   -0.813918
      6          8           0       -1.375182    0.726037    0.841079
      7          6           0       -2.079510   -0.066654   -0.118655
      8          6           0       -1.628950   -1.490141   -0.073664
      9          6           0       -0.817314   -0.465815   -0.842092
     10          1           0        0.530481    2.566222    0.183429
     11          1           0        1.194845    1.633176   -1.181221
     12          1           0       -0.500409    2.170181   -1.203535
     13          1           0        1.269645    0.725666    1.776156
     14          1           0        0.553586   -0.856242    1.668681
     15          1           0        2.959565   -0.980604    1.080713
     16          1           0       -3.046780    0.285917   -0.456959
     17          1           0       -1.281272   -1.919145    0.861635
     18          1           0       -2.182099   -2.176205   -0.708246
     19          1           0       -0.595877   -0.555696   -1.896154
 ---------------------------------------------------------------------

 SCF Done:  E(RB3LYP) =  -423.153195507     A.U. after    1 cycles

 The electronic state is 1-A.
 Alpha  occ. eigenvalues --  -19.14695 -19.13576 -10.27970 -10.24906 -10.23833
 Alpha  occ. eigenvalues --  -10.19870 -10.19434 -10.19109 -10.17365  -1.05412
 Alpha  occ. eigenvalues --   -1.04871  -0.83132  -0.79497  -0.72446  -0.64011
 Alpha  occ. eigenvalues --   -0.61006  -0.57442  -0.52050  -0.50876  -0.50207
 Alpha  occ. eigenvalues --   -0.47514  -0.45132  -0.44804  -0.42742  -0.40110
 Alpha  occ. eigenvalues --   -0.38839  -0.38352  -0.36800  -0.35629  -0.33898
 Alpha  occ. eigenvalues --   -0.31466  -0.27868  -0.25638  -0.23692
 Alpha virt. eigenvalues --   -0.02524   0.07332   0.10080   0.11370   0.11668
 Alpha virt. eigenvalues --    0.12517   0.13491   0.14272   0.15232   0.17043
 Alpha virt. eigenvalues --    0.17683   0.18679   0.19396   0.20867   0.22310

 Mulliken charges:
               1
     1  C   -0.442101
     2  C    0.420451
     3  C   -0.356504
     4  C    0.162115
     5  O   -0.241074
     6  O   -0.340950
     7  C    0.096968
     8  C   -0.317438
     9  C   -0.147257
    10  H    0.116815
    11  H    0.141316
    12  H    0.121690
    13  H    0.131239
    14  H    0.131588
    15  H    0.085502
    16  H    0.103182
    17  H    0.110493
    18  H    0.117013
    19  H    0.106953
 Sum of Mulliken charges =   0.00000

 Dipole moment (field-independent basis, Debye):
    X=             -0.3097    Y=             -0.4649    Z=              0.7397  Tot=              0.9269
 Quadrupole moment (field-independent basis, Debye-Ang):
   XX=            -54.3062   YY=            -52.6095   ZZ=            -53.5788
   XY=              2.8974   XZ=              8.3913   YZ=             -2.2386

  Exact polarizability:  82.239   2.519  72.352   2.837  -1.302  69.629
 Approx polarizability: 111.046   0.833 103.523  -3.778   1.841 116.497

                      1                      2                      3
                      A                      A                      A
 Frequencies --     66.4988               135.3648               165.0380
 Red. masses --      5.4291                 2.4319                 4.2087
 Frc consts  --      0.0141                 0.0263                 0.0675
 IR Inten    --      4.3299                 6.0242                 7.4835

                      4                      5                      6
                      A                      A                      A
 Frequencies --    212.0821               233.5687               271.1381
 Red. masses --      2.2609                 1.5481                 1.7458
 Frc consts  --      0.0599                 0.0498                 0.0756
 IR Inten    --      0.3767                 0.8770                 0.2074

                      7                      8                      9
                      A                      A                      A
 Frequencies --    333.2425               372.4464               472.8864
 Red. masses --      2.1622                 3.1976                 3.3796
 Frc consts  --      0.1415                 0.2613                 0.4453
 IR Inten    --      0.4566                 2.2829                 8.6332

                     10                     11                     12
                      A                      A                      A
 Frequencies --    488.5676               581.3614               712.3442
 Red. masses --      2.3554                 4.3586                 1.4237
 Frc consts  --      0.3313                 0.8679                 0.4256
 IR Inten    --      2.4121                14.1004                 0.9344

                     13                     14                     15
                      A                      A                      A
 Frequencies --    754.1426               774.0336               801.5508
 Red. masses --      2.3116                 2.4244                 2.0547
 Frc consts  --      0.7746                 0.8558                 0.7778
 IR Inten    --     11.8029                21.5669                 3.3020

                     16                     17                     18
                      A                      A                      A
 Frequencies --    871.7244               902.3707               915.0336
 Red. masses --      2.9045                 2.4889                 2.1146
 Frc consts  --      1.3004                 1.1941                 1.0432
 IR Inten    --     13.8301                 8.1368                 7.4099

                     19                     20                     21
                      A                      A                      A
 Frequencies --    961.3033               973.5420               992.4867
 Red. masses --      2.0456                 1.6206                 1.5951
 Frc consts  --      1.1138                 0.9050                 0.9257
 IR Inten    --     12.8750                25.9368                 3.9227

                     22                     23                     24
                      A                      A                      A
 Frequencies --   1001.3054              1026.0063              1049.6572
 Red. masses --      1.7384                 1.6240                 1.4594
 Frc consts  --      1.0269                 1.0073                 0.9474
 IR Inten    --      8.2465                15.0017                18.5667

                     25                     26                     27
                      A                      A                      A
 Frequencies --   1056.5789              1083.9598              1130.2222
 Red. masses --      1.8497                 1.9026                 1.9081
 Frc consts  --      1.2166                 1.3171                 1.4361
 IR Inten    --     14.2514                28.7023                 2.4108

                     28                     29                     30
                      A                      A                      A
 Frequencies --   1158.4356              1192.0967              1247.9405
 Red. masses --      1.8928                 1.8221                 1.7486
 Frc consts  --      1.4966                 1.5256                 1.6045
 IR Inten    --      5.6550                 8.9548                 9.1057

                     31                     32                     33
                      A                      A                      A
 Frequencies --   1250.0565              1326.7243              1338.4132
 Red. masses --      1.9725                 2.1080                 2.1130
 Frc consts  --      1.8161                 2.1862                 2.2301
 IR Inten    --      7.0881                32.1347                23.8975

                     34                     35                     36
                      A                      A                      A
 Frequencies --   1356.3937              1402.1233              1421.8168
 Red. masses --      2.1662                 1.2832                 1.1382
 Frc consts  --      2.3481                 1.4863                 1.3556
 IR Inten    --     17.1005                16.2495                13.5199

                     37                     38                     39
                      A                      A                      A
 Frequencies --   1443.9573              1477.2343              1488.7334
 Red. masses --      1.1578                 1.2467                 1.0602
 Frc consts  --      1.4223                 1.6029                 1.3844
 IR Inten    --      7.6929                 5.3181                 4.1388

                     40                     41                     42
                      A                      A                      A
 Frequencies --   1498.8014              1824.4487              2869.9043
 Red. masses --      1.0605                 9.9391                 1.0828
 Frc consts  --      1.4036                19.4922                 5.2545
 IR Inten    --      4.5820               116.1394               146.9941

                     43                     44                     45
                      A                      A                      A
 Frequencies --   3019.5027              3043.0832              3051.9263
 Red. masses --      1.0644                 1.0359                 1.0939
 Frc consts  --      5.7177                 5.6518                 6.0032
 IR Inten    --     14.8735                14.5306                 8.8737

                     46                     47                     48
                      A                      A                      A
 Frequencies --   3115.0970              3115.9588              3132.8799
 Red. masses --      1.0662                 1.0884                 1.1017
 Frc consts  --      6.0958                 6.2260                 6.3708
 IR Inten    --     14.2817                18.5238                 9.2957

                     49                     50                     51
                      A                      A                      A
 Frequencies --   3179.6212              3202.2905              3216.5271
 Red. masses --      1.0930                 1.1134                 1.0972
 Frc consts  --      6.5104                 6.7269                 6.6883
 IR Inten    --     22.2710                 8.0533                 9.0270

 - Thermochemistry -
 -------------------
 Temperature   298.150 Kelvin.  Pressure   1.00000 Atm.
 Atom     1 has atomic number  6 and mass  12.00000

 Molecular mass:   126.06808 amu.
 Principal axes and moments of inertia in atomic units:
                           1         2         3
     Eigenvalues --   638.196021348.603891528.52818
           X            0.99885   0.03552   0.03207
           Y           -0.03273   0.99597  -0.08351
           Z           -0.03490   0.08236   0.99599
 This molecule is an asymmetric top.
 Rotational symmetry number  1.
 Warning -- assumption of classical behavior for rotation
           may cause significant error
 Rotational temperatures (Kelvin)      0.13572     0.06422     0.05666
 Rotational constants (GHZ):           2.82788     1.33823     1.18071
 Zero-point vibrational energy     410991.6 (Joules/Mol)
                                   98.22934 (Kcal/Mol)
 Warning -- explicit consideration of  11 degrees of freedom as
           vibrations may cause significant error
 Vibrational temperatures:     95.68   194.76   237.45   305.14   336.05
          (Kelvin)            390.11   479.46   535.87   680.38   702.94
                              836.45  1024.90  1085.04  1113.66  1153.25
                             1254.22  1298.31  1316.53  1383.10  1400.71
                             1427.97  1440.65  1476.19  1510.22  1520.18
                             1559.57  1626.14  1666.73  1715.16  1795.51
                             1798.55  1908.86  1925.68  1951.55  2017.34
                             2045.67  2077.53  2125.41  2141.95  2156.44
                             2624.97  4129.15  4344.39  4378.31  4391.04
                             4481.92  4483.16  4507.51  4574.76  4607.38
                             4627.86

 Zero-point correction=                           0.156538 (Hartree/Particle)
 Thermal correction to Energy=                    0.165293
 Thermal correction to Enthalpy=                  0.166237
 Thermal correction to Gibbs Free Energy=         0.123073
 Sum of electronic and zero-point Energies=           -422.996657
 Sum of electronic and thermal Energies=              -422.987902
 Sum of electronic and thermal Enthalpies=            -422.986958
 Sum of electronic and thermal Free Energies=         -423.030123

                     E (Thermal)             CV                S
                      KCal/Mol        Cal/Mol-Kelvin    Cal/Mol-Kelvin
 Total                  103.723             33.132             90.847
 Electronic               0.000              0.000              0.000
 Translational            0.889              2.981             40.409
 Rotational               0.889              2.981             28.666
 Vibrational            101.946             27.171             21.773
 Vibration     1          0.598              1.970              4.254
 Vibration     2          0.613              1.918              2.868
 Vibration     3          0.623              1.885              2.491
 Vibration     4          0.643              1.822              2.026
 Vibration     5          0.654              1.790              1.851
 Vibration     6          0.675              1.726              1.589
 Vibration     7          0.715              1.609              1.244
 Vibration     8          0.744              1.529              1.070
 Vibration     9          0.830              1.310              0.730
 Vibration    10          0.844              1.275              0.687
 Vibration    11          0.938              1.072              0.483

 Normal termination of Gaussian 09 at Mon Jan 27 17:50:12 2020.
