 Gaussian 09, Revision D.01,
 Gaussian 09:  ES64L-G09RevD.01 24-Apr-2013

 -----------------------------
 # b3lyp 6-31G(2df,p) opt Freq
 -----------------------------

 -----
 titel
 -----
 Symbolic Z-matrix:
 Charge =  0 Multiplicity = 1

 SCF Done:  E(RB3LYP) =  -423.202451441     A.U. after   14 cycles
 Optimization completed.
    -- Stationary point found.
 Normal termination of Gaussian 09 at Mon Jan 27 17:58:39 2020.

 ----------------------------------------------------------------------
 #N Geom=AllCheck Guess=TCheck SCRF=Check GenChk RB3LYP/6-31G(2df,p) Fr
 eq
 ----------------------------------------------------------------------

 Structure from the checkpoint file:  "/scratch/puck/g09_4b89affb-a3ff-4e20-b3bb-483fe6e95a18/Gau-61633.chk"
 -----
 titel
 -----
 Charge =  0 Multiplicity = 1

                         Standard orientation:
 ---------------------------------------------------------------------
 Center     Atomic      Atomic             Coordinates (Angstroms)
 Number     Number       Type             X           Y           Z
 ---------------------------------------------------------------------
      1          6           0       -2.267102   -0.602396   -0.384785
      2          6           0       -0.831774   -0.370913    0.037109
      3          6           0       -0.224811   -1.314315    1.081994
      4          6           0        0.256205   -1.376921   -0.330157
      5          6           0        1.638050   -0.828616   -0.626243
      6          8           0        1.951428    0.247751    0.241464
      7          6           0        1.099203    1.359477    0.058394
      8          6           0       -0.403735    1.058162    0.061819
      9          8           0       -1.192970    1.976530    0.001416
     10          1           0       -2.956491   -0.100204    0.299003
     11          1           0       -2.452709   -0.203211   -1.386685
     12          1           0       -2.499857   -1.671422   -0.391373
     13          1           0        0.448778   -0.901118    1.822763
     14          1           0       -0.890003   -2.089510    1.445327
     15          1           0       -0.058612   -2.212586   -0.949063
     16          1           0        2.404695   -1.589821   -0.449075
     17          1           0        1.712287   -0.511168   -1.680280
     18          1           0        1.320559    2.071840    0.857621
     19          1           0        1.307465    1.866085   -0.900051
 ---------------------------------------------------------------------

 SCF Done:  E(RB3LYP) =  -423.202451441     A.U. after    1 cycles

 The electronic state is 1-A.
 Alpha  occ. eigenvalues --  -19.15401 -19.12419 -10.26572 -10.24194 -10.23750
 Alpha  occ. eigenvalues --  -10.21018 -10.20749 -10.20031 -10.18119  -1.05233
 Alpha  occ. eigenvalues --   -1.03308  -0.88105  -0.75739  -0.71924  -0.68152
 Alpha  occ. eigenvalues --   -0.62912  -0.59037  -0.52016  -0.51031  -0.49296
 Alpha  occ. eigenvalues --   -0.48563  -0.45302  -0.42544  -0.41784  -0.40814
 Alpha  occ. eigenvalues --   -0.40138  -0.39167  -0.37633  -0.36701  -0.33612
 Alpha  occ. eigenvalues --   -0.30187  -0.28741  -0.28003  -0.23240
 Alpha virt. eigenvalues --   -0.01514   0.08482   0.09839   0.11452   0.12133
 Alpha virt. eigenvalues --    0.12757   0.14396   0.15475   0.15664   0.16210
 Alpha virt. eigenvalues --    0.17165   0.18121   0.19898   0.21177   0.21350

 Mulliken charges:
               1
     1  C   -0.461589
     2  C    0.211891
     3  C   -0.319836
     4  C   -0.078687
     5  C   -0.112227
     6  O   -0.243968
     7  C   -0.180025
     8  C    0.301089
     9  O   -0.322327
    10  H    0.138736
    11  H    0.127201
    12  H    0.107878
    13  H    0.138354
    14  H    0.121107
    15  H    0.095345
    16  H    0.117661
    17  H    0.095213
    18  H    0.141998
    19  H    0.122188
 Sum of Mulliken charges =   0.00000

 Dipole moment (field-independent basis, Debye):
    X=              0.7320    Y=             -2.5133    Z=             -0.5959  Tot=              2.6847
 Quadrupole moment (field-independent basis, Debye-Ang):
   XX=            -56.8006   YY=            -54.9878   ZZ=            -51.2382
   XY=              4.4352   XZ=             -1.5865   YZ=              0.6225

  Exact polarizability:  80.160  -2.147  82.575  -1.012  -0.944  64.273
 Approx polarizability: 110.908 -11.523 124.444   0.390  -2.099 100.458

                      1                      2                      3
                      A                      A                      A
 Frequencies --     86.9567               169.4209               199.8192
 Red. masses --      3.4596                 1.3802                 1.5871
 Frc consts  --      0.0154                 0.0233                 0.0373
 IR Inten    --      3.8485                 0.6159                 1.4567

                      4                      5                      6
                      A                      A                      A
 Frequencies --    264.9517               295.7147               327.5581
 Red. masses --      3.4024                 2.7722                 2.8993
 Frc consts  --      0.1407                 0.1428                 0.1833
 IR Inten    --      1.6599                 0.4472                12.7273

                      7                      8                      9
                      A                      A                      A
 Frequencies --    368.6311               410.4576               474.1929
 Red. masses --      2.8245                 2.9621                 4.8058
 Frc consts  --      0.2261                 0.2940                 0.6367
 IR Inten    --      4.6516                 3.9487                 7.3268

                     10                     11                     12
                      A                      A                      A
 Frequencies --    537.4208               611.3366               641.8171
 Red. masses --      3.7606                 3.7713                 3.0438
 Frc consts  --      0.6399                 0.8304                 0.7387
 IR Inten    --      3.0950                 1.5984                 0.4527

                     13                     14                     15
                      A                      A                      A
 Frequencies --    681.2503               770.8052               847.1103
 Red. masses --      3.3817                 2.7053                 2.4996
 Frc consts  --      0.9247                 0.9470                 1.0568
 IR Inten    --     15.0565                 2.2142                21.6878

                     16                     17                     18
                      A                      A                      A
 Frequencies --    888.3940               919.2248               947.8029
 Red. masses --      1.9538                 1.7995                 1.7214
 Frc consts  --      0.9085                 0.8959                 0.9111
 IR Inten    --      3.8868                 5.6971                 6.4112

                     19                     20                     21
                      A                      A                      A
 Frequencies --    990.4611              1023.5324              1057.6451
 Red. masses --      1.8622                 2.0545                 1.4434
 Frc consts  --      1.0764                 1.2681                 0.9513
 IR Inten    --     16.6039                 0.9306                 6.5365

                     22                     23                     24
                      A                      A                      A
 Frequencies --   1085.6009              1098.4527              1106.3826
 Red. masses --      1.7466                 1.9652                 1.9708
 Frc consts  --      1.2128                 1.3971                 1.4213
 IR Inten    --     24.3461                 1.9361                 6.3814

                     25                     26                     27
                      A                      A                      A
 Frequencies --   1126.8138              1128.8474              1170.0286
 Red. masses --      1.6517                 2.1483                 3.7060
 Frc consts  --      1.2356                 1.6130                 2.9892
 IR Inten    --      9.0595                12.5760                73.6815

                     28                     29                     30
                      A                      A                      A
 Frequencies --   1249.5830              1263.8126              1314.9748
 Red. masses --      1.1885                 1.9584                 1.2029
 Frc consts  --      1.0934                 1.8429                 1.2255
 IR Inten    --     17.5333                 4.0418                 8.7529

                     31                     32                     33
                      A                      A                      A
 Frequencies --   1344.0269              1359.5484              1395.4423
 Red. masses --      2.7753                 1.5381                 1.9232
 Frc consts  --      2.9538                 1.6750                 2.2064
 IR Inten    --     39.6182                 4.7713                 7.8803

                     34                     35                     36
                      A                      A                      A
 Frequencies --   1410.1337              1419.1114              1456.2385
 Red. masses --      1.2744                 1.3894                 1.0839
 Frc consts  --      1.4931                 1.6486                 1.3543
 IR Inten    --      5.8135                 1.1125                 5.6196

                     37                     38                     39
                      A                      A                      A
 Frequencies --   1480.2781              1483.4376              1497.8091
 Red. masses --      1.1834                 1.1859                 1.0736
 Frc consts  --      1.5279                 1.5376                 1.4190
 IR Inten    --      9.9061                 0.8027                 7.1825

                     40                     41                     42
                      A                      A                      A
 Frequencies --   1502.1407              1789.6348              2962.8267
 Red. masses --      1.0906                12.4439                 1.0706
 Frc consts  --      1.4500                23.4820                 5.5372
 IR Inten    --      2.9194               193.8094                31.2063

                     43                     44                     45
                      A                      A                      A
 Frequencies --   2966.9848              3040.7347              3073.2683
 Red. masses --      1.0705                 1.0354                 1.0921
 Frc consts  --      5.5524                 5.6407                 6.0771
 IR Inten    --     65.4776                22.4157                31.9557

                     46                     47                     48
                      A                      A                      A
 Frequencies --   3099.4445              3108.8774              3118.9297
 Red. masses --      1.0900                 1.1017                 1.1011
 Frc consts  --      6.1696                 6.2739                 6.3110
 IR Inten    --      8.1338                17.1024                12.9219

                     49                     50                     51
                      A                      A                      A
 Frequencies --   3143.2840              3150.6412              3235.8182
 Red. masses --      1.0559                 1.0873                 1.1168
 Frc consts  --      6.1465                 6.3593                 6.8893
 IR Inten    --      9.2538                13.7337                 2.1223

 - Thermochemistry -
 -------------------
 Temperature   298.150 Kelvin.  Pressure   1.00000 Atm.
 Atom     1 has atomic number  6 and mass  12.00000

 Molecular mass:   126.06808 amu.
 Principal axes and moments of inertia in atomic units:
                           1         2         3
     Eigenvalues --   769.26431 981.945801494.03671
           X            0.99288   0.11906  -0.00440
           Y           -0.11906   0.99289   0.00026
           Z            0.00440   0.00026   0.99999
 This molecule is an asymmetric top.
 Rotational symmetry number  1.
 Warning -- assumption of classical behavior for rotation
           may cause significant error
 Rotational temperatures (Kelvin)      0.11259     0.08821     0.05797
 Rotational constants (GHZ):           2.34606     1.83792     1.20796
 Zero-point vibrational energy     419276.8 (Joules/Mol)
                                  100.20956 (Kcal/Mol)
 Warning -- explicit consideration of  11 degrees of freedom as
           vibrations may cause significant error
 Vibrational temperatures:    125.11   243.76   287.49   381.21   425.47
          (Kelvin)            471.28   530.38   590.56   682.26   773.23
                              879.58   923.43   980.17  1109.02  1218.80
                             1278.20  1322.56  1363.68  1425.05  1472.63
                             1521.71  1561.94  1580.43  1591.84  1621.23
                             1624.16  1683.41  1797.87  1818.34  1891.95
                             1933.75  1956.08  2007.73  2028.87  2041.78
                             2095.20  2129.79  2134.33  2155.01  2161.24
                             2574.88  4262.84  4268.82  4374.93  4421.74
                             4459.40  4472.98  4487.44  4522.48  4533.06
                             4655.61

 Zero-point correction=                           0.159694 (Hartree/Particle)
 Thermal correction to Energy=                    0.167881
 Thermal correction to Enthalpy=                  0.168825
 Thermal correction to Gibbs Free Energy=         0.127169
 Sum of electronic and zero-point Energies=           -423.042757
 Sum of electronic and thermal Energies=              -423.034570
 Sum of electronic and thermal Enthalpies=            -423.033626
 Sum of electronic and thermal Free Energies=         -423.075282

                     E (Thermal)             CV                S
                      KCal/Mol        Cal/Mol-Kelvin    Cal/Mol-Kelvin
 Total                  105.347             31.772             87.672
 Electronic               0.000              0.000              0.000
 Translational            0.889              2.981             40.409
 Rotational               0.889              2.981             28.514
 Vibrational            103.569             25.810             18.750
 Vibration     1          0.601              1.958              3.727
 Vibration     2          0.625              1.880              2.442
 Vibration     3          0.638              1.840              2.135
 Vibration     4          0.671              1.737              1.629
 Vibration     5          0.690              1.682              1.441
 Vibration     6          0.711              1.620              1.272
 Vibration     7          0.741              1.537              1.085
 Vibration     8          0.775              1.448              0.925
 Vibration     9          0.831              1.307              0.726
 Vibration    10          0.892              1.167              0.571
 Vibration    11          0.970              1.008              0.431

 Optimization completed.
    -- Stationary point found.
 Normal termination of Gaussian 09 at Mon Jan 27 18:43:04 2020.
