 Gaussian 09, Revision D.01,
 Gaussian 09:  ES64L-G09RevD.01 24-Apr-2013

 -----------------------------
 # b3lyp 6-31G(2df,p) opt Freq
 -----------------------------

 -----
 titel
 -----
 Symbolic Z-matrix:
 Charge =  0 Multiplicity = 1

 SCF Done:  E(RB3LYP) =  -423.146035189     A.U. after   13 cycles
 Optimization completed.
    -- Stationary point found.
 Normal termination of Gaussian 09 at Mon Jan 27 23:41:33 2020.

 ----------------------------------------------------------------------
 #N Geom=AllCheck Guess=TCheck SCRF=Check GenChk RB3LYP/6-31G(2df,p) Fr
 eq
 ----------------------------------------------------------------------

 Structure from the checkpoint file:  "/scratch/puck/g09_4d5dff95-481f-491c-a921-996b9f159c39/Gau-103967.chk"
 -----
 titel
 -----
 Charge =  0 Multiplicity = 1

                         Standard orientation:
 ---------------------------------------------------------------------
 Center     Atomic      Atomic             Coordinates (Angstroms)
 Number     Number       Type             X           Y           Z
 ---------------------------------------------------------------------
      1          8           0        2.818457   -0.971102   -0.224924
      2          6           0        1.521906   -0.468907   -0.386863
      3          6           0        1.234516    0.923084    0.121347
      4          6           0        0.007441    1.687152   -0.387700
      5          6           0       -1.230469    0.924804    0.103393
      6          6           0       -1.526474   -0.460248   -0.402701
      7          8           0       -2.836408   -0.952553   -0.397902
      8          6           0       -0.758627   -0.304997    0.886534
      9          6           0        0.754875   -0.303635    0.892487
     10          1           0        3.381316   -0.555122   -0.886729
     11          1           0        1.010142   -0.825646   -1.280011
     12          1           0        2.090760    1.487756    0.475016
     13          1           0        0.006078    2.694316    0.041799
     14          1           0        0.012438    1.809748   -1.477904
     15          1           0       -2.082593    1.506372    0.444745
     16          1           0       -1.022547   -0.827401   -1.289550
     17          1           0       -3.276446   -0.647028    0.401761
     18          1           0       -1.257614   -0.613075    1.800337
     19          1           0        1.263063   -0.624195    1.794162
 ---------------------------------------------------------------------

 SCF Done:  E(RB3LYP) =  -423.146035189     A.U. after    1 cycles

 The electronic state is 1-A.
 Alpha  occ. eigenvalues --  -19.14128 -19.14086 -10.23308 -10.23146 -10.18883
 Alpha  occ. eigenvalues --  -10.18858 -10.18811 -10.18531 -10.18440  -1.02686
 Alpha  occ. eigenvalues --   -1.02538  -0.88721  -0.80907  -0.72105  -0.63512
 Alpha  occ. eigenvalues --   -0.59728  -0.57507  -0.55518  -0.53368  -0.49628
 Alpha  occ. eigenvalues --   -0.46639  -0.45441  -0.42566  -0.41618  -0.39804
 Alpha  occ. eigenvalues --   -0.37350  -0.36659  -0.35681  -0.34341  -0.31621
 Alpha  occ. eigenvalues --   -0.29938  -0.25818  -0.24544  -0.23236
 Alpha virt. eigenvalues --    0.07092   0.08291   0.08583   0.09835   0.11768
 Alpha virt. eigenvalues --    0.13075   0.14033   0.15773   0.17153   0.18647
 Alpha virt. eigenvalues --    0.19088   0.19608   0.20363   0.23335   0.24195

 Mulliken charges:
               1
     1  O   -0.438786
     2  C    0.082354
     3  C   -0.094687
     4  C   -0.265685
     5  C   -0.102248
     6  C    0.139252
     7  O   -0.444231
     8  C   -0.123894
     9  C   -0.056892
    10  H    0.284312
    11  H    0.083851
    12  H    0.086206
    13  H    0.106994
    14  H    0.102640
    15  H    0.078989
    16  H    0.103889
    17  H    0.281586
    18  H    0.080020
    19  H    0.096331
 Sum of Mulliken charges =   0.00000

 Dipole moment (field-independent basis, Debye):
    X=              0.2885    Y=              1.9510    Z=              0.3054  Tot=              1.9957
 Quadrupole moment (field-independent basis, Debye-Ang):
   XX=            -51.7931   YY=            -56.0729   ZZ=            -50.4887
   XY=              0.5738   XZ=             -8.1165   YZ=             -0.4754

  Exact polarizability:  87.277   0.399  70.319  -2.609  -1.335  65.135
 Approx polarizability: 115.101   0.787 106.736  -2.551  -1.919 103.491

                      1                      2                      3
                      A                      A                      A
 Frequencies --    138.8193               160.5361               199.7153
 Red. masses --      1.0423                 4.5009                 3.1440
 Frc consts  --      0.0118                 0.0683                 0.0739
 IR Inten    --     86.0419                 2.0433                 6.7926

                      4                      5                      6
                      A                      A                      A
 Frequencies --    259.9656               273.8713               292.8953
 Red. masses --      2.6510                 2.1763                 1.4295
 Frc consts  --      0.1056                 0.0962                 0.0723
 IR Inten    --     14.5547                 1.6155                65.5337

                      7                      8                      9
                      A                      A                      A
 Frequencies --    324.2308               365.4184               414.6607
 Red. masses --      3.5129                 2.8584                 4.3390
 Frc consts  --      0.2176                 0.2249                 0.4396
 IR Inten    --      7.3291                22.4687                12.1317

                     10                     11                     12
                      A                      A                      A
 Frequencies --    503.6984               689.5167               707.4744
 Red. masses --      4.0949                 3.9189                 3.5547
 Frc consts  --      0.6121                 1.0978                 1.0483
 IR Inten    --      0.4825                 3.3788                 0.0366

                     13                     14                     15
                      A                      A                      A
 Frequencies --    798.3900               831.2428               842.7450
 Red. masses --      1.9208                 2.1810                 2.3374
 Frc consts  --      0.7214                 0.8879                 0.9781
 IR Inten    --      4.2731                 4.1623                 4.9948

                     16                     17                     18
                      A                      A                      A
 Frequencies --    879.9375               901.3503               919.5511
 Red. masses --      4.0635                 2.6782                 2.5498
 Frc consts  --      1.8538                 1.2820                 1.2703
 IR Inten    --     27.4247                29.9912                11.9424

                     19                     20                     21
                      A                      A                      A
 Frequencies --    971.9684               978.9489              1036.7640
 Red. masses --      1.7847                 1.9513                 1.5460
 Frc consts  --      0.9934                 1.1018                 0.9791
 IR Inten    --      3.8248                 0.5219                 2.5777

                     22                     23                     24
                      A                      A                      A
 Frequencies --   1041.9915              1055.2663              1069.9624
 Red. masses --      1.3662                 1.4924                 1.4556
 Frc consts  --      0.8739                 0.9792                 0.9818
 IR Inten    --      5.7165                 4.0393                 3.9523

                     25                     26                     27
                      A                      A                      A
 Frequencies --   1089.6024              1095.5960              1124.3651
 Red. masses --      1.4705                 1.9902                 2.0415
 Frc consts  --      1.0286                 1.4075                 1.5206
 IR Inten    --      6.4100                 8.0755               120.2589

                     28                     29                     30
                      A                      A                      A
 Frequencies --   1150.4174              1172.7414              1189.6070
 Red. masses --      2.1017                 1.9508                 1.5930
 Frc consts  --      1.6388                 1.5808                 1.3282
 IR Inten    --     66.1859                21.9788                 0.7895

                     31                     32                     33
                      A                      A                      A
 Frequencies --   1207.7622              1259.6935              1287.8110
 Red. masses --      1.3554                 1.6101                 1.5499
 Frc consts  --      1.1648                 1.5053                 1.5144
 IR Inten    --      3.2934                19.3969                 4.7475

                     34                     35                     36
                      A                      A                      A
 Frequencies --   1293.4068              1301.6169              1333.7901
 Red. masses --      1.2767                 1.3827                 1.5858
 Frc consts  --      1.2583                 1.3802                 1.6621
 IR Inten    --     47.2956                 5.7811                12.0117

                     37                     38                     39
                      A                      A                      A
 Frequencies --   1341.5267              1376.8871              1461.0556
 Red. masses --      1.5364                 1.5574                 2.1502
 Frc consts  --      1.6291                 1.7396                 2.7043
 IR Inten    --      7.2169                10.5540                32.5699

                     40                     41                     42
                      A                      A                      A
 Frequencies --   1467.4281              1490.1047              3029.3151
 Red. masses --      1.6805                 1.1098                 1.0635
 Frc consts  --      2.1321                 1.4519                 5.7500
 IR Inten    --     37.5834                 4.5787                40.8842

                     43                     44                     45
                      A                      A                      A
 Frequencies --   3071.0182              3100.3762              3141.4501
 Red. masses --      1.0996                 1.0874                 1.0888
 Frc consts  --      6.1103                 6.1584                 6.3311
 IR Inten    --     18.6890                28.2181                13.8223

                     46                     47                     48
                      A                      A                      A
 Frequencies --   3155.0869              3165.3822              3177.6233
 Red. masses --      1.0910                 1.0894                 1.0877
 Frc consts  --      6.3990                 6.4314                 6.4708
 IR Inten    --     19.0830                13.6602                18.0710

                     49                     50                     51
                      A                      A                      A
 Frequencies --   3187.6466              3800.0447              3819.6868
 Red. masses --      1.0913                 1.0661                 1.0659
 Frc consts  --      6.5332                 9.0707                 9.1624
 IR Inten    --     10.1835                19.0644                20.0376

 - Thermochemistry -
 -------------------
 Temperature   298.150 Kelvin.  Pressure   1.00000 Atm.
 Atom     1 has atomic number  8 and mass  15.99491

 Molecular mass:   126.06808 amu.
 Principal axes and moments of inertia in atomic units:
                           1         2         3
     Eigenvalues --   539.682871570.163671813.16705
           X            0.99993   0.00065  -0.01179
           Y           -0.00083   0.99988  -0.01534
           Z            0.01178   0.01535   0.99981
 This molecule is an asymmetric top.
 Rotational symmetry number  1.
 Warning -- assumption of classical behavior for rotation
           may cause significant error
 Rotational temperatures (Kelvin)      0.16049     0.05516     0.04777
 Rotational constants (GHZ):           3.34408     1.14940     0.99535
 Zero-point vibrational energy     418393.7 (Joules/Mol)
                                   99.99849 (Kcal/Mol)
 Warning -- explicit consideration of  10 degrees of freedom as
           vibrations may cause significant error
 Vibrational temperatures:    199.73   230.98   287.35   374.03   394.04
          (Kelvin)            421.41   466.50   525.75   596.60   724.71
                              992.06  1017.90  1148.70  1195.97  1212.52
                             1266.03  1296.84  1323.03  1398.44  1408.49
                             1491.67  1499.19  1518.29  1539.44  1567.69
                             1576.32  1617.71  1655.19  1687.31  1711.58
                             1737.70  1812.42  1852.87  1860.92  1872.73
                             1919.02  1930.16  1981.03  2102.13  2111.30
                             2143.93  4358.50  4418.50  4460.74  4519.84
                             4539.46  4554.27  4571.89  4586.31  5467.41
                             5495.67

 Zero-point correction=                           0.159358 (Hartree/Particle)
 Thermal correction to Energy=                    0.167692
 Thermal correction to Enthalpy=                  0.168636
 Thermal correction to Gibbs Free Energy=         0.126793
 Sum of electronic and zero-point Energies=           -422.986677
 Sum of electronic and thermal Energies=              -422.978343
 Sum of electronic and thermal Enthalpies=            -422.977399
 Sum of electronic and thermal Free Energies=         -423.019243

                     E (Thermal)             CV                S
                      KCal/Mol        Cal/Mol-Kelvin    Cal/Mol-Kelvin
 Total                  105.228             32.675             88.067
 Electronic               0.000              0.000              0.000
 Translational            0.889              2.981             40.409
 Rotational               0.889              2.981             28.820
 Vibrational            103.451             26.714             18.838
 Vibration     1          0.614              1.915              2.820
 Vibration     2          0.622              1.891              2.543
 Vibration     3          0.638              1.840              2.136
 Vibration     4          0.668              1.746              1.662
 Vibration     5          0.676              1.722              1.572
 Vibration     6          0.688              1.687              1.457
 Vibration     7          0.709              1.627              1.289
 Vibration     8          0.739              1.543              1.099
 Vibration     9          0.778              1.438              0.910
 Vibration    10          0.859              1.242              0.649

 Normal termination of Gaussian 09 at Tue Jan 28 00:25:17 2020.
