 Gaussian 09, Revision D.01,
 Gaussian 09:  ES64L-G09RevD.01 24-Apr-2013

 -----------------------------
 # b3lyp 6-31G(2df,p) opt Freq
 -----------------------------

 -----
 titel
 -----
 Symbolic Z-matrix:
 Charge =  0 Multiplicity = 1

 SCF Done:  E(RB3LYP) =  -423.148115536     A.U. after   13 cycles
 Optimization completed.
    -- Stationary point found.
 Normal termination of Gaussian 09 at Mon Jan 27 12:05:01 2020.

 ----------------------------------------------------------------------
 #N Geom=AllCheck Guess=TCheck SCRF=Check GenChk RB3LYP/6-31G(2df,p) Fr
 eq
 ----------------------------------------------------------------------

 Structure from the checkpoint file:  "/scratch/puck/g09_13ca8643-9685-4ceb-821c-41a91632024d/Gau-24872.chk"
 -----
 titel
 -----
 Charge =  0 Multiplicity = 1

                         Standard orientation:
 ---------------------------------------------------------------------
 Center     Atomic      Atomic             Coordinates (Angstroms)
 Number     Number       Type             X           Y           Z
 ---------------------------------------------------------------------
      1          6           0       -1.676208   -1.091631   -0.591149
      2          6           0       -1.730561   -0.721149    0.870079
      3          6           0       -0.760140   -0.033163   -0.060037
      4          6           0       -0.887007    1.444186   -0.393986
      5          8           0        0.215877    2.056909    0.266560
      6          6           0        1.320570    1.173487    0.149053
      7          6           0        0.733205   -0.239861    0.047980
      8          6           0        1.400323   -1.444774    0.542665
      9          8           0        1.385289   -1.139786   -0.856949
     10          1           0       -1.224581   -2.036698   -0.874289
     11          1           0       -2.494786   -0.780157   -1.232080
     12          1           0       -2.581338   -0.147070    1.223445
     13          1           0       -1.335864   -1.424253    1.595734
     14          1           0       -0.826765    1.607284   -1.483461
     15          1           0       -1.804464    1.907906   -0.022001
     16          1           0        1.906694    1.372896   -0.761628
     17          1           0        1.965064    1.319848    1.020420
     18          1           0        2.370645   -1.363132    1.032510
     19          1           0        0.814971   -2.316182    0.836831
 ---------------------------------------------------------------------

 SCF Done:  E(RB3LYP) =  -423.148115536     A.U. after    1 cycles

 The electronic state is 1-A.
 Alpha  occ. eigenvalues --  -19.15181 -19.14019 -10.24575 -10.23719 -10.23024
 Alpha  occ. eigenvalues --  -10.22975 -10.20199 -10.19334 -10.19233  -1.07370
 Alpha  occ. eigenvalues --   -1.03748  -0.86782  -0.73504  -0.71140  -0.66574
 Alpha  occ. eigenvalues --   -0.60852  -0.60217  -0.54998  -0.51009  -0.50170
 Alpha  occ. eigenvalues --   -0.48085  -0.47305  -0.44499  -0.42127  -0.40437
 Alpha  occ. eigenvalues --   -0.39601  -0.37291  -0.37153  -0.33458  -0.32446
 Alpha  occ. eigenvalues --   -0.29968  -0.27803  -0.26214  -0.25413
 Alpha virt. eigenvalues --    0.07077   0.07750   0.09385   0.10868   0.12021
 Alpha virt. eigenvalues --    0.12843   0.13601   0.14910   0.16131   0.16994
 Alpha virt. eigenvalues --    0.17737   0.18338   0.19392   0.21365   0.22654

 Mulliken charges:
               1
     1  C   -0.320522
     2  C   -0.310659
     3  C    0.291794
     4  C   -0.180877
     5  O   -0.250773
     6  C   -0.153314
     7  C    0.320466
     8  C   -0.253819
     9  O   -0.272440
    10  H    0.127554
    11  H    0.116956
    12  H    0.115064
    13  H    0.114012
    14  H    0.095182
    15  H    0.109963
    16  H    0.108662
    17  H    0.114185
    18  H    0.115953
    19  H    0.112612
 Sum of Mulliken charges =   0.00000

 Dipole moment (field-independent basis, Debye):
    X=             -0.7431    Y=             -0.8205    Z=              1.0012  Tot=              1.4926
 Quadrupole moment (field-independent basis, Debye-Ang):
   XX=            -50.1646   YY=            -56.5935   ZZ=            -53.8469
   XY=             -0.3997   XZ=              3.4036   YZ=             -3.8291

  Exact polarizability:  82.544  -0.797  75.580   2.655  -3.520  65.351
 Approx polarizability: 110.800  -2.569 106.827   0.755  -1.727 104.539

                      1                      2                      3
                      A                      A                      A
 Frequencies --     44.3735               178.1345               224.0340
 Red. masses --      2.7703                 3.7742                 2.7418
 Frc consts  --      0.0032                 0.0706                 0.0811
 IR Inten    --      1.6262                 4.3505                 2.2893

                      4                      5                      6
                      A                      A                      A
 Frequencies --    236.2396               314.1101               345.5362
 Red. masses --      2.6531                 2.4630                 2.1113
 Frc consts  --      0.0872                 0.1432                 0.1485
 IR Inten    --      2.3669                 4.8634                 1.3899

                      7                      8                      9
                      A                      A                      A
 Frequencies --    385.3336               490.1400               537.7381
 Red. masses --      3.3444                 3.1302                 5.1992
 Frc consts  --      0.2926                 0.4431                 0.8858
 IR Inten    --      5.7350                 1.1821                 2.4834

                     10                     11                     12
                      A                      A                      A
 Frequencies --    561.7966               699.8349               779.5863
 Red. masses --      4.2000                 3.6531                 1.0694
 Frc consts  --      0.7810                 1.0541                 0.3829
 IR Inten    --      1.0418                 9.4089                 0.5989

                     13                     14                     15
                      A                      A                      A
 Frequencies --    827.7881               848.2850               890.4725
 Red. masses --      3.4669                 2.5467                 1.8407
 Frc consts  --      1.3997                 1.0797                 0.8600
 IR Inten    --     33.3361                 2.4860                 6.0542

                     16                     17                     18
                      A                      A                      A
 Frequencies --    935.3016               945.4551               951.7801
 Red. masses --      1.6795                 1.8309                 3.5014
 Frc consts  --      0.8656                 0.9642                 1.8688
 IR Inten    --      6.7070                23.6496                18.7487

                     19                     20                     21
                      A                      A                      A
 Frequencies --    964.1805               986.3761              1053.0452
 Red. masses --      2.2910                 2.8800                 1.4180
 Frc consts  --      1.2549                 1.6509                 0.9264
 IR Inten    --     18.7904                 6.9821                 3.5470

                     22                     23                     24
                      A                      A                      A
 Frequencies --   1071.6094              1078.4019              1095.1457
 Red. masses --      1.5949                 1.9111                 2.2945
 Frc consts  --      1.0791                 1.3094                 1.6213
 IR Inten    --      0.1766                 8.2569                27.0524

                     25                     26                     27
                      A                      A                      A
 Frequencies --   1109.1692              1126.8345              1156.3061
 Red. masses --      4.2403                 1.2899                 2.0227
 Frc consts  --      3.0735                 0.9650                 1.5934
 IR Inten    --     68.7699                 1.9098                 1.3732

                     28                     29                     30
                      A                      A                      A
 Frequencies --   1175.5390              1188.6463              1212.7449
 Red. masses --      1.6187                 1.3107                 1.1571
 Frc consts  --      1.3179                 1.0911                 1.0026
 IR Inten    --      1.8267                 0.5026                 9.3679

                     31                     32                     33
                      A                      A                      A
 Frequencies --   1255.2709              1272.0788              1332.4527
 Red. masses --      1.2733                 2.6586                 1.3173
 Frc consts  --      1.1821                 2.5348                 1.3780
 IR Inten    --      4.5512                 1.0669                 1.8899

                     34                     35                     36
                      A                      A                      A
 Frequencies --   1360.1347              1398.4750              1438.2169
 Red. masses --      1.6911                 2.0695                 2.3337
 Frc consts  --      1.8433                 2.3847                 2.8441
 IR Inten    --      8.4066                16.5908                 9.7166

                     37                     38                     39
                      A                      A                      A
 Frequencies --   1470.1123              1500.6994              1509.3809
 Red. masses --      1.0868                 1.1936                 1.2735
 Frc consts  --      1.3838                 1.5838                 1.7094
 IR Inten    --      2.7210                 0.0329                 0.8263

                     40                     41                     42
                      A                      A                      A
 Frequencies --   1518.9085              1535.6146              2960.7171
 Red. masses --      1.1173                 1.4403                 1.0707
 Frc consts  --      1.5187                 2.0011                 5.5301
 IR Inten    --      0.3929                 4.2923                63.9761

                     43                     44                     45
                      A                      A                      A
 Frequencies --   2987.6178              3071.9940              3083.2357
 Red. masses --      1.0691                 1.0507                 1.0941
 Frc consts  --      5.6225                 5.8421                 6.1278
 IR Inten    --     51.5751                23.1088                28.2338

                     46                     47                     48
                      A                      A                      A
 Frequencies --   3089.2914              3125.8030              3129.8436
 Red. masses --      1.0934                 1.0516                 1.0573
 Frc consts  --      6.1481                 6.0537                 6.1022
 IR Inten    --     24.0652                17.2359                10.5016

                     49                     50                     51
                      A                      A                      A
 Frequencies --   3153.8567              3204.6842              3219.0982
 Red. masses --      1.1187                 1.1178                 1.1154
 Frc consts  --      6.5560                 6.7639                 6.8103
 IR Inten    --     25.6211                 0.7952                14.0326

 - Thermochemistry -
 -------------------
 Temperature   298.150 Kelvin.  Pressure   1.00000 Atm.
 Atom     1 has atomic number  6 and mass  12.00000

 Molecular mass:   126.06808 amu.
 Principal axes and moments of inertia in atomic units:
                           1         2         3
     Eigenvalues --   866.85501 884.092431439.30619
           X            0.84275   0.53781   0.02307
           Y           -0.53703   0.84293  -0.03255
           Z           -0.03695   0.01504   0.99920
 This molecule is an asymmetric top.
 Rotational symmetry number  1.
 Warning -- assumption of classical behavior for rotation
           may cause significant error
 Rotational temperatures (Kelvin)      0.09992     0.09797     0.06018
 Rotational constants (GHZ):           2.08194     2.04135     1.25390
 Zero-point vibrational energy     418880.9 (Joules/Mol)
                                  100.11495 (Kcal/Mol)
 Warning -- explicit consideration of  10 degrees of freedom as
           vibrations may cause significant error
 Vibrational temperatures:     63.84   256.30   322.33   339.90   451.93
          (Kelvin)            497.15   554.41   705.20   773.68   808.30
                             1006.91  1121.65  1191.00  1220.49  1281.19
                             1345.69  1360.30  1369.40  1387.24  1419.17
                             1515.10  1541.81  1551.58  1575.67  1595.85
                             1621.26  1663.66  1691.34  1710.19  1744.87
                             1806.05  1830.24  1917.10  1956.93  2012.09
                             2069.27  2115.16  2159.17  2171.66  2185.37
                             2209.40  4259.81  4298.51  4419.91  4436.08
                             4444.80  4497.33  4503.14  4537.69  4610.82
                             4631.56

 Zero-point correction=                           0.159543 (Hartree/Particle)
 Thermal correction to Energy=                    0.167472
 Thermal correction to Enthalpy=                  0.168416
 Thermal correction to Gibbs Free Energy=         0.126728
 Sum of electronic and zero-point Energies=           -422.988572
 Sum of electronic and thermal Energies=              -422.980644
 Sum of electronic and thermal Enthalpies=            -422.979700
 Sum of electronic and thermal Free Energies=         -423.021387

                     E (Thermal)             CV                S
                      KCal/Mol        Cal/Mol-Kelvin    Cal/Mol-Kelvin
 Total                  105.090             30.793             87.739
 Electronic               0.000              0.000              0.000
 Translational            0.889              2.981             40.409
 Rotational               0.889              2.981             28.491
 Vibrational            103.313             24.831             18.839
 Vibration     1          0.595              1.980              5.054
 Vibration     2          0.629              1.869              2.348
 Vibration     3          0.649              1.804              1.926
 Vibration     4          0.655              1.785              1.831
 Vibration     5          0.702              1.647              1.341
 Vibration     6          0.724              1.584              1.186
 Vibration     7          0.754              1.501              1.018
 Vibration     8          0.846              1.272              0.683
 Vibration     9          0.893              1.167              0.570
 Vibration    10          0.917              1.114              0.520

 Optimization completed.
    -- Stationary point found.
 Normal termination of Gaussian 09 at Mon Jan 27 12:56:09 2020.
