 Gaussian 09, Revision D.01,
 Gaussian 09:  ES64L-G09RevD.01 24-Apr-2013

 -----------------------------
 # b3lyp 6-31G(2df,p) opt Freq
 -----------------------------

 -----
 titel
 -----
 Symbolic Z-matrix:
 Charge =  0 Multiplicity = 1

 SCF Done:  E(RB3LYP) =  -423.181437910     A.U. after   12 cycles
 Optimization completed.
    -- Stationary point found.
 Normal termination of Gaussian 09 at Mon Jan 27 22:06:17 2020.

 ----------------------------------------------------------------------
 #N Geom=AllCheck Guess=TCheck SCRF=Check GenChk RB3LYP/6-31G(2df,p) Fr
 eq
 ----------------------------------------------------------------------

 Structure from the checkpoint file:  "/scratch/puck/g09_34427f8d-39fb-4d1d-a167-366d304171cc/Gau-116805.chk"
 -----
 titel
 -----
 Charge =  0 Multiplicity = 1

                         Standard orientation:
 ---------------------------------------------------------------------
 Center     Atomic      Atomic             Coordinates (Angstroms)
 Number     Number       Type             X           Y           Z
 ---------------------------------------------------------------------
      1          6           0       -2.544548   -0.652850   -0.144339
      2          6           0       -1.161257   -0.290762   -0.677853
      3          6           0       -0.006227   -1.065070   -0.045420
      4          6           0        0.402339   -0.216128    1.149014
      5          8           0       -0.422166    0.934732    1.186246
      6          6           0       -0.635123    1.102641   -0.230735
      7          6           0        0.798383    1.122097   -0.799620
      8          6           0        1.227272   -0.176776   -0.119095
      9          8           0        2.486035   -0.740302   -0.253482
     10          1           0       -2.787388   -1.698721   -0.358718
     11          1           0       -2.588879   -0.506463    0.938105
     12          1           0       -3.319279   -0.030578   -0.605553
     13          1           0       -1.140695   -0.363155   -1.771071
     14          1           0        0.070461   -2.144030   -0.038872
     15          1           0        0.731570   -0.590228    2.107976
     16          1           0       -1.272411    1.967908   -0.404147
     17          1           0        0.825634    1.069589   -1.891174
     18          1           0        1.370699    1.990471   -0.457362
     19          1           0        3.114297   -0.189145    0.226984
 ---------------------------------------------------------------------

 SCF Done:  E(RB3LYP) =  -423.181437910     A.U. after    2 cycles

 The electronic state is 1-A.
 Alpha  occ. eigenvalues --  -19.14966 -19.14053 -10.23514 -10.23216 -10.22528
 Alpha  occ. eigenvalues --  -10.18966 -10.18367 -10.18219 -10.17027  -1.05614
 Alpha  occ. eigenvalues --   -1.02929  -0.85045  -0.76943  -0.74117  -0.65314
 Alpha  occ. eigenvalues --   -0.59169  -0.57564  -0.54969  -0.54230  -0.47764
 Alpha  occ. eigenvalues --   -0.45726  -0.43925  -0.42561  -0.40544  -0.39764
 Alpha  occ. eigenvalues --   -0.38191  -0.38122  -0.36187  -0.33792  -0.33018
 Alpha  occ. eigenvalues --   -0.31483  -0.28930  -0.26531  -0.21911
 Alpha virt. eigenvalues --    0.07470   0.09181   0.12430   0.12924   0.13703
 Alpha virt. eigenvalues --    0.14726   0.15082   0.15508   0.16256   0.17032
 Alpha virt. eigenvalues --    0.18478   0.19413   0.20249   0.21644   0.22407

 Mulliken charges:
               1
     1  C   -0.413422
     2  C    0.023822
     3  C   -0.156697
     4  C    0.003116
     5  O   -0.261248
     6  C    0.043003
     7  C   -0.303070
     8  C    0.347562
     9  O   -0.474661
    10  H    0.111901
    11  H    0.133555
    12  H    0.108794
    13  H    0.074521
    14  H    0.093987
    15  H    0.103982
    16  H    0.079482
    17  H    0.106261
    18  H    0.094760
    19  H    0.284350
 Sum of Mulliken charges =   0.00000

 Dipole moment (field-independent basis, Debye):
    X=              0.3677    Y=              0.3884    Z=             -0.3834  Tot=              0.6581
 Quadrupole moment (field-independent basis, Debye-Ang):
   XX=            -50.6019   YY=            -53.4160   ZZ=            -53.6007
   XY=              3.0798   XZ=              4.5841   YZ=             -3.1746

  Exact polarizability:  83.016   2.413  70.008   2.583  -2.435  66.342
 Approx polarizability: 110.510   0.624 105.750   2.061   0.882 106.007

                      1                      2                      3
                      A                      A                      A
 Frequencies --    189.8624               212.4119               237.8167
 Red. masses --      2.8449                 1.0503                 3.1458
 Frc consts  --      0.0604                 0.0279                 0.1048
 IR Inten    --      2.8657                 0.2330                 1.7898

                      4                      5                      6
                      A                      A                      A
 Frequencies --    278.5783               325.1284               372.1416
 Red. masses --      1.5775                 1.7216                 4.0218
 Frc consts  --      0.0721                 0.1072                 0.3282
 IR Inten    --     39.8124                48.1881                18.3304

                      7                      8                      9
                      A                      A                      A
 Frequencies --    441.2561               508.7821               563.4392
 Red. masses --      2.1681                 3.2813                 4.4657
 Frc consts  --      0.2487                 0.5004                 0.8353
 IR Inten    --      3.7421                 0.1310                 3.1195

                     10                     11                     12
                      A                      A                      A
 Frequencies --    606.9837               701.5620               721.9144
 Red. masses --      4.1784                 4.0793                 3.6145
 Frc consts  --      0.9070                 1.1830                 1.1099
 IR Inten    --      8.0981                 2.5714                 6.0292

                     13                     14                     15
                      A                      A                      A
 Frequencies --    763.1965               853.9005               878.9507
 Red. masses --      2.7058                 2.3508                 2.0943
 Frc consts  --      0.9286                 1.0099                 0.9533
 IR Inten    --      0.7600                 7.5453                24.1108

                     16                     17                     18
                      A                      A                      A
 Frequencies --    912.3563               932.1580               935.3117
 Red. masses --      2.1047                 1.9346                 1.9627
 Frc consts  --      1.0322                 0.9904                 1.0116
 IR Inten    --      8.5762                12.7781                 7.0249

                     19                     20                     21
                      A                      A                      A
 Frequencies --    957.7259               967.0323               999.5368
 Red. masses --      3.3625                 2.7451                 1.5658
 Frc consts  --      1.8172                 1.5125                 0.9217
 IR Inten    --      3.3439                 1.7231                11.0629

                     22                     23                     24
                      A                      A                      A
 Frequencies --   1022.3745              1040.0750              1070.0594
 Red. masses --      1.8062                 1.8039                 2.5746
 Frc consts  --      1.1124                 1.1497                 1.7369
 IR Inten    --     28.9855                 5.9974                11.0487

                     25                     26                     27
                      A                      A                      A
 Frequencies --   1095.0730              1121.8072              1147.7572
 Red. masses --      1.4627                 1.7041                 1.6409
 Frc consts  --      1.0335                 1.2635                 1.2736
 IR Inten    --     29.9976                 4.3735                 4.1872

                     28                     29                     30
                      A                      A                      A
 Frequencies --   1153.9856              1218.9615              1235.9838
 Red. masses --      1.7788                 1.6483                 1.5262
 Frc consts  --      1.3956                 1.4430                 1.3737
 IR Inten    --      3.4216                 3.4109                 2.0573

                     31                     32                     33
                      A                      A                      A
 Frequencies --   1256.6474              1274.4003              1297.3370
 Red. masses --      1.8063                 1.7800                 2.2326
 Frc consts  --      1.6806                 1.7032                 2.2140
 IR Inten    --     39.8322                16.5788                 2.4718

                     34                     35                     36
                      A                      A                      A
 Frequencies --   1321.4169              1343.1619              1377.1338
 Red. masses --      1.6102                 1.5000                 1.5944
 Frc consts  --      1.6566                 1.5944                 1.7815
 IR Inten    --    100.3384                 1.2364                 8.0914

                     37                     38                     39
                      A                      A                      A
 Frequencies --   1405.9219              1438.4343              1491.8457
 Red. masses --      1.2634                 2.5843                 1.2147
 Frc consts  --      1.4714                 3.1504                 1.5928
 IR Inten    --      1.9198                20.4865                 2.3272

                     40                     41                     42
                      A                      A                      A
 Frequencies --   1495.4619              1502.6209              3033.9872
 Red. masses --      1.0490                 1.0502                 1.0378
 Frc consts  --      1.3822                 1.3971                 5.6285
 IR Inten    --      4.6310                 2.8520                29.7094

                     43                     44                     45
                      A                      A                      A
 Frequencies --   3045.4687              3052.7250              3095.7418
 Red. masses --      1.0791                 1.0623                 1.1010
 Frc consts  --      5.8967                 5.8329                 6.2167
 IR Inten    --     19.8210                33.4831                23.7482

                     46                     47                     48
                      A                      A                      A
 Frequencies --   3108.5279              3121.5491              3142.0185
 Red. masses --      1.1054                 1.1003                 1.0909
 Frc consts  --      6.2936                 6.3171                 6.3455
 IR Inten    --     17.8299                21.2726                30.3040

                     49                     50                     51
                      A                      A                      A
 Frequencies --   3209.9904              3224.8715              3788.3872
 Red. masses --      1.0917                 1.0958                 1.0660
 Frc consts  --      6.6278                 6.7143                 9.0138
 IR Inten    --      3.4615                 8.5912                18.6266

 - Thermochemistry -
 -------------------
 Temperature   298.150 Kelvin.  Pressure   1.00000 Atm.
 Atom     1 has atomic number  6 and mass  12.00000

 Molecular mass:   126.06808 amu.
 Principal axes and moments of inertia in atomic units:
                           1         2         3
     Eigenvalues --   560.172991198.737611287.79065
           X            0.99920   0.03857   0.01054
           Y           -0.03636   0.98616  -0.16176
           Z           -0.01663   0.16125   0.98677
 This molecule is an asymmetric top.
 Rotational symmetry number  1.
 Warning -- assumption of classical behavior for rotation
           may cause significant error
 Rotational temperatures (Kelvin)      0.15462     0.07225     0.06726
 Rotational constants (GHZ):           3.22176     1.50553     1.40142
 Zero-point vibrational energy     421646.4 (Joules/Mol)
                                  100.77591 (Kcal/Mol)
 Warning -- explicit consideration of  10 degrees of freedom as
           vibrations may cause significant error
 Vibrational temperatures:    273.17   305.61   342.16   400.81   467.79
          (Kelvin)            535.43   634.87   732.02   810.66   873.31
                             1009.39  1038.67  1098.07  1228.57  1264.61
                             1312.68  1341.17  1345.70  1377.95  1391.34
                             1438.11  1470.97  1496.43  1539.57  1575.56
                             1614.03  1651.36  1660.33  1753.81  1778.30
                             1808.03  1833.58  1866.58  1901.22  1932.51
                             1981.39  2022.81  2069.58  2146.43  2151.63
                             2161.93  4365.23  4381.74  4392.18  4454.08
                             4472.47  4491.21  4520.66  4618.45  4639.86
                             5450.64

 Zero-point correction=                           0.160597 (Hartree/Particle)
 Thermal correction to Energy=                    0.168056
 Thermal correction to Enthalpy=                  0.169000
 Thermal correction to Gibbs Free Energy=         0.129264
 Sum of electronic and zero-point Energies=           -423.020841
 Sum of electronic and thermal Energies=              -423.013382
 Sum of electronic and thermal Enthalpies=            -423.012438
 Sum of electronic and thermal Free Energies=         -423.052174

                     E (Thermal)             CV                S
                      KCal/Mol        Cal/Mol-Kelvin    Cal/Mol-Kelvin
 Total                  105.457             30.744             83.631
 Electronic               0.000              0.000              0.000
 Translational            0.889              2.981             40.409
 Rotational               0.889              2.981             28.249
 Vibrational            103.679             24.782             14.974
 Vibration     1          0.633              1.854              2.229
 Vibration     2          0.643              1.822              2.023
 Vibration     3          0.656              1.783              1.819
 Vibration     4          0.679              1.713              1.542
 Vibration     5          0.709              1.625              1.284
 Vibration     6          0.744              1.529              1.071
 Vibration     7          0.801              1.380              0.823
 Vibration     8          0.864              1.231              0.637
 Vibration     9          0.919              1.110              0.517
 Vibration    10          0.966              1.017              0.438

 Optimization completed.
    -- Stationary point found.
 Normal termination of Gaussian 09 at Mon Jan 27 23:03:23 2020.
