 Gaussian 09, Revision D.01,
 Gaussian 09:  ES64L-G09RevD.01 24-Apr-2013

 -----------------------------
 # b3lyp 6-31G(2df,p) opt Freq
 -----------------------------

 -----
 titel
 -----
 Symbolic Z-matrix:
 Charge =  0 Multiplicity = 1

 SCF Done:  E(RB3LYP) =  -423.168868087     A.U. after   14 cycles
 Optimization completed.
    -- Stationary point found.
 Normal termination of Gaussian 09 at Tue Jan 28 02:08:49 2020.

 ----------------------------------------------------------------------
 #N Geom=AllCheck Guess=TCheck SCRF=Check GenChk RB3LYP/6-31G(2df,p) Fr
 eq
 ----------------------------------------------------------------------

 Structure from the checkpoint file:  "/scratch/puck/g09_4b0c19af-323e-43d7-a58b-904ef9901bae/Gau-76035.chk"
 -----
 titel
 -----
 Charge =  0 Multiplicity = 1

                         Standard orientation:
 ---------------------------------------------------------------------
 Center     Atomic      Atomic             Coordinates (Angstroms)
 Number     Number       Type             X           Y           Z
 ---------------------------------------------------------------------
      1          6           0        2.967182    0.524655    0.128096
      2          6           0        1.636233   -0.115067    0.417437
      3          8           0        1.259945   -1.230539   -0.411512
      4          6           0        0.498030   -0.023477   -0.504540
      5          6           0       -0.930150   -0.099199   -0.050698
      6          6           0       -1.800075   -1.254906   -0.548367
      7          6           0       -1.369973   -1.224642    0.876205
      8          6           0       -1.617978    1.202563    0.107083
      9          8           0       -1.105100    2.277712   -0.089454
     10          1           0        3.785642   -0.091821    0.514005
     11          1           0        3.110822    0.651876   -0.948078
     12          1           0        3.027144    1.507219    0.607594
     13          1           0        1.404396   -0.267523    1.472613
     14          1           0        0.646839    0.533080   -1.429889
     15          1           0       -2.835385   -1.038649   -0.789548
     16          1           0       -1.307358   -1.954799   -1.213009
     17          1           0       -2.103019   -0.989029    1.640255
     18          1           0       -0.583627   -1.907072    1.175617
     19          1           0       -2.683830    1.119773    0.426869
 ---------------------------------------------------------------------

 SCF Done:  E(RB3LYP) =  -423.168868087     A.U. after    1 cycles

 The electronic state is 1-A.
 Alpha  occ. eigenvalues --  -19.15324 -19.13701 -10.27197 -10.24061 -10.23976
 Alpha  occ. eigenvalues --  -10.21524 -10.20781 -10.20712 -10.18406  -1.07259
 Alpha  occ. eigenvalues --   -1.04494  -0.88302  -0.74701  -0.70372  -0.64597
 Alpha  occ. eigenvalues --   -0.62307  -0.60022  -0.55628  -0.50705  -0.50096
 Alpha  occ. eigenvalues --   -0.46942  -0.45890  -0.43035  -0.42122  -0.40242
 Alpha  occ. eigenvalues --   -0.39868  -0.38327  -0.37775  -0.36711  -0.33431
 Alpha  occ. eigenvalues --   -0.31913  -0.27908  -0.27475  -0.25197
 Alpha virt. eigenvalues --   -0.02067   0.09401   0.09524   0.10122   0.10753
 Alpha virt. eigenvalues --    0.11414   0.13049   0.14335   0.15139   0.16220
 Alpha virt. eigenvalues --    0.17434   0.17867   0.18246   0.20037   0.22032

 Mulliken charges:
               1
     1  C   -0.417093
     2  C    0.080381
     3  O   -0.272927
     4  C   -0.030565
     5  C    0.222008
     6  C   -0.302248
     7  C   -0.308777
     8  C    0.109408
     9  O   -0.271615
    10  H    0.127988
    11  H    0.129515
    12  H    0.131792
    13  H    0.088785
    14  H    0.103272
    15  H    0.124923
    16  H    0.146034
    17  H    0.122681
    18  H    0.148503
    19  H    0.067934
 Sum of Mulliken charges =   0.00000

 Dipole moment (field-independent basis, Debye):
    X=             -0.5651    Y=             -1.2783    Z=              0.8192  Tot=              1.6200
 Quadrupole moment (field-independent basis, Debye-Ang):
   XX=            -47.8896   YY=            -62.3928   ZZ=            -50.9366
   XY=              4.6172   XZ=              0.8513   YZ=             -0.4963

  Exact polarizability:  88.909   5.162  77.860   1.197  -1.323  64.099
 Approx polarizability: 112.931   8.020 127.055   2.347  -2.394  99.939

                      1                      2                      3
                      A                      A                      A
 Frequencies --     52.2895               124.9565               143.5938
 Red. masses --      4.1449                 3.9081                 3.3331
 Frc consts  --      0.0067                 0.0360                 0.0405
 IR Inten    --      4.8595                 5.5217                 3.3574

                      4                      5                      6
                      A                      A                      A
 Frequencies --    177.1199               204.8718               239.1536
 Red. masses --      1.7497                 1.3733                 4.1063
 Frc consts  --      0.0323                 0.0340                 0.1384
 IR Inten    --      2.0305                 0.7448                 1.6399

                      7                      8                      9
                      A                      A                      A
 Frequencies --    283.6766               319.6755               406.4756
 Red. masses --      3.4694                 1.8840                 2.6159
 Frc consts  --      0.1645                 0.1134                 0.2546
 IR Inten    --      1.6316                 0.6217                 1.0747

                     10                     11                     12
                      A                      A                      A
 Frequencies --    465.8704               488.3710               611.5626
 Red. masses --      4.7322                 3.6696                 5.0974
 Frc consts  --      0.6051                 0.5157                 1.1233
 IR Inten    --      5.9184                 3.3996                26.0789

                     13                     14                     15
                      A                      A                      A
 Frequencies --    747.7302               792.3211               810.1904
 Red. masses --      4.0131                 1.0471                 3.3830
 Frc consts  --      1.3220                 0.3873                 1.3084
 IR Inten    --     11.1999                 0.7810                 2.2426

                     16                     17                     18
                      A                      A                      A
 Frequencies --    846.0965               884.6369               928.7197
 Red. masses --      3.3673                 2.9567                 1.7550
 Frc consts  --      1.4203                 1.3633                 0.8919
 IR Inten    --      2.6026                22.7361                57.0135

                     19                     20                     21
                      A                      A                      A
 Frequencies --    951.4465               992.1478              1030.0676
 Red. masses --      1.2907                 2.6042                 1.7994
 Frc consts  --      0.6884                 1.5104                 1.1249
 IR Inten    --      0.0979                13.5793                31.1087

                     22                     23                     24
                      A                      A                      A
 Frequencies --   1051.7820              1062.0475              1074.2850
 Red. masses --      1.6765                 1.3342                 1.7626
 Frc consts  --      1.0927                 0.8867                 1.1985
 IR Inten    --      0.4544                11.2095                 3.5150

                     25                     26                     27
                      A                      A                      A
 Frequencies --   1085.3778              1102.9709              1166.2567
 Red. masses --      1.6056                 1.5323                 1.5190
 Frc consts  --      1.1144                 1.0983                 1.2173
 IR Inten    --      5.0917                 0.7514                 2.8688

                     28                     29                     30
                      A                      A                      A
 Frequencies --   1175.5665              1204.0530              1270.8555
 Red. masses --      1.7352                 1.2931                 1.8406
 Frc consts  --      1.4128                 1.1045                 1.7515
 IR Inten    --      1.1968                 0.0273                11.9017

                     31                     32                     33
                      A                      A                      A
 Frequencies --   1301.6407              1328.0829              1373.7782
 Red. masses --      2.1022                 1.7909                 1.5924
 Frc consts  --      2.0985                 1.8611                 1.7707
 IR Inten    --     13.2179                 3.4483                18.0231

                     34                     35                     36
                      A                      A                      A
 Frequencies --   1411.0347              1437.0455              1454.2102
 Red. masses --      1.2798                 1.2618                 1.0941
 Frc consts  --      1.5013                 1.5352                 1.3632
 IR Inten    --      5.6550                 4.9868                 4.3235

                     37                     38                     39
                      A                      A                      A
 Frequencies --   1475.1139              1489.2138              1490.8025
 Red. masses --      1.2506                 1.2016                 1.2413
 Frc consts  --      1.6033                 1.5701                 1.6255
 IR Inten    --      4.8151                 6.3894                 3.5603

                     40                     41                     42
                      A                      A                      A
 Frequencies --   1512.2003              1810.4985              2851.9667
 Red. masses --      1.9792                10.6131                 1.0822
 Frc consts  --      2.6666                20.4969                 5.1862
 IR Inten    --      8.2980               224.4243               112.9669

                     43                     44                     45
                      A                      A                      A
 Frequencies --   3038.5279              3096.3774              3105.0363
 Red. masses --      1.0354                 1.0884                 1.1009
 Frc consts  --      5.6322                 6.1484                 6.2534
 IR Inten    --     18.4112                 8.3182                14.6181

                     46                     47                     48
                      A                      A                      A
 Frequencies --   3112.0019              3126.4882              3138.2950
 Red. masses --      1.0877                 1.0999                 1.0526
 Frc consts  --      6.2065                 6.3348                 6.1078
 IR Inten    --     15.7902                31.6053                 9.7521

                     49                     50                     51
                      A                      A                      A
 Frequencies --   3140.0273              3226.2806              3239.6889
 Red. masses --      1.0564                 1.1174                 1.1160
 Frc consts  --      6.1370                 6.8528                 6.9013
 IR Inten    --      8.8216                 0.5612                 3.1606

 - Thermochemistry -
 -------------------
 Temperature   298.150 Kelvin.  Pressure   1.00000 Atm.
 Atom     1 has atomic number  6 and mass  12.00000

 Molecular mass:   126.06808 amu.
 Principal axes and moments of inertia in atomic units:
                           1         2         3
     Eigenvalues --   755.104301359.542391876.57942
           X            0.99758   0.06955   0.00145
           Y           -0.06954   0.99755  -0.00756
           Z           -0.00198   0.00744   0.99997
 This molecule is an asymmetric top.
 Rotational symmetry number  1.
 Warning -- assumption of classical behavior for rotation
           may cause significant error
 Rotational temperatures (Kelvin)      0.11470     0.06371     0.04616
 Rotational constants (GHZ):           2.39006     1.32746     0.96172
 Zero-point vibrational energy     411829.3 (Joules/Mol)
                                   98.42956 (Kcal/Mol)
 Warning -- explicit consideration of  12 degrees of freedom as
           vibrations may cause significant error
 Vibrational temperatures:     75.23   179.78   206.60   254.84   294.76
          (Kelvin)            344.09   408.15   459.94   584.83   670.28
                              702.66   879.90  1075.82  1139.97  1165.68
                             1217.34  1272.79  1336.22  1368.92  1427.48
                             1482.04  1513.28  1528.05  1545.65  1561.61
                             1586.93  1677.98  1691.38  1732.36  1828.48
                             1872.77  1910.81  1976.56  2030.16  2067.59
                             2092.28  2122.36  2142.64  2144.93  2175.72
                             2604.90  4103.34  4371.76  4454.99  4467.45
                             4477.47  4498.31  4515.30  4517.79  4641.89
                             4661.18

 Zero-point correction=                           0.156857 (Hartree/Particle)
 Thermal correction to Energy=                    0.166105
 Thermal correction to Enthalpy=                  0.167050
 Thermal correction to Gibbs Free Energy=         0.122419
 Sum of electronic and zero-point Energies=           -423.012011
 Sum of electronic and thermal Energies=              -423.002763
 Sum of electronic and thermal Enthalpies=            -423.001818
 Sum of electronic and thermal Free Energies=         -423.046449

                     E (Thermal)             CV                S
                      KCal/Mol        Cal/Mol-Kelvin    Cal/Mol-Kelvin
 Total                  104.233             33.770             93.933
 Electronic               0.000              0.000              0.000
 Translational            0.889              2.981             40.409
 Rotational               0.889              2.981             29.045
 Vibrational            102.455             27.808             24.480
 Vibration     1          0.596              1.977              4.729
 Vibration     2          0.610              1.928              3.022
 Vibration     3          0.616              1.910              2.755
 Vibration     4          0.628              1.871              2.359
 Vibration     5          0.640              1.833              2.089
 Vibration     6          0.657              1.781              1.809
 Vibration     7          0.682              1.704              1.511
 Vibration     8          0.706              1.636              1.312
 Vibration     9          0.771              1.456              0.939
 Vibration    10          0.823              1.326              0.749
 Vibration    11          0.844              1.276              0.688
 Vibration    12          0.971              1.007              0.430

 Normal termination of Gaussian 09 at Tue Jan 28 02:48:23 2020.
