 Gaussian 09, Revision D.01,
 Gaussian 09:  ES64L-G09RevD.01 24-Apr-2013

 -----------------------------
 # b3lyp 6-31G(2df,p) opt Freq
 -----------------------------

 -----
 titel
 -----
 Symbolic Z-matrix:
 Charge =  0 Multiplicity = 1

 SCF Done:  E(RB3LYP) =  -423.121111531     A.U. after   14 cycles
 Optimization completed.
    -- Stationary point found.
 Normal termination of Gaussian 09 at Mon Jan 27 16:38:59 2020.

 ----------------------------------------------------------------------
 #N Geom=AllCheck Guess=TCheck SCRF=Check GenChk RB3LYP/6-31G(2df,p) Fr
 eq
 ----------------------------------------------------------------------

 Structure from the checkpoint file:  "/scratch/puck/g09_d3711908-ca0e-4d90-84a6-c8236401ea5d/Gau-57320.chk"
 -----
 titel
 -----
 Charge =  0 Multiplicity = 1

                         Standard orientation:
 ---------------------------------------------------------------------
 Center     Atomic      Atomic             Coordinates (Angstroms)
 Number     Number       Type             X           Y           Z
 ---------------------------------------------------------------------
      1          8           0        1.065898    1.742421   -0.109811
      2          6           0        0.920245    0.337861   -0.122018
      3          6           0       -0.487480   -0.109330   -0.516432
      4          6           0       -1.583529    0.389220    0.448920
      5          6           0       -2.907016   -0.115699    0.108551
      6          6           0       -3.987344   -0.546435   -0.193707
      7          6           0        1.550450   -0.437679    1.070006
      8          8           0        2.402008   -1.179442    0.176153
      9          6           0        2.043165   -0.334282   -0.936630
     10          1           0        0.473590    2.113737    0.552202
     11          1           0       -0.705327    0.255607   -1.526019
     12          1           0       -0.513109   -1.203373   -0.554188
     13          1           0       -1.336536    0.091859    1.477455
     14          1           0       -1.611475    1.487137    0.439989
     15          1           0       -4.946722   -0.921501   -0.451054
     16          1           0        2.122156    0.213244    1.744735
     17          1           0        0.897484   -1.096437    1.655169
     18          1           0        2.841938    0.367880   -1.204174
     19          1           0        1.743812   -0.913930   -1.816986
 ---------------------------------------------------------------------

 SCF Done:  E(RB3LYP) =  -423.121111531     A.U. after    1 cycles

 The electronic state is 1-A.
 Alpha  occ. eigenvalues --  -19.15122 -19.13586 -10.24895 -10.23027 -10.22859
 Alpha  occ. eigenvalues --  -10.22152 -10.19785 -10.18661 -10.17538  -1.05184
 Alpha  occ. eigenvalues --   -1.02311  -0.81675  -0.75502  -0.71251  -0.69559
 Alpha  occ. eigenvalues --   -0.64513  -0.56446  -0.53439  -0.52349  -0.49621
 Alpha  occ. eigenvalues --   -0.47878  -0.47495  -0.44716  -0.42027  -0.41150
 Alpha  occ. eigenvalues --   -0.39654  -0.38294  -0.36873  -0.33788  -0.31434
 Alpha  occ. eigenvalues --   -0.27597  -0.26977  -0.26623  -0.25076
 Alpha virt. eigenvalues --    0.03963   0.04924   0.06197   0.08854   0.10538
 Alpha virt. eigenvalues --    0.12116   0.12503   0.12737   0.13724   0.15118
 Alpha virt. eigenvalues --    0.16490   0.16737   0.18989   0.20002   0.20902

 Mulliken charges:
               1
     1  O   -0.478742
     2  C    0.344089
     3  C   -0.231732
     4  C   -0.390726
     5  C    0.290459
     6  C   -0.422865
     7  C   -0.121730
     8  O   -0.271462
     9  C   -0.112821
    10  H    0.283964
    11  H    0.119592
    12  H    0.123945
    13  H    0.133800
    14  H    0.126019
    15  H    0.197426
    16  H    0.098439
    17  H    0.098389
    18  H    0.109897
    19  H    0.104059
 Sum of Mulliken charges =   0.00000

 Dipole moment (field-independent basis, Debye):
    X=             -1.4998    Y=              0.8460    Z=              0.6156  Tot=              1.8287
 Quadrupole moment (field-independent basis, Debye-Ang):
   XX=            -57.4328   YY=            -55.5920   ZZ=            -50.7018
   XY=              2.7007   XZ=              0.2537   YZ=              3.1023

  Exact polarizability: 100.234   7.167  64.720   2.230   2.762  67.187
 Approx polarizability: 132.777  13.825 100.787   6.634   4.648  99.790

                      1                      2                      3
                      A                      A                      A
 Frequencies --     55.0695                77.6967               110.6073
 Red. masses --      4.7391                 3.1535                 2.4676
 Frc consts  --      0.0085                 0.0112                 0.0178
 IR Inten    --      1.4858                 0.7778                 4.0262

                      4                      5                      6
                      A                      A                      A
 Frequencies --    128.1089               212.7916               227.3660
 Red. masses --      3.2378                 2.7404                 1.3279
 Frc consts  --      0.0313                 0.0731                 0.0404
 IR Inten    --      2.6536                35.0282                74.0281

                      7                      8                      9
                      A                      A                      A
 Frequencies --    324.8113               335.2398               362.5511
 Red. masses --      2.3975                 2.7827                 2.7668
 Frc consts  --      0.1490                 0.1843                 0.2143
 IR Inten    --     11.2404                 5.3684                 2.0723

                     10                     11                     12
                      A                      A                      A
 Frequencies --    420.1958               475.5061               505.6532
 Red. masses --      3.8589                 3.3183                 4.2405
 Frc consts  --      0.4014                 0.4421                 0.6388
 IR Inten    --     13.8268                 5.5265                 5.2775

                     13                     14                     15
                      A                      A                      A
 Frequencies --    624.9279               640.9611               698.6074
 Red. masses --      1.2023                 1.2210                 3.3328
 Frc consts  --      0.2766                 0.2956                 0.9583
 IR Inten    --     43.3075                41.6259                 2.6306

                     16                     17                     18
                      A                      A                      A
 Frequencies --    777.0370               837.9995               922.3869
 Red. masses --      1.3741                 3.2231                 2.0247
 Frc consts  --      0.4888                 1.3336                 1.0149
 IR Inten    --      1.6648                 5.6808                15.4248

                     19                     20                     21
                      A                      A                      A
 Frequencies --    938.9859               964.5580               980.3274
 Red. masses --      2.0761                 1.8700                 2.7151
 Frc consts  --      1.0785                 1.0251                 1.5373
 IR Inten    --      1.3566                 7.8411                 4.4702

                     22                     23                     24
                      A                      A                      A
 Frequencies --    999.2109              1026.4303              1035.2875
 Red. masses --      3.2676                 3.5721                 8.1105
 Frc consts  --      1.9222                 2.2173                 5.1218
 IR Inten    --      6.6830                27.6587                63.9360

                     25                     26                     27
                      A                      A                      A
 Frequencies --   1072.6883              1148.4339              1156.0998
 Red. masses --      2.4265                 1.8024                 1.1119
 Frc consts  --      1.6450                 1.4006                 0.8756
 IR Inten    --     39.6236                38.3488                 1.3777

                     28                     29                     30
                      A                      A                      A
 Frequencies --   1166.9662              1240.2127              1271.8638
 Red. masses --      1.2965                 1.6179                 2.0872
 Frc consts  --      1.0402                 1.4662                 1.9893
 IR Inten    --      0.0553                21.4215                 6.2411

                     31                     32                     33
                      A                      A                      A
 Frequencies --   1275.2432              1304.3721              1326.0886
 Red. masses --      1.3308                 1.2968                 1.1880
 Frc consts  --      1.2751                 1.2999                 1.2308
 IR Inten    --     52.6245                 2.4915                 4.7599

                     34                     35                     36
                      A                      A                      A
 Frequencies --   1331.7352              1381.5183              1404.4913
 Red. masses --      1.5305                 1.5013                 1.8433
 Frc consts  --      1.5992                 1.6882                 2.1424
 IR Inten    --     21.3817                 8.5567                 9.6010

                     37                     38                     39
                      A                      A                      A
 Frequencies --   1471.9135              1485.3550              1499.5173
 Red. masses --      1.0794                 1.0968                 1.0799
 Frc consts  --      1.3779                 1.4257                 1.4306
 IR Inten    --      5.4267                 2.5536                 0.5802

                     40                     41                     42
                      A                      A                      A
 Frequencies --   1525.8368              2241.9123              3003.6472
 Red. masses --      1.1144                 5.9247                 1.0543
 Frc consts  --      1.5286                17.5451                 5.6044
 IR Inten    --      2.3456                 3.4112                45.5337

                     43                     44                     45
                      A                      A                      A
 Frequencies --   3007.0210              3023.8982              3036.6443
 Red. masses --      1.0566                 1.0565                 1.1003
 Frc consts  --      5.6290                 5.6917                 5.9779
 IR Inten    --     53.6899                23.7838                 7.4192

                     46                     47                     48
                      A                      A                      A
 Frequencies --   3046.5218              3058.2315              3075.8073
 Red. masses --      1.0608                 1.1100                 1.1112
 Frc consts  --      5.8007                 6.1164                 6.1941
 IR Inten    --     14.1018                41.3675                36.4501

                     49                     50                     51
                      A                      A                      A
 Frequencies --   3094.8122              3507.4003              3813.8076
 Red. masses --      1.1049                 1.1625                 1.0658
 Frc consts  --      6.2350                 8.4261                 9.1339
 IR Inten    --     22.6572                71.2244                13.3471

 - Thermochemistry -
 -------------------
 Temperature   298.150 Kelvin.  Pressure   1.00000 Atm.
 Atom     1 has atomic number  8 and mass  15.99491

 Molecular mass:   126.06808 amu.
 Principal axes and moments of inertia in atomic units:
                           1         2         3
     Eigenvalues --   501.359622209.516692372.35262
           X            0.99999   0.00498  -0.00020
           Y           -0.00496   0.99859   0.05278
           Z            0.00047  -0.05278   0.99861
 This molecule is an asymmetric top.
 Rotational symmetry number  1.
 Warning -- assumption of classical behavior for rotation
           may cause significant error
 Rotational temperatures (Kelvin)      0.17276     0.03920     0.03651
 Rotational constants (GHZ):           3.59969     0.81680     0.76074
 Zero-point vibrational energy     410644.2 (Joules/Mol)
                                   98.14633 (Kcal/Mol)
 Warning -- explicit consideration of  12 degrees of freedom as
           vibrations may cause significant error
 Vibrational temperatures:     79.23   111.79   159.14   184.32   306.16
          (Kelvin)            327.13   467.33   482.33   521.63   604.57
                              684.15   727.52   899.13   922.20  1005.14
                             1117.98  1205.69  1327.11  1350.99  1387.78
                             1410.47  1437.64  1476.80  1489.55  1543.36
                             1652.34  1663.37  1679.00  1784.39  1829.93
                             1834.79  1876.70  1907.94  1916.07  1987.69
                             2020.75  2117.75  2137.09  2157.47  2195.34
                             3225.61  4321.57  4326.43  4350.71  4369.05
                             4383.26  4400.11  4425.40  4452.74  5046.36
                             5487.21

 Zero-point correction=                           0.156406 (Hartree/Particle)
 Thermal correction to Energy=                    0.166192
 Thermal correction to Enthalpy=                  0.167137
 Thermal correction to Gibbs Free Energy=         0.121013
 Sum of electronic and zero-point Energies=           -422.964705
 Sum of electronic and thermal Energies=              -422.954919
 Sum of electronic and thermal Enthalpies=            -422.953975
 Sum of electronic and thermal Free Energies=         -423.000098

                     E (Thermal)             CV                S
                      KCal/Mol        Cal/Mol-Kelvin    Cal/Mol-Kelvin
 Total                  104.287             35.431             97.074
 Electronic               0.000              0.000              0.000
 Translational            0.889              2.981             40.409
 Rotational               0.889              2.981             29.354
 Vibrational            102.510             29.469             27.312
 Vibration     1          0.596              1.976              4.627
 Vibration     2          0.599              1.964              3.948
 Vibration     3          0.606              1.941              3.258
 Vibration     4          0.611              1.925              2.974
 Vibration     5          0.644              1.821              2.020
 Vibration     6          0.651              1.799              1.900
 Vibration     7          0.709              1.626              1.286
 Vibration     8          0.716              1.605              1.235
 Vibration     9          0.736              1.549              1.111
 Vibration    10          0.783              1.426              0.891
 Vibration    11          0.832              1.304              0.722
 Vibration    12          0.861              1.237              0.644

 Optimization completed.
    -- Stationary point found.
 Normal termination of Gaussian 09 at Mon Jan 27 17:15:01 2020.
