 Gaussian 09, Revision D.01,
 Gaussian 09:  ES64L-G09RevD.01 24-Apr-2013

 -----------------------------
 # b3lyp 6-31G(2df,p) opt Freq
 -----------------------------

 -----
 titel
 -----
 Symbolic Z-matrix:
 Charge =  0 Multiplicity = 1

 SCF Done:  E(RB3LYP) =  -423.115287545     A.U. after   14 cycles
 Optimization completed.
    -- Stationary point found.
 Normal termination of Gaussian 09 at Tue Jan 28 12:11:02 2020.

 ----------------------------------------------------------------------
 #N Geom=AllCheck Guess=TCheck SCRF=Check GenChk RB3LYP/6-31G(2df,p) Fr
 eq
 ----------------------------------------------------------------------

 Structure from the checkpoint file:  "/scratch/puck/g09_50dfd7c4-7efc-4d47-8dc9-44a4ff31cf34/Gau-117631.chk"
 -----
 titel
 -----
 Charge =  0 Multiplicity = 1

                         Standard orientation:
 ---------------------------------------------------------------------
 Center     Atomic      Atomic             Coordinates (Angstroms)
 Number     Number       Type             X           Y           Z
 ---------------------------------------------------------------------
      1          8           0        3.160298   -0.561923   -0.159214
      2          6           0        1.971037    0.029844    0.341323
      3          6           0        0.831511   -0.406393   -0.571804
      4          6           0       -0.554268    0.084769   -0.121921
      5          6           0       -1.714867   -0.602064   -0.906475
      6          8           0       -2.027966   -1.453448    0.208897
      7          6           0       -1.148295   -0.720961    1.077801
      8          6           0       -0.631477    1.532074   -0.021863
      9          6           0       -0.709342    2.729909    0.056574
     10          1           0        3.897312   -0.252656    0.375171
     11          1           0        1.770533   -0.294707    1.375980
     12          1           0        2.038130    1.127201    0.350697
     13          1           0        1.034547   -0.043914   -1.585628
     14          1           0        0.814171   -1.501222   -0.616676
     15          1           0       -2.541466    0.072071   -1.160102
     16          1           0       -1.414552   -1.170808   -1.793874
     17          1           0       -1.695889   -0.105614    1.801446
     18          1           0       -0.448575   -1.377818    1.607120
     19          1           0       -0.778664    3.787362    0.126598
 ---------------------------------------------------------------------

 SCF Done:  E(RB3LYP) =  -423.115287545     A.U. after    1 cycles

 The electronic state is 1-A.
 Alpha  occ. eigenvalues --  -19.13757 -19.13621 -10.23717 -10.23657 -10.22993
 Alpha  occ. eigenvalues --  -10.22605 -10.19076 -10.18694 -10.17972  -1.04542
 Alpha  occ. eigenvalues --   -1.01731  -0.82079  -0.74477  -0.70923  -0.69780
 Alpha  occ. eigenvalues --   -0.61611  -0.58822  -0.53151  -0.51860  -0.50425
 Alpha  occ. eigenvalues --   -0.47652  -0.47046  -0.45124  -0.41752  -0.39680
 Alpha  occ. eigenvalues --   -0.38454  -0.37741  -0.34749  -0.32908  -0.32294
 Alpha  occ. eigenvalues --   -0.27328  -0.26829  -0.26443  -0.25301
 Alpha virt. eigenvalues --    0.03701   0.04502   0.07414   0.08274   0.09383
 Alpha virt. eigenvalues --    0.11878   0.12921   0.13757   0.14161   0.16169
 Alpha virt. eigenvalues --    0.17738   0.18010   0.18734   0.20014   0.20833

 Mulliken charges:
               1
     1  O   -0.418456
     2  C   -0.086105
     3  C   -0.243684
     4  C    0.070178
     5  C   -0.113597
     6  O   -0.267663
     7  C   -0.106691
     8  C    0.281694
     9  C   -0.457375
    10  H    0.287430
    11  H    0.085113
    12  H    0.103468
    13  H    0.115644
    14  H    0.119027
    15  H    0.107917
    16  H    0.109439
    17  H    0.108202
    18  H    0.108352
    19  H    0.197108
 Sum of Mulliken charges =   0.00000

 Dipole moment (field-independent basis, Debye):
    X=              1.1776    Y=              1.7279    Z=              0.7801  Tot=              2.2318
 Quadrupole moment (field-independent basis, Debye-Ang):
   XX=            -53.8167   YY=            -53.0293   ZZ=            -51.4550
   XY=             -0.9320   XZ=              5.1575   YZ=              0.3718

  Exact polarizability:  76.727  -2.074  89.015   2.124   1.831  65.819
 Approx polarizability:  98.115  -1.914 141.246   1.615   3.459  97.422

                      1                      2                      3
                      A                      A                      A
 Frequencies --     72.0605                92.7490               110.9255
 Red. masses --      5.5643                 3.5736                 2.3806
 Frc consts  --      0.0170                 0.0181                 0.0173
 IR Inten    --      3.0524                 3.9155                 6.4347

                      4                      5                      6
                      A                      A                      A
 Frequencies --    140.1886               181.7864               211.5623
 Red. masses --      2.9589                 3.2175                 2.7913
 Frc consts  --      0.0343                 0.0626                 0.0736
 IR Inten    --      0.5010                 1.3492                 5.2996

                      7                      8                      9
                      A                      A                      A
 Frequencies --    260.2246               330.4604               371.4439
 Red. masses --      1.0956                 2.8335                 2.9011
 Frc consts  --      0.0437                 0.1823                 0.2358
 IR Inten    --     97.8598                 2.9167                 3.1076

                     10                     11                     12
                      A                      A                      A
 Frequencies --    398.5401               525.5180               535.5216
 Red. masses --      3.7533                 5.9526                 5.2692
 Frc consts  --      0.3512                 0.9686                 0.8903
 IR Inten    --      2.5819                 3.5662                 4.7691

                     13                     14                     15
                      A                      A                      A
 Frequencies --    627.3308               634.0707               669.5109
 Red. masses --      1.2546                 1.2187                 3.5181
 Frc consts  --      0.2909                 0.2887                 0.9291
 IR Inten    --     37.6365                40.5827                17.8812

                     16                     17                     18
                      A                      A                      A
 Frequencies --    804.2749               845.4189               918.8255
 Red. masses --      1.2080                 3.6582                 1.9380
 Frc consts  --      0.4604                 1.5405                 0.9640
 IR Inten    --      0.2946                11.6360                 7.2633

                     19                     20                     21
                      A                      A                      A
 Frequencies --    968.5068               973.1795               992.6643
 Red. masses --      2.3298                 1.5010                 3.8219
 Frc consts  --      1.2876                 0.8376                 2.2189
 IR Inten    --     16.0016                 0.9076                 4.2195

                     22                     23                     24
                      A                      A                      A
 Frequencies --   1026.6321              1045.7803              1065.7777
 Red. masses --      2.7050                 9.9516                 3.1759
 Frc consts  --      1.6798                 6.4125                 2.1255
 IR Inten    --     11.2550                80.3980                76.0127

                     25                     26                     27
                      A                      A                      A
 Frequencies --   1103.4254              1160.6891              1164.6766
 Red. masses --      3.6644                 1.2041                 1.2298
 Frc consts  --      2.6287                 0.9557                 0.9829
 IR Inten    --     18.3573                 1.2307                 0.9655

                     28                     29                     30
                      A                      A                      A
 Frequencies --   1182.6078              1228.6851              1252.7982
 Red. masses --      2.1032                 1.6388                 1.2196
 Frc consts  --      1.7331                 1.4576                 1.1278
 IR Inten    --      6.2607                 1.3703                35.2469

                     31                     32                     33
                      A                      A                      A
 Frequencies --   1283.2383              1307.1359              1324.9664
 Red. masses --      1.8384                 1.2528                 1.2045
 Frc consts  --      1.7836                 1.2612                 1.2459
 IR Inten    --     12.6142                 0.5225                 3.9230

                     34                     35                     36
                      A                      A                      A
 Frequencies --   1341.6031              1374.7349              1464.1743
 Red. masses --      1.4696                 1.4538                 1.4489
 Frc consts  --      1.5585                 1.6188                 1.8300
 IR Inten    --      9.5075                 4.1991                 3.3963

                     37                     38                     39
                      A                      A                      A
 Frequencies --   1486.8626              1509.1283              1528.2423
 Red. masses --      1.0902                 1.0774                 1.0855
 Frc consts  --      1.4200                 1.4457                 1.4937
 IR Inten    --      1.8966                 0.8380                 4.0830

                     40                     41                     42
                      A                      A                      A
 Frequencies --   1533.6936              2230.3059              2963.3671
 Red. masses --      1.1079                 5.9681                 1.0645
 Frc consts  --      1.5355                17.4910                 5.5079
 IR Inten    --      0.3892                 2.0287                47.7483

                     43                     44                     45
                      A                      A                      A
 Frequencies --   3014.0465              3015.4662              3024.9797
 Red. masses --      1.0741                 1.0717                 1.0571
 Frc consts  --      5.7489                 5.7417                 5.6992
 IR Inten    --     51.4702                85.9318                 4.4658

                     46                     47                     48
                      A                      A                      A
 Frequencies --   3039.9359              3070.0649              3072.8508
 Red. masses --      1.0590                 1.1113                 1.1127
 Frc consts  --      5.7661                 6.1715                 6.1901
 IR Inten    --     16.0887                19.5337                54.3757

                     49                     50                     51
                      A                      A                      A
 Frequencies --   3087.6367              3500.2929              3832.4834
 Red. masses --      1.1053                 1.1611                 1.0664
 Frc consts  --      6.2084                 8.3813                 9.2286
 IR Inten    --     28.9098                71.4955                22.8417

 - Thermochemistry -
 -------------------
 Temperature   298.150 Kelvin.  Pressure   1.00000 Atm.
 Atom     1 has atomic number  8 and mass  15.99491

 Molecular mass:   126.06808 amu.
 Principal axes and moments of inertia in atomic units:
                           1         2         3
     Eigenvalues --   844.718481530.839702047.22650
           X            0.99991  -0.00605   0.01202
           Y            0.00597   0.99996   0.00664
           Z           -0.01206  -0.00657   0.99991
 This molecule is an asymmetric top.
 Rotational symmetry number  1.
 Warning -- assumption of classical behavior for rotation
           may cause significant error
 Rotational temperatures (Kelvin)      0.10254     0.05658     0.04231
 Rotational constants (GHZ):           2.13650     1.17892     0.88155
 Zero-point vibrational energy     412119.8 (Joules/Mol)
                                   98.49899 (Kcal/Mol)
 Warning -- explicit consideration of  12 degrees of freedom as
           vibrations may cause significant error
 Vibrational temperatures:    103.68   133.44   159.60   201.70   261.55
          (Kelvin)            304.39   374.40   475.46   534.42   573.41
                              756.10   770.50   902.59   912.29   963.28
                             1157.17  1216.37  1321.98  1393.46  1400.19
                             1428.22  1477.09  1504.64  1533.41  1587.58
                             1669.97  1675.71  1701.51  1767.80  1802.49
                             1846.29  1880.67  1906.33  1930.27  1977.93
                             2106.62  2139.26  2171.30  2198.80  2206.64
                             3208.91  4263.62  4336.54  4338.58  4352.27
                             4373.78  4417.13  4421.14  4442.42  5036.13
                             5514.08

 Zero-point correction=                           0.156968 (Hartree/Particle)
 Thermal correction to Energy=                    0.166761
 Thermal correction to Enthalpy=                  0.167705
 Thermal correction to Gibbs Free Energy=         0.121789
 Sum of electronic and zero-point Energies=           -422.958319
 Sum of electronic and thermal Energies=              -422.948527
 Sum of electronic and thermal Enthalpies=            -422.947583
 Sum of electronic and thermal Free Energies=         -422.993499

                     E (Thermal)             CV                S
                      KCal/Mol        Cal/Mol-Kelvin    Cal/Mol-Kelvin
 Total                  104.644             35.242             96.639
 Electronic               0.000              0.000              0.000
 Translational            0.889              2.981             40.409
 Rotational               0.889              2.981             29.361
 Vibrational            102.866             29.281             26.869
 Vibration     1          0.598              1.967              4.096
 Vibration     2          0.602              1.954              3.601
 Vibration     3          0.607              1.940              3.253
 Vibration     4          0.615              1.913              2.801
 Vibration     5          0.630              1.865              2.310
 Vibration     6          0.643              1.823              2.030
 Vibration     7          0.668              1.745              1.660
 Vibration     8          0.713              1.615              1.258
 Vibration     9          0.743              1.531              1.074
 Vibration    10          0.765              1.473              0.968
 Vibration    11          0.880              1.194              0.597
 Vibration    12          0.891              1.171              0.575

 Normal termination of Gaussian 09 at Tue Jan 28 12:53:56 2020.
