 Gaussian 09, Revision D.01,
 Gaussian 09:  ES64L-G09RevD.01 24-Apr-2013

 -----------------------------
 # b3lyp 6-31G(2df,p) opt Freq
 -----------------------------

 -----
 titel
 -----
 Symbolic Z-matrix:
 Charge =  0 Multiplicity = 1

 SCF Done:  E(RB3LYP) =  -423.162782384     A.U. after   13 cycles
 Optimization completed.
    -- Stationary point found.
 Normal termination of Gaussian 09 at Mon Jan 27 17:41:21 2020.

 ----------------------------------------------------------------------
 #N Geom=AllCheck Guess=TCheck SCRF=Check GenChk RB3LYP/6-31G(2df,p) Fr
 eq
 ----------------------------------------------------------------------

 Structure from the checkpoint file:  "/scratch/puck/g09_92c7c6f6-2fb2-4521-82f8-78540e50d896/Gau-87295.chk"
 -----
 titel
 -----
 Charge =  0 Multiplicity = 1

                         Standard orientation:
 ---------------------------------------------------------------------
 Center     Atomic      Atomic             Coordinates (Angstroms)
 Number     Number       Type             X           Y           Z
 ---------------------------------------------------------------------
      1          8           0        2.503428   -0.839641   -0.352692
      2          6           0        1.279510   -0.293207    0.036048
      3          6           0        1.242682    0.796135    1.078426
      4          6           0        0.939888    1.117381   -0.376749
      5          6           0       -0.523305    1.162621   -0.788775
      6          6           0       -1.102470   -0.130779   -0.214123
      7          6           0       -2.522438   -0.480999   -0.255250
      8          8           0       -1.931837    0.006374    0.952986
      9          6           0        0.028468   -1.149558   -0.123920
     10          1           0        2.819918   -1.400249    0.363987
     11          1           0        0.439010    0.817686    1.807667
     12          1           0        2.207508    1.130649    1.443493
     13          1           0        1.668419    1.703676   -0.923947
     14          1           0       -1.072186    2.028874   -0.407191
     15          1           0       -0.604787    1.163526   -1.882798
     16          1           0       -3.232120    0.193303   -0.734494
     17          1           0       -2.823811   -1.528261   -0.239997
     18          1           0       -0.147570   -1.854686    0.694650
     19          1           0        0.118877   -1.717949   -1.057662
 ---------------------------------------------------------------------

 SCF Done:  E(RB3LYP) =  -423.162782384     A.U. after    1 cycles

 The electronic state is 1-A.
 Alpha  occ. eigenvalues --  -19.14542 -19.14243 -10.24051 -10.23586 -10.23045
 Alpha  occ. eigenvalues --  -10.18710 -10.18607 -10.18380 -10.17911  -1.06576
 Alpha  occ. eigenvalues --   -1.02842  -0.87020  -0.75006  -0.71488  -0.65956
 Alpha  occ. eigenvalues --   -0.60516  -0.56224  -0.55368  -0.52255  -0.47758
 Alpha  occ. eigenvalues --   -0.46821  -0.45286  -0.44293  -0.42423  -0.40227
 Alpha  occ. eigenvalues --   -0.37898  -0.37250  -0.35419  -0.34685  -0.32279
 Alpha  occ. eigenvalues --   -0.29271  -0.26484  -0.25957  -0.25672
 Alpha virt. eigenvalues --    0.07836   0.08661   0.10418   0.11758   0.12426
 Alpha virt. eigenvalues --    0.13208   0.14061   0.15004   0.16056   0.16919
 Alpha virt. eigenvalues --    0.17785   0.19106   0.20398   0.21371   0.21939

 Mulliken charges:
               1
     1  O   -0.473310
     2  C    0.402343
     3  C   -0.357994
     4  C   -0.079165
     5  C   -0.291234
     6  C    0.406390
     7  C   -0.254649
     8  O   -0.272773
     9  C   -0.354319
    10  H    0.282049
    11  H    0.133853
    12  H    0.110339
    13  H    0.092535
    14  H    0.113239
    15  H    0.106352
    16  H    0.110422
    17  H    0.110128
    18  H    0.105126
    19  H    0.110667
 Sum of Mulliken charges =   0.00000

 Dipole moment (field-independent basis, Debye):
    X=             -0.0003    Y=             -0.7004    Z=             -0.4774  Tot=              0.8477
 Quadrupole moment (field-independent basis, Debye-Ang):
   XX=            -52.7419   YY=            -50.3143   ZZ=            -54.3162
   XY=             -0.0903   XZ=              7.2978   YZ=             -2.1757

  Exact polarizability:  86.749   1.158  71.981   4.083  -1.315  65.225
 Approx polarizability: 112.857  -0.867 104.777   1.674  -0.449 106.155

                      1                      2                      3
                      A                      A                      A
 Frequencies --    106.5162               199.3978               268.9930
 Red. masses --      3.8979                 3.3191                 2.2593
 Frc consts  --      0.0261                 0.0778                 0.0963
 IR Inten    --      3.3553                 7.8865                 6.6141

                      4                      5                      6
                      A                      A                      A
 Frequencies --    293.9480               347.8923               381.8013
 Red. masses --      1.2506                 3.9840                 1.9930
 Frc consts  --      0.0637                 0.2841                 0.1712
 IR Inten    --     68.9261                19.3330                 1.5334

                      7                      8                      9
                      A                      A                      A
 Frequencies --    393.8161               414.1959               448.5006
 Red. masses --      2.8701                 2.7304                 2.4391
 Frc consts  --      0.2623                 0.2760                 0.2891
 IR Inten    --      3.2424                 4.8367                 9.1283

                     10                     11                     12
                      A                      A                      A
 Frequencies --    520.5093               590.2310               702.7015
 Red. masses --      3.1470                 3.4027                 3.3246
 Frc consts  --      0.5023                 0.6984                 0.9672
 IR Inten    --      5.0075                 1.6989                 3.1745

                     13                     14                     15
                      A                      A                      A
 Frequencies --    768.4492               826.8237               841.4720
 Red. masses --      4.8056                 3.6554                 1.6678
 Frc consts  --      1.6720                 1.4723                 0.6958
 IR Inten    --     14.1581                14.5014                 3.4725

                     16                     17                     18
                      A                      A                      A
 Frequencies --    874.9468               901.2531               924.3775
 Red. masses --      1.6481                 3.0584                 1.6699
 Frc consts  --      0.7433                 1.4636                 0.8407
 IR Inten    --      0.4597                20.5951                 0.1919

                     19                     20                     21
                      A                      A                      A
 Frequencies --    936.7764               980.1005               986.8216
 Red. masses --      1.3951                 4.2391                 1.8754
 Frc consts  --      0.7213                 2.3992                 1.0760
 IR Inten    --      1.1986                18.6984                16.8201

                     22                     23                     24
                      A                      A                      A
 Frequencies --   1041.7788              1056.3071              1078.8682
 Red. masses --      1.4632                 1.3212                 1.9144
 Frc consts  --      0.9356                 0.8686                 1.3129
 IR Inten    --      1.0454                 7.9696                14.0078

                     25                     26                     27
                      A                      A                      A
 Frequencies --   1096.1125              1125.9874              1158.3050
 Red. masses --      1.7919                 1.2873                 1.2640
 Frc consts  --      1.2684                 0.9616                 0.9992
 IR Inten    --      1.9984                 3.1816                13.4569

                     28                     29                     30
                      A                      A                      A
 Frequencies --   1166.1588              1214.5207              1227.8868
 Red. masses --      1.3583                 1.7029                 1.6119
 Frc consts  --      1.0884                 1.4800                 1.4318
 IR Inten    --     13.4320                32.0917                12.0851

                     31                     32                     33
                      A                      A                      A
 Frequencies --   1234.8288              1282.4064              1283.2710
 Red. masses --      1.7883                 1.6176                 2.5330
 Frc consts  --      1.6066                 1.5674                 2.4577
 IR Inten    --      6.0930                26.7334                17.4415

                     34                     35                     36
                      A                      A                      A
 Frequencies --   1319.0206              1340.3923              1407.1412
 Red. masses --      2.2767                 1.5161                 1.9336
 Frc consts  --      2.3338                 1.6048                 2.2558
 IR Inten    --     59.9925                13.0751                 9.0596

                     37                     38                     39
                      A                      A                      A
 Frequencies --   1430.8992              1471.4744              1477.5104
 Red. masses --      2.2984                 1.1061                 1.1779
 Frc consts  --      2.7727                 1.4111                 1.5151
 IR Inten    --     10.8479                 2.9278                 4.1705

                     40                     41                     42
                      A                      A                      A
 Frequencies --   1497.1412              1534.4205              3030.9179
 Red. masses --      1.3504                 1.4650                 1.0620
 Frc consts  --      1.7833                 2.0322                 5.7483
 IR Inten    --      7.3600                 2.5011                31.2463

                     43                     44                     45
                      A                      A                      A
 Frequencies --   3035.3625              3073.8037              3085.0085
 Red. masses --      1.0612                 1.0506                 1.1028
 Frc consts  --      5.7604                 5.8484                 6.1836
 IR Inten    --     20.8399                31.6204                14.4559

                     46                     47                     48
                      A                      A                      A
 Frequencies --   3087.0134              3129.6659              3156.6120
 Red. masses --      1.1005                 1.0540                 1.1190
 Frc consts  --      6.1791                 6.0824                 6.5692
 IR Inten    --     18.1693                 7.9599                23.1565

                     49                     50                     51
                      A                      A                      A
 Frequencies --   3184.8075              3222.2092              3797.3542
 Red. masses --      1.0917                 1.1167                 1.0661
 Frc consts  --      6.5240                 6.8313                 9.0579
 IR Inten    --      9.3267                 6.5753                19.5109

 - Thermochemistry -
 -------------------
 Temperature   298.150 Kelvin.  Pressure   1.00000 Atm.
 Atom     1 has atomic number  8 and mass  15.99491

 Molecular mass:   126.06808 amu.
 Principal axes and moments of inertia in atomic units:
                           1         2         3
     Eigenvalues --   515.775661401.634561537.01576
           X            0.99957   0.01142   0.02697
           Y           -0.01060   0.99948  -0.03057
           Z           -0.02731   0.03027   0.99917
 This molecule is an asymmetric top.
 Rotational symmetry number  1.
 Warning -- assumption of classical behavior for rotation
           may cause significant error
 Rotational temperatures (Kelvin)      0.16793     0.06179     0.05635
 Rotational constants (GHZ):           3.49908     1.28760     1.17419
 Zero-point vibrational energy     418434.0 (Joules/Mol)
                                  100.00814 (Kcal/Mol)
 Warning -- explicit consideration of  11 degrees of freedom as
           vibrations may cause significant error
 Vibrational temperatures:    153.25   286.89   387.02   422.93   500.54
          (Kelvin)            549.33   566.61   595.93   645.29   748.90
                              849.21  1011.03  1105.63  1189.61  1210.69
                             1258.85  1296.70  1329.97  1347.81  1410.14
                             1419.81  1498.89  1519.79  1552.25  1577.06
                             1620.04  1666.54  1677.84  1747.42  1766.65
                             1776.64  1845.09  1846.34  1897.77  1928.52
                             2024.56  2058.74  2117.12  2125.81  2154.05
                             2207.69  4360.81  4367.20  4422.51  4438.63
                             4441.52  4502.89  4541.65  4582.22  4636.03
                             5463.54

 Zero-point correction=                           0.159373 (Hartree/Particle)
 Thermal correction to Energy=                    0.167244
 Thermal correction to Enthalpy=                  0.168188
 Thermal correction to Gibbs Free Energy=         0.127426
 Sum of electronic and zero-point Energies=           -423.003409
 Sum of electronic and thermal Energies=              -422.995539
 Sum of electronic and thermal Enthalpies=            -422.994595
 Sum of electronic and thermal Free Energies=         -423.035356

                     E (Thermal)             CV                S
                      KCal/Mol        Cal/Mol-Kelvin    Cal/Mol-Kelvin
 Total                  104.947             31.868             85.790
 Electronic               0.000              0.000              0.000
 Translational            0.889              2.981             40.409
 Rotational               0.889              2.981             28.498
 Vibrational            103.169             25.906             16.883
 Vibration     1          0.605              1.944              3.331
 Vibration     2          0.638              1.841              2.139
 Vibration     3          0.673              1.730              1.603
 Vibration     4          0.689              1.685              1.451
 Vibration     5          0.726              1.580              1.176
 Vibration     6          0.751              1.509              1.032
 Vibration     7          0.761              1.483              0.986
 Vibration     8          0.778              1.439              0.912
 Vibration     9          0.808              1.364              0.800
 Vibration    10          0.875              1.205              0.609
 Vibration    11          0.948              1.053              0.467

 Optimization completed.
    -- Stationary point found.
 Normal termination of Gaussian 09 at Mon Jan 27 18:23:36 2020.
