 Gaussian 09, Revision D.01,
 Gaussian 09:  ES64L-G09RevD.01 24-Apr-2013

 -----------------------------
 # b3lyp 6-31G(2df,p) opt Freq
 -----------------------------

 -----
 titel
 -----
 Symbolic Z-matrix:
 Charge =  0 Multiplicity = 1

 SCF Done:  E(RB3LYP) =  -423.211192399     A.U. after   14 cycles
 Optimization completed.
    -- Stationary point found.
 Normal termination of Gaussian 09 at Tue Jan 28 03:58:42 2020.

 ----------------------------------------------------------------------
 #N Geom=AllCheck Guess=TCheck SCRF=Check GenChk RB3LYP/6-31G(2df,p) Fr
 eq
 ----------------------------------------------------------------------

 Structure from the checkpoint file:  "/scratch/puck/g09_ec0acb2c-dbaf-49f2-b105-503e5d7b7cd3/Gau-32168.chk"
 -----
 titel
 -----
 Charge =  0 Multiplicity = 1

                         Standard orientation:
 ---------------------------------------------------------------------
 Center     Atomic      Atomic             Coordinates (Angstroms)
 Number     Number       Type             X           Y           Z
 ---------------------------------------------------------------------
      1          8           0        2.223947   -0.598092   -0.918168
      2          6           0        1.665856    0.036445    0.239526
      3          6           0        0.756570   -0.925821    1.016044
      4          6           0       -0.476862   -1.407640    0.248250
      5          6           0       -1.532264   -0.358403   -0.102941
      6          8           0       -2.439244   -0.615312   -0.856786
      7          6           0       -1.392169    1.022346    0.538827
      8          6           0       -0.205055    1.777185   -0.025241
      9          6           0        1.057354    1.360155   -0.146996
     10          1           0        1.583509   -0.514919   -1.632677
     11          1           0        2.538728    0.242265    0.873487
     12          1           0        1.363722   -1.798341    1.278091
     13          1           0        0.465647   -0.455133    1.962951
     14          1           0       -0.185511   -1.908744   -0.681261
     15          1           0       -1.002325   -2.173085    0.833764
     16          1           0       -2.314566    1.569691    0.338518
     17          1           0       -1.299342    0.908902    1.627054
     18          1           0       -0.439596    2.772015   -0.395538
     19          1           0        1.771525    2.038982   -0.609570
 ---------------------------------------------------------------------

 SCF Done:  E(RB3LYP) =  -423.211192399     A.U. after    1 cycles

 The electronic state is 1-A.
 Alpha  occ. eigenvalues --  -19.14039 -19.12954 -10.27287 -10.24202 -10.20379
 Alpha  occ. eigenvalues --  -10.19986 -10.19558 -10.19203 -10.19190  -1.04205
 Alpha  occ. eigenvalues --   -1.02123  -0.82807  -0.77801  -0.74710  -0.67919
 Alpha  occ. eigenvalues --   -0.62961  -0.56068  -0.52558  -0.50673  -0.48366
 Alpha  occ. eigenvalues --   -0.47155  -0.44635  -0.43858  -0.42916  -0.42017
 Alpha  occ. eigenvalues --   -0.39408  -0.38339  -0.36395  -0.35076  -0.34382
 Alpha  occ. eigenvalues --   -0.32052  -0.28506  -0.26679  -0.23948
 Alpha virt. eigenvalues --   -0.01828   0.00086   0.07133   0.09312   0.10420
 Alpha virt. eigenvalues --    0.12341   0.14046   0.15555   0.16683   0.17398
 Alpha virt. eigenvalues --    0.18116   0.18640   0.20260   0.22442   0.23076

 Mulliken charges:
               1
     1  O   -0.437808
     2  C    0.095763
     3  C   -0.242598
     4  C   -0.302855
     5  C    0.384409
     6  O   -0.300798
     7  C   -0.355147
     8  C   -0.078164
     9  C   -0.078190
    10  H    0.283301
    11  H    0.093717
    12  H    0.112430
    13  H    0.101061
    14  H    0.131174
    15  H    0.134555
    16  H    0.124707
    17  H    0.128152
    18  H    0.106385
    19  H    0.099904
 Sum of Mulliken charges =   0.00000

 Dipole moment (field-independent basis, Debye):
    X=              0.7035    Y=              1.0542    Z=              1.7371  Tot=              2.1503
 Quadrupole moment (field-independent basis, Debye-Ang):
   XX=            -63.7975   YY=            -51.0990   ZZ=            -51.8040
   XY=             -0.7556   XZ=             -2.8234   YZ=             -2.0734

  Exact polarizability:  90.159  -2.915  77.730   1.071  -1.059  63.249
 Approx polarizability: 138.115  -6.506 108.662   3.363   2.692 101.636

                      1                      2                      3
                      A                      A                      A
 Frequencies --     40.3271               112.9397               212.3752
 Red. masses --      5.0315                 3.6036                 2.6348
 Frc consts  --      0.0048                 0.0271                 0.0700
 IR Inten    --      4.7669                 4.2122                 9.7583

                      4                      5                      6
                      A                      A                      A
 Frequencies --    259.8873               309.6861               323.5901
 Red. masses --      2.7023                 1.1103                 2.7816
 Frc consts  --      0.1075                 0.0627                 0.1716
 IR Inten    --      1.6138                76.8954                 1.8780

                      7                      8                      9
                      A                      A                      A
 Frequencies --    346.7976               412.2771               475.0975
 Red. masses --      4.2490                 2.3245                 3.7808
 Frc consts  --      0.3011                 0.2328                 0.5028
 IR Inten    --      1.9917                 5.5956                 2.9599

                     10                     11                     12
                      A                      A                      A
 Frequencies --    509.1284               554.5111               584.2654
 Red. masses --      3.6231                 2.6840                 2.0980
 Frc consts  --      0.5533                 0.4862                 0.4220
 IR Inten    --      3.4974                 0.5388                 1.6095

                     13                     14                     15
                      A                      A                      A
 Frequencies --    682.0608               745.2130               811.0027
 Red. masses --      3.0460                 1.9175                 2.1724
 Frc consts  --      0.8349                 0.6274                 0.8418
 IR Inten    --      3.2173                 9.7739                31.6969

                     16                     17                     18
                      A                      A                      A
 Frequencies --    830.9113               887.2446               911.0066
 Red. masses --      3.2753                 2.4242                 2.4595
 Frc consts  --      1.3323                 1.1244                 1.2027
 IR Inten    --      1.9578                13.0266                12.5653

                     19                     20                     21
                      A                      A                      A
 Frequencies --    937.2428               980.0077              1013.3344
 Red. masses --      2.3660                 2.2587                 1.2578
 Frc consts  --      1.2245                 1.2781                 0.7610
 IR Inten    --      2.0025                16.7507                 1.9576

                     22                     23                     24
                      A                      A                      A
 Frequencies --   1016.4627              1054.4054              1121.8440
 Red. masses --      2.1404                 2.6353                 1.8572
 Frc consts  --      1.3029                 1.7262                 1.3771
 IR Inten    --      3.7394                84.6099                13.4805

                     25                     26                     27
                      A                      A                      A
 Frequencies --   1140.9721              1196.5523              1215.7426
 Red. masses --      1.6364                 1.2000                 1.6819
 Frc consts  --      1.2552                 1.0123                 1.4647
 IR Inten    --     15.3784                 8.4352                33.3389

                     28                     29                     30
                      A                      A                      A
 Frequencies --   1237.8098              1260.6078              1266.7340
 Red. masses --      1.3752                 1.1981                 1.3241
 Frc consts  --      1.2414                 1.1218                 1.2519
 IR Inten    --     22.7319                13.5881                 2.0980

                     31                     32                     33
                      A                      A                      A
 Frequencies --   1316.9735              1353.8031              1371.0452
 Red. masses --      1.4323                 1.4688                 1.7040
 Frc consts  --      1.4636                 1.5860                 1.8873
 IR Inten    --      5.6879                 2.1341                 0.9824

                     34                     35                     36
                      A                      A                      A
 Frequencies --   1394.6803              1407.2205              1428.7498
 Red. masses --      1.3795                 1.1932                 1.4279
 Frc consts  --      1.5810                 1.3921                 1.7174
 IR Inten    --     10.7514                36.7693                25.1803

                     37                     38                     39
                      A                      A                      A
 Frequencies --   1449.5676              1462.6998              1484.4990
 Red. masses --      1.0800                 1.1043                 1.0845
 Frc consts  --      1.3371                 1.3920                 1.4081
 IR Inten    --      9.7907                 6.2527                12.2740

                     40                     41                     42
                      A                      A                      A
 Frequencies --   1715.7369              1815.8432              3014.7121
 Red. masses --      7.1131                11.5564                 1.0808
 Frc consts  --     12.3370                22.4506                 5.7875
 IR Inten    --      8.9546               190.9464                19.3958

                     43                     44                     45
                      A                      A                      A
 Frequencies --   3024.3099              3034.0719              3040.6304
 Red. masses --      1.0678                 1.0651                 1.0655
 Frc consts  --      5.7543                 5.7768                 5.8043
 IR Inten    --      7.0962                25.8685                18.7693

                     46                     47                     48
                      A                      A                      A
 Frequencies --   3075.4603              3084.1690              3116.9955
 Red. masses --      1.0962                 1.0985                 1.0937
 Frc consts  --      6.1091                 6.1564                 6.2604
 IR Inten    --     10.6353                23.0401                 7.2024

                     49                     50                     51
                      A                      A                      A
 Frequencies --   3140.1608              3165.2297              3810.3085
 Red. masses --      1.0843                 1.0942                 1.0664
 Frc consts  --      6.2995                 6.4590                 9.1217
 IR Inten    --      5.7340                23.3379                16.0010

 - Thermochemistry -
 -------------------
 Temperature   298.150 Kelvin.  Pressure   1.00000 Atm.
 Atom     1 has atomic number  8 and mass  15.99491

 Molecular mass:   126.06808 amu.
 Principal axes and moments of inertia in atomic units:
                           1         2         3
     Eigenvalues --   727.553601290.388451616.71312
           X            0.99981  -0.01767  -0.00823
           Y            0.01740   0.99934  -0.03184
           Z            0.00879   0.03169   0.99946
 This molecule is an asymmetric top.
 Rotational symmetry number  1.
 Warning -- assumption of classical behavior for rotation
           may cause significant error
 Rotational temperatures (Kelvin)      0.11905     0.06712     0.05357
 Rotational constants (GHZ):           2.48056     1.39860     1.11630
 Zero-point vibrational energy     419631.5 (Joules/Mol)
                                  100.29433 (Kcal/Mol)
 Warning -- explicit consideration of  12 degrees of freedom as
           vibrations may cause significant error
 Vibrational temperatures:     58.02   162.49   305.56   373.92   445.57
          (Kelvin)            465.57   498.96   593.17   683.56   732.52
                              797.82   840.63   981.33  1072.19  1166.85
                             1195.49  1276.55  1310.73  1348.48  1410.01
                             1457.96  1462.46  1517.05  1614.08  1641.60
                             1721.57  1749.18  1780.93  1813.73  1822.55
                             1894.83  1947.82  1972.63  2006.63  2024.67
                             2055.65  2085.60  2104.50  2135.86  2468.56
                             2612.59  4337.49  4351.30  4365.35  4374.78
                             4424.90  4437.43  4484.66  4517.99  4554.05
                             5482.18

 Zero-point correction=                           0.159829 (Hartree/Particle)
 Thermal correction to Energy=                    0.168362
 Thermal correction to Enthalpy=                  0.169306
 Thermal correction to Gibbs Free Energy=         0.126227
 Sum of electronic and zero-point Energies=           -423.051363
 Sum of electronic and thermal Energies=              -423.042830
 Sum of electronic and thermal Enthalpies=            -423.041886
 Sum of electronic and thermal Free Energies=         -423.084965

                     E (Thermal)             CV                S
                      KCal/Mol        Cal/Mol-Kelvin    Cal/Mol-Kelvin
 Total                  105.649             32.655             90.668
 Electronic               0.000              0.000              0.000
 Translational            0.889              2.981             40.409
 Rotational               0.889              2.981             28.808
 Vibrational            103.871             26.694             21.451
 Vibration     1          0.594              1.981              5.243
 Vibration     2          0.607              1.939              3.218
 Vibration     3          0.643              1.822              2.023
 Vibration     4          0.668              1.746              1.663
 Vibration     5          0.699              1.655              1.364
 Vibration     6          0.708              1.628              1.292
 Vibration     7          0.725              1.582              1.181
 Vibration     8          0.776              1.444              0.919
 Vibration     9          0.832              1.305              0.723
 Vibration    10          0.864              1.230              0.636
 Vibration    11          0.910              1.130              0.535
 Vibration    12          0.941              1.065              0.478

 Optimization completed.
    -- Stationary point found.
 Normal termination of Gaussian 09 at Tue Jan 28 04:45:18 2020.
