 Gaussian 09, Revision D.01,
 Gaussian 09:  ES64L-G09RevD.01 24-Apr-2013

 -----------------------------
 # b3lyp 6-31G(2df,p) opt Freq
 -----------------------------

 -----
 titel
 -----
 Symbolic Z-matrix:
 Charge =  0 Multiplicity = 1

 SCF Done:  E(RB3LYP) =  -423.208144691     A.U. after   14 cycles
 Optimization completed.
    -- Stationary point found.
 Normal termination of Gaussian 09 at Mon Jan 27 14:03:12 2020.

 ----------------------------------------------------------------------
 #N Geom=AllCheck Guess=TCheck SCRF=Check GenChk RB3LYP/6-31G(2df,p) Fr
 eq
 ----------------------------------------------------------------------

 Structure from the checkpoint file:  "/scratch/puck/g09_be0e17e4-6a84-4bd1-b0ca-4b3b51dfce24/Gau-171123.chk"
 -----
 titel
 -----
 Charge =  0 Multiplicity = 1

                         Standard orientation:
 ---------------------------------------------------------------------
 Center     Atomic      Atomic             Coordinates (Angstroms)
 Number     Number       Type             X           Y           Z
 ---------------------------------------------------------------------
      1          6           0        3.027070    0.277202    0.275407
      2          6           0        1.728731   -0.384887   -0.113230
      3          8           0        1.626598   -1.548142   -0.428322
      4          6           0        0.468255    0.518610   -0.093509
      5          8           0        0.577330    1.681842    0.227017
      6          6           0       -0.833132   -0.148899   -0.434205
      7          6           0       -2.090519    0.737948   -0.601360
      8          6           0       -2.892565   -0.281366    0.251893
      9          6           0       -1.552097   -0.872854    0.762933
     10          1           0        3.228376    1.124108   -0.388304
     11          1           0        2.946621    0.696229    1.283469
     12          1           0        3.840092   -0.447351    0.226767
     13          1           0       -0.680651   -0.856689   -1.251151
     14          1           0       -1.950788    1.694324   -0.091700
     15          1           0       -2.431695    0.926222   -1.621411
     16          1           0       -3.578275    0.119049    1.001662
     17          1           0       -3.437166   -0.996863   -0.370135
     18          1           0       -1.256842   -0.445618    1.725527
     19          1           0       -1.445550   -1.957536    0.808140
 ---------------------------------------------------------------------

 SCF Done:  E(RB3LYP) =  -423.208144691     A.U. after    1 cycles

 The electronic state is 1-A.
 Alpha  occ. eigenvalues --  -19.15286 -19.15096 -10.28226 -10.27585 -10.19644
 Alpha  occ. eigenvalues --  -10.19460 -10.19312 -10.18676 -10.18375  -1.06599
 Alpha  occ. eigenvalues --   -1.05046  -0.84973  -0.75577  -0.70866  -0.66494
 Alpha  occ. eigenvalues --   -0.62446  -0.55736  -0.52129  -0.49541  -0.48018
 Alpha  occ. eigenvalues --   -0.46493  -0.45632  -0.43783  -0.41060  -0.40549
 Alpha  occ. eigenvalues --   -0.39644  -0.38969  -0.36772  -0.35130  -0.33304
 Alpha  occ. eigenvalues --   -0.31868  -0.31294  -0.30421  -0.23597
 Alpha virt. eigenvalues --   -0.08046   0.03638   0.08853   0.10209   0.10971
 Alpha virt. eigenvalues --    0.12776   0.13487   0.15483   0.16475   0.17229
 Alpha virt. eigenvalues --    0.18025   0.19099   0.19810   0.21109   0.21728

 Mulliken charges:
               1
     1  C   -0.474783
     2  C    0.306417
     3  O   -0.276468
     4  C    0.248763
     5  O   -0.291634
     6  C   -0.054297
     7  C   -0.243662
     8  C   -0.208086
     9  C   -0.225383
    10  H    0.156230
    11  H    0.155643
    12  H    0.139958
    13  H    0.102747
    14  H    0.123423
    15  H    0.102108
    16  H    0.103130
    17  H    0.107111
    18  H    0.110902
    19  H    0.117879
 Sum of Mulliken charges =   0.00000

 Dipole moment (field-independent basis, Debye):
    X=             -0.3198    Y=             -0.0547    Z=              0.1638  Tot=              0.3635
 Quadrupole moment (field-independent basis, Debye-Ang):
   XX=            -48.4282   YY=            -60.5830   ZZ=            -51.2253
   XY=              2.9408   XZ=              0.9946   YZ=             -1.6187

  Exact polarizability:  92.922   2.331  76.709   1.487   1.675  61.328
 Approx polarizability: 109.603   5.044 133.476   1.440   9.318  94.607

                      1                      2                      3
                      A                      A                      A
 Frequencies --     33.4076                43.8514                97.4552
 Red. masses --      3.2479                 3.6289                 1.2477
 Frc consts  --      0.0021                 0.0041                 0.0070
 IR Inten    --      0.9332                 5.0741                 0.1563

                      4                      5                      6
                      A                      A                      A
 Frequencies --    102.9691               150.9701               224.3958
 Red. masses --      1.8772                 3.8385                 2.9914
 Frc consts  --      0.0117                 0.0515                 0.0887
 IR Inten    --      0.4454                 2.9576                 6.3107

                      7                      8                      9
                      A                      A                      A
 Frequencies --    299.1259               325.9662               409.5545
 Red. masses --      3.9434                 3.5840                 4.0542
 Frc consts  --      0.2079                 0.2244                 0.4007
 IR Inten    --     17.6699                 0.4373                 3.4400

                     10                     11                     12
                      A                      A                      A
 Frequencies --    505.0186               582.7186               620.8705
 Red. masses --      5.0385                 3.4658                 2.5012
 Frc consts  --      0.7571                 0.6934                 0.5681
 IR Inten    --      0.9028                41.2423                 1.4545

                     13                     14                     15
                      A                      A                      A
 Frequencies --    703.4045               748.5387               787.2476
 Red. masses --      2.2229                 1.8728                 1.2845
 Frc consts  --      0.6480                 0.6183                 0.4690
 IR Inten    --      1.9723                 0.5503                 1.7708

                     16                     17                     18
                      A                      A                      A
 Frequencies --    839.2816               893.5828               934.5303
 Red. masses --      2.8101                 2.4642                 2.4007
 Frc consts  --      1.1662                 1.1593                 1.2353
 IR Inten    --     22.8562                 7.8424                18.9766

                     19                     20                     21
                      A                      A                      A
 Frequencies --    939.4876               959.1082              1001.0652
 Red. masses --      2.2571                 1.8139                 1.5478
 Frc consts  --      1.1738                 0.9831                 0.9139
 IR Inten    --      3.8822                 0.8683                 5.1644

                     22                     23                     24
                      A                      A                      A
 Frequencies --   1013.0602              1039.7940              1095.9382
 Red. masses --      2.4021                 2.1321                 1.9164
 Frc consts  --      1.4525                 1.3581                 1.3561
 IR Inten    --      4.7270                 7.2999                24.4902

                     25                     26                     27
                      A                      A                      A
 Frequencies --   1130.1904              1207.4791              1226.2934
 Red. masses --      2.4026                 1.3287                 1.4594
 Frc consts  --      1.8082                 1.1414                 1.2930
 IR Inten    --     40.8023                 2.0645                15.5475

                     28                     29                     30
                      A                      A                      A
 Frequencies --   1240.3978              1248.4977              1258.7920
 Red. masses --      1.4528                 1.7005                 1.2351
 Frc consts  --      1.3170                 1.5617                 1.1531
 IR Inten    --      3.7176                 1.2730                 0.3590

                     31                     32                     33
                      A                      A                      A
 Frequencies --   1277.9538              1282.0664              1373.0778
 Red. masses --      1.3931                 1.5375                 1.6489
 Frc consts  --      1.3405                 1.4890                 1.8317
 IR Inten    --      2.9127                 0.6440                39.6973

                     34                     35                     36
                      A                      A                      A
 Frequencies --   1385.1031              1451.8795              1459.3404
 Red. masses --      1.5335                 1.0524                 1.0496
 Frc consts  --      1.7334                 1.3071                 1.3171
 IR Inten    --      8.7030                12.1151                 7.8297

                     37                     38                     39
                      A                      A                      A
 Frequencies --   1477.9758              1485.8079              1506.7222
 Red. masses --      1.0860                 1.0833                 1.1326
 Frc consts  --      1.3977                 1.4090                 1.5149
 IR Inten    --      1.0805                 2.3318                 3.3772

                     40                     41                     42
                      A                      A                      A
 Frequencies --   1790.4730              1804.7474              3049.6854
 Red. masses --     12.0502                11.5762                 1.0354
 Frc consts  --     22.7603                22.2152                 5.6737
 IR Inten    --     79.0567               125.5444                 0.3008

                     43                     44                     45
                      A                      A                      A
 Frequencies --   3061.4371              3062.5144              3070.7493
 Red. masses --      1.0573                 1.0609                 1.0599
 Frc consts  --      5.8387                 5.8623                 5.8885
 IR Inten    --     33.2171                39.0505                23.6569

                     46                     47                     48
                      A                      A                      A
 Frequencies --   3095.2620              3108.9514              3110.8769
 Red. masses --      1.0868                 1.1049                 1.0969
 Frc consts  --      6.1345                 6.2922                 6.2546
 IR Inten    --      4.0850                 8.0201                 2.3937

                     49                     50                     51
                      A                      A                      A
 Frequencies --   3125.0798              3134.2980              3161.6673
 Red. masses --      1.1072                 1.1062                 1.1044
 Frc consts  --      6.3706                 6.4029                 6.5045
 IR Inten    --     12.4905                40.7139                 8.2924

 - Thermochemistry -
 -------------------
 Temperature   298.150 Kelvin.  Pressure   1.00000 Atm.
 Atom     1 has atomic number  6 and mass  12.00000

 Molecular mass:   126.06808 amu.
 Principal axes and moments of inertia in atomic units:
                           1         2         3
     Eigenvalues --   528.546511746.616742060.13992
           X            0.99986   0.01582   0.00589
           Y           -0.01567   0.99961  -0.02323
           Z           -0.00625   0.02313   0.99971
 This molecule is an asymmetric top.
 Rotational symmetry number  1.
 Warning -- assumption of classical behavior for rotation
           may cause significant error
 Rotational temperatures (Kelvin)      0.16387     0.04959     0.04204
 Rotational constants (GHZ):           3.41454     1.03328     0.87603
 Zero-point vibrational energy     412344.8 (Joules/Mol)
                                   98.55276 (Kcal/Mol)
 Warning -- explicit consideration of  11 degrees of freedom as
           vibrations may cause significant error
 Vibrational temperatures:     48.07    63.09   140.22   148.15   217.21
          (Kelvin)            322.86   430.37   468.99   589.26   726.61
                              838.40   893.29  1012.04  1076.98  1132.67
                             1207.54  1285.66  1344.58  1351.71  1379.94
                             1440.31  1457.57  1496.03  1576.81  1626.09
                             1737.29  1764.36  1784.65  1796.31  1811.12
                             1838.69  1844.61  1975.55  1992.85  2088.93
                             2099.66  2126.47  2137.74  2167.83  2576.09
                             2596.63  4387.81  4404.72  4406.27  4418.12
                             4453.39  4473.08  4475.85  4496.29  4509.55
                             4548.93

 Zero-point correction=                           0.157054 (Hartree/Particle)
 Thermal correction to Energy=                    0.166729
 Thermal correction to Enthalpy=                  0.167673
 Thermal correction to Gibbs Free Energy=         0.120652
 Sum of electronic and zero-point Energies=           -423.051091
 Sum of electronic and thermal Energies=              -423.041416
 Sum of electronic and thermal Enthalpies=            -423.040471
 Sum of electronic and thermal Free Energies=         -423.087493

                     E (Thermal)             CV                S
                      KCal/Mol        Cal/Mol-Kelvin    Cal/Mol-Kelvin
 Total                  104.624             33.760             98.965
 Electronic               0.000              0.000              0.000
 Translational            0.889              2.981             40.409
 Rotational               0.889              2.981             29.032
 Vibrational            102.847             27.798             29.524
 Vibration     1          0.594              1.983              5.616
 Vibration     2          0.595              1.980              5.077
 Vibration     3          0.603              1.951              3.505
 Vibration     4          0.605              1.947              3.397
 Vibration     5          0.618              1.902              2.660
 Vibration     6          0.649              1.804              1.923
 Vibration     7          0.692              1.675              1.422
 Vibration     8          0.710              1.624              1.280
 Vibration     9          0.774              1.449              0.928
 Vibration    10          0.860              1.239              0.646
 Vibration    11          0.940              1.069              0.480

 Optimization completed.
    -- Stationary point found.
 Normal termination of Gaussian 09 at Mon Jan 27 14:41:13 2020.
