 Gaussian 09, Revision D.01,
 Gaussian 09:  ES64L-G09RevD.01 24-Apr-2013

 -----------------------------
 # b3lyp 6-31G(2df,p) opt Freq
 -----------------------------

 -----
 titel
 -----
 Symbolic Z-matrix:
 Charge =  0 Multiplicity = 1

 SCF Done:  E(RB3LYP) =  -423.214399374     A.U. after   14 cycles
 Optimization completed.
    -- Stationary point found.
 Normal termination of Gaussian 09 at Tue Jan 28 03:56:20 2020.

 ----------------------------------------------------------------------
 #N Geom=AllCheck Guess=TCheck SCRF=Check GenChk RB3LYP/6-31G(2df,p) Fr
 eq
 ----------------------------------------------------------------------

 Structure from the checkpoint file:  "/scratch/puck/g09_54400bf1-cb53-4a04-a40a-66b54398f4c0/Gau-2938.chk"
 -----
 titel
 -----
 Charge =  0 Multiplicity = 1

                         Standard orientation:
 ---------------------------------------------------------------------
 Center     Atomic      Atomic             Coordinates (Angstroms)
 Number     Number       Type             X           Y           Z
 ---------------------------------------------------------------------
      1          6           0       -2.499975   -0.031222    0.098844
      2          6           0       -1.126670   -0.683092    0.149218
      3          8           0       -0.523374   -0.647283   -1.182152
      4          6           0        0.730236    0.037278   -1.076414
      5          6           0        1.728972   -0.865850   -0.334358
      6          6           0        1.164731   -0.859671    1.135298
      7          6           0       -0.094891    0.039572    1.038126
      8          6           0        0.411008    1.068707    0.017008
      9          8           0        0.531681    2.258782    0.064497
     10          1           0       -3.105539   -0.501845   -0.680731
     11          1           0       -3.018428   -0.146466    1.056513
     12          1           0       -2.420266    1.036611   -0.128064
     13          1           0       -1.223949   -1.737367    0.441665
     14          1           0        1.023581    0.414461   -2.053896
     15          1           0        1.736636   -1.863644   -0.778230
     16          1           0        2.744640   -0.461381   -0.379579
     17          1           0        0.908851   -1.863154    1.485354
     18          1           0        1.889155   -0.437915    1.836725
     19          1           0       -0.481599    0.434384    1.975152
 ---------------------------------------------------------------------

 SCF Done:  E(RB3LYP) =  -423.214399374     A.U. after    1 cycles

 The electronic state is 1-A.
 Alpha  occ. eigenvalues --  -19.14536 -19.14432 -10.27065 -10.24377 -10.23725
 Alpha  occ. eigenvalues --  -10.20071 -10.20006 -10.19427 -10.18018  -1.05907
 Alpha  occ. eigenvalues --   -1.03579  -0.83433  -0.78505  -0.70444  -0.69216
 Alpha  occ. eigenvalues --   -0.61534  -0.56259  -0.56014  -0.50387  -0.48685
 Alpha  occ. eigenvalues --   -0.46740  -0.43786  -0.42163  -0.40996  -0.39729
 Alpha  occ. eigenvalues --   -0.38920  -0.38656  -0.37152  -0.36537  -0.36208
 Alpha  occ. eigenvalues --   -0.34328  -0.32210  -0.27279  -0.22654
 Alpha virt. eigenvalues --   -0.02057   0.08265   0.09864   0.11816   0.12434
 Alpha virt. eigenvalues --    0.14207   0.14478   0.15187   0.15695   0.16946
 Alpha virt. eigenvalues --    0.17263   0.18545   0.19569   0.20323   0.20988

 Mulliken charges:
               1
     1  C   -0.408657
     2  C    0.143601
     3  O   -0.305513
     4  C    0.006453
     5  C   -0.231230
     6  C   -0.243529
     7  C   -0.152866
     8  C    0.425494
     9  O   -0.327280
    10  H    0.130576
    11  H    0.115581
    12  H    0.131970
    13  H    0.076435
    14  H    0.094955
    15  H    0.117818
    16  H    0.112652
    17  H    0.110773
    18  H    0.113643
    19  H    0.089124
 Sum of Mulliken charges =   0.00000

 Dipole moment (field-independent basis, Debye):
    X=              0.2395    Y=             -2.1723    Z=              1.1915  Tot=              2.4892
 Quadrupole moment (field-independent basis, Debye-Ang):
   XX=            -49.9239   YY=            -59.9529   ZZ=            -52.8154
   XY=             -1.6833   XZ=             -1.8673   YZ=             -1.7716

  Exact polarizability:  79.840   0.076  73.976  -2.829  -1.385  68.979
 Approx polarizability: 105.269   4.092 118.712  -2.948  -0.346 104.124

                      1                      2                      3
                      A                      A                      A
 Frequencies --    105.4447               143.9683               234.6382
 Red. masses --      3.6076                 4.6617                 1.0688
 Frc consts  --      0.0236                 0.0569                 0.0347
 IR Inten    --      1.0733                 4.1018                 0.1059

                      4                      5                      6
                      A                      A                      A
 Frequencies --    241.4033               283.6327               396.6459
 Red. masses --      1.9299                 2.4960                 3.8447
 Frc consts  --      0.0663                 0.1183                 0.3564
 IR Inten    --      0.3392                 0.4074                 2.7292

                      7                      8                      9
                      A                      A                      A
 Frequencies --    430.0269               467.5442               601.4803
 Red. masses --      3.7666                 3.3968                 5.3049
 Frc consts  --      0.4104                 0.4375                 1.1307
 IR Inten    --      0.8718                 7.4914                 2.6628

                     10                     11                     12
                      A                      A                      A
 Frequencies --    628.5376               709.4151               770.8908
 Red. masses --      4.6431                 3.5588                 2.4481
 Frc consts  --      1.0807                 1.0552                 0.8572
 IR Inten    --      3.1033                 8.8376                 7.2513

                     13                     14                     15
                      A                      A                      A
 Frequencies --    807.4355               833.6306               859.3587
 Red. masses --      2.7153                 2.2428                 2.3092
 Frc consts  --      1.0430                 0.9183                 1.0048
 IR Inten    --      0.9118                18.2741                 6.6971

                     16                     17                     18
                      A                      A                      A
 Frequencies --    877.7898               889.5338               945.7097
 Red. masses --      2.3013                 4.4738                 2.2325
 Frc consts  --      1.0447                 2.0857                 1.1764
 IR Inten    --      0.9624                 4.0958                 2.3455

                     19                     20                     21
                      A                      A                      A
 Frequencies --    979.6723              1020.4790              1034.4748
 Red. masses --      2.0775                 2.2184                 3.0734
 Frc consts  --      1.1748                 1.3611                 1.9378
 IR Inten    --      3.6362                 2.0585                66.4256

                     22                     23                     24
                      A                      A                      A
 Frequencies --   1042.0474              1093.8798              1126.1550
 Red. masses --      1.5896                 1.5216                 1.8862
 Frc consts  --      1.0170                 1.0727                 1.4094
 IR Inten    --      0.5205                 5.3221                 2.6248

                     25                     26                     27
                      A                      A                      A
 Frequencies --   1144.8226              1148.3484              1200.7729
 Red. masses --      1.6792                 2.3827                 1.7394
 Frc consts  --      1.2967                 1.8513                 1.4776
 IR Inten    --     37.4502                20.9869                 3.9866

                     28                     29                     30
                      A                      A                      A
 Frequencies --   1214.3430              1254.5160              1265.6180
 Red. masses --      1.6442                 1.2271                 1.6690
 Frc consts  --      1.4285                 1.1378                 1.5751
 IR Inten    --      5.9795                 2.9688                 7.6850

                     31                     32                     33
                      A                      A                      A
 Frequencies --   1293.8077              1317.9468              1330.2431
 Red. masses --      1.2434                 1.5712                 1.3474
 Frc consts  --      1.2263                 1.6080                 1.4048
 IR Inten    --      2.9107                 2.9405                 5.3099

                     34                     35                     36
                      A                      A                      A
 Frequencies --   1349.9550              1391.2258              1412.6313
 Red. masses --      1.4492                 1.3175                 1.3043
 Frc consts  --      1.5561                 1.5025                 1.5334
 IR Inten    --      6.2446                 9.2596                13.9581

                     37                     38                     39
                      A                      A                      A
 Frequencies --   1476.6633              1487.1749              1494.2753
 Red. masses --      1.0840                 1.0557                 1.0459
 Frc consts  --      1.3926                 1.3757                 1.3760
 IR Inten    --      1.4948                 2.2093                 3.5035

                     40                     41                     42
                      A                      A                      A
 Frequencies --   1502.7905              1891.0149              3004.7280
 Red. masses --      1.0944                12.3615                 1.0856
 Frc consts  --      1.4562                26.0442                 5.7748
 IR Inten    --      3.3509               236.9450                44.0295

                     43                     44                     45
                      A                      A                      A
 Frequencies --   3037.3626              3055.3817              3064.3928
 Red. masses --      1.0352                 1.0595                 1.0610
 Frc consts  --      5.6269                 5.8275                 5.8703
 IR Inten    --     13.6225                23.4519                32.1854

                     46                     47                     48
                      A                      A                      A
 Frequencies --   3098.6337              3110.4936              3119.1298
 Red. masses --      1.1064                 1.1014                 1.1045
 Frc consts  --      6.2590                 6.2786                 6.3314
 IR Inten    --      3.4935                20.5972                 5.8620

                     49                     50                     51
                      A                      A                      A
 Frequencies --   3119.5671              3145.3660              3149.0120
 Red. masses --      1.1027                 1.0886                 1.0914
 Frc consts  --      6.3227                 6.3456                 6.3767
 IR Inten    --     36.7039                19.8114                11.3609

 - Thermochemistry -
 -------------------
 Temperature   298.150 Kelvin.  Pressure   1.00000 Atm.
 Atom     1 has atomic number  6 and mass  12.00000

 Molecular mass:   126.06808 amu.
 Principal axes and moments of inertia in atomic units:
                           1         2         3
     Eigenvalues --   784.991401019.487061214.54887
           X            0.99680  -0.07872  -0.01425
           Y            0.07794   0.99578  -0.04850
           Z            0.01801   0.04724   0.99872
 This molecule is an asymmetric top.
 Rotational symmetry number  1.
 Warning -- assumption of classical behavior for rotation
           may cause significant error
 Rotational temperatures (Kelvin)      0.11034     0.08496     0.07131
 Rotational constants (GHZ):           2.29906     1.77024     1.48594
 Zero-point vibrational energy     422305.8 (Joules/Mol)
                                  100.93350 (Kcal/Mol)
 Warning -- explicit consideration of   9 degrees of freedom as
           vibrations may cause significant error
 Vibrational temperatures:    151.71   207.14   337.59   347.33   408.08
          (Kelvin)            570.68   618.71   672.69   865.39   904.32
                             1020.69  1109.14  1161.72  1199.41  1236.42
                             1262.94  1279.84  1360.66  1409.53  1468.24
                             1488.38  1499.27  1573.85  1620.28  1647.14
                             1652.22  1727.64  1747.17  1804.97  1820.94
                             1861.50  1896.23  1913.92  1942.28  2001.66
                             2032.46  2124.59  2139.71  2149.93  2162.18
                             2720.75  4323.13  4370.08  4396.01  4408.97
                             4458.24  4475.30  4487.73  4488.36  4525.47
                             4530.72

 Zero-point correction=                           0.160848 (Hartree/Particle)
 Thermal correction to Energy=                    0.168582
 Thermal correction to Enthalpy=                  0.169526
 Thermal correction to Gibbs Free Energy=         0.128739
 Sum of electronic and zero-point Energies=           -423.053552
 Sum of electronic and thermal Energies=              -423.045818
 Sum of electronic and thermal Enthalpies=            -423.044874
 Sum of electronic and thermal Free Energies=         -423.085660

                     E (Thermal)             CV                S
                      KCal/Mol        Cal/Mol-Kelvin    Cal/Mol-Kelvin
 Total                  105.787             30.366             85.842
 Electronic               0.000              0.000              0.000
 Translational            0.889              2.981             40.409
 Rotational               0.889              2.981             28.365
 Vibrational            104.009             24.404             17.068
 Vibration     1          0.605              1.945              3.351
 Vibration     2          0.616              1.909              2.750
 Vibration     3          0.654              1.788              1.843
 Vibration     4          0.658              1.777              1.793
 Vibration     5          0.682              1.704              1.512
 Vibration     6          0.763              1.477              0.975
 Vibration     7          0.791              1.405              0.859
 Vibration     8          0.825              1.322              0.744
 Vibration     9          0.960              1.029              0.447

 Optimization completed.
    -- Stationary point found.
 Normal termination of Gaussian 09 at Tue Jan 28 04:40:12 2020.
