 Gaussian 09, Revision D.01,
 Gaussian 09:  ES64L-G09RevD.01 24-Apr-2013

 -----------------------------
 # b3lyp 6-31G(2df,p) opt Freq
 -----------------------------

 -----
 titel
 -----
 Symbolic Z-matrix:
 Charge =  0 Multiplicity = 1

 SCF Done:  E(RB3LYP) =  -423.184859964     A.U. after   14 cycles
 Optimization completed.
    -- Stationary point found.
 Normal termination of Gaussian 09 at Tue Jan 28 03:58:50 2020.

 ----------------------------------------------------------------------
 #N Geom=AllCheck Guess=TCheck SCRF=Check GenChk RB3LYP/6-31G(2df,p) Fr
 eq
 ----------------------------------------------------------------------

 Structure from the checkpoint file:  "/scratch/puck/g09_74e6895c-c190-435e-8f8b-88df77b8096c/Gau-14358.chk"
 -----
 titel
 -----
 Charge =  0 Multiplicity = 1

                         Standard orientation:
 ---------------------------------------------------------------------
 Center     Atomic      Atomic             Coordinates (Angstroms)
 Number     Number       Type             X           Y           Z
 ---------------------------------------------------------------------
      1          6           0        2.588225   -0.685718   -0.322745
      2          6           0        1.217199   -0.138521   -0.009707
      3          8           0        0.537402   -0.810228    1.089618
      4          6           0        0.012213   -0.954476   -0.235076
      5          6           0       -1.318150   -0.289002   -0.510567
      6          8           0       -2.405471   -1.118641   -0.118815
      7          6           0       -1.415794    1.107776    0.133326
      8          6           0       -0.150720    1.915091    0.006022
      9          6           0        1.052121    1.343254   -0.047578
     10          1           0        3.327712   -0.295203    0.384955
     11          1           0        2.593772   -1.775982   -0.256826
     12          1           0        2.901154   -0.392262   -1.330637
     13          1           0        0.120501   -1.952930   -0.661760
     14          1           0       -1.416837   -0.193124   -1.599345
     15          1           0       -2.296742   -1.301064    0.821937
     16          1           0       -2.270781    1.639693   -0.294128
     17          1           0       -1.640395    0.970807    1.200493
     18          1           0       -0.239809    2.997859    0.000361
     19          1           0        1.955413    1.942733   -0.113520
 ---------------------------------------------------------------------

 SCF Done:  E(RB3LYP) =  -423.184859964     A.U. after    1 cycles

 The electronic state is 1-A.
 Alpha  occ. eigenvalues --  -19.14716 -19.13611 -10.24432 -10.23631 -10.23033
 Alpha  occ. eigenvalues --  -10.19091 -10.18781 -10.18463 -10.18452  -1.06609
 Alpha  occ. eigenvalues --   -1.01750  -0.81355  -0.76038  -0.72487  -0.68141
 Alpha  occ. eigenvalues --   -0.60734  -0.59968  -0.53530  -0.51258  -0.47306
 Alpha  occ. eigenvalues --   -0.46125  -0.44844  -0.44110  -0.42253  -0.40145
 Alpha  occ. eigenvalues --   -0.38581  -0.38107  -0.35703  -0.35345  -0.33402
 Alpha  occ. eigenvalues --   -0.31034  -0.28016  -0.25916  -0.24258
 Alpha virt. eigenvalues --   -0.00152   0.07749   0.09586   0.11842   0.12379
 Alpha virt. eigenvalues --    0.13386   0.13889   0.14440   0.14921   0.17180
 Alpha virt. eigenvalues --    0.17532   0.18875   0.20893   0.21380   0.23558

 Mulliken charges:
               1
     1  C   -0.483586
     2  C    0.379747
     3  O   -0.306930
     4  C   -0.058152
     5  C    0.107472
     6  O   -0.437979
     7  C   -0.295870
     8  C   -0.096316
     9  C   -0.083689
    10  H    0.128807
    11  H    0.129962
    12  H    0.125558
    13  H    0.090077
    14  H    0.096256
    15  H    0.285239
    16  H    0.112464
    17  H    0.120256
    18  H    0.098106
    19  H    0.088579
 Sum of Mulliken charges =   0.00000

 Dipole moment (field-independent basis, Debye):
    X=              1.0273    Y=              0.9913    Z=             -0.6534  Tot=              1.5700
 Quadrupole moment (field-independent basis, Debye-Ang):
   XX=            -53.7811   YY=            -51.4807   ZZ=            -54.0861
   XY=             -1.8475   XZ=             -3.7259   YZ=              0.0218

  Exact polarizability:  92.002  -2.089  79.081  -1.471   0.404  57.333
 Approx polarizability: 129.641  -2.597 113.120  -0.892  -2.353  96.233

                      1                      2                      3
                      A                      A                      A
 Frequencies --    108.4362               164.6839               201.0720
 Red. masses --      3.5363                 2.2447                 1.1584
 Frc consts  --      0.0245                 0.0359                 0.0276
 IR Inten    --      2.9754                 1.8815                 0.9069

                      4                      5                      6
                      A                      A                      A
 Frequencies --    249.7097               297.2844               352.5630
 Red. masses --      3.0658                 2.6324                 1.2131
 Frc consts  --      0.1126                 0.1371                 0.0888
 IR Inten    --      1.0368                 3.2534                55.0099

                      7                      8                      9
                      A                      A                      A
 Frequencies --    367.9781               392.8121               435.5786
 Red. masses --      3.7088                 2.8603                 4.8845
 Frc consts  --      0.2959                 0.2600                 0.5460
 IR Inten    --      9.0683                28.8775                 2.6719

                     10                     11                     12
                      A                      A                      A
 Frequencies --    478.7296               549.6150               641.1900
 Red. masses --      4.6637                 2.1522                 4.4619
 Frc consts  --      0.6297                 0.3830                 1.0808
 IR Inten    --      8.2399                 2.8299                11.8954

                     13                     14                     15
                      A                      A                      A
 Frequencies --    673.5177               712.4699               754.4359
 Red. masses --      3.0522                 3.3210                 1.9107
 Frc consts  --      0.8158                 0.9932                 0.6407
 IR Inten    --      5.9399                 9.3431                15.1983

                     16                     17                     18
                      A                      A                      A
 Frequencies --    851.5572               899.7367               912.7599
 Red. masses --      2.6241                 3.6038                 2.7678
 Frc consts  --      1.1212                 1.7189                 1.3586
 IR Inten    --     24.2635                 2.0531                17.4516

                     19                     20                     21
                      A                      A                      A
 Frequencies --    951.2110               985.7400              1001.4926
 Red. masses --      2.0431                 1.2776                 1.8233
 Frc consts  --      1.0892                 0.7314                 1.0775
 IR Inten    --      5.3135                 0.6173                 3.8879

                     22                     23                     24
                      A                      A                      A
 Frequencies --   1033.4765              1051.2881              1083.2507
 Red. masses --      2.2567                 2.4604                 2.2016
 Frc consts  --      1.4202                 1.6021                 1.5221
 IR Inten    --     50.3766                42.5010                25.6946

                     25                     26                     27
                      A                      A                      A
 Frequencies --   1108.1485              1141.1048              1184.1171
 Red. masses --      1.8249                 2.0301                 1.1605
 Frc consts  --      1.3204                 1.5575                 0.9587
 IR Inten    --     28.4827                 3.7909                 5.4630

                     28                     29                     30
                      A                      A                      A
 Frequencies --   1201.2429              1242.8714              1280.3051
 Red. masses --      1.1277                 2.1794                 1.4969
 Frc consts  --      0.9588                 1.9836                 1.4457
 IR Inten    --      1.4579                15.9335                11.6684

                     31                     32                     33
                      A                      A                      A
 Frequencies --   1313.0509              1351.1606              1361.3164
 Red. masses --      1.3041                 1.5328                 1.5057
 Frc consts  --      1.3247                 1.6487                 1.6440
 IR Inten    --      0.6708                 2.4617                 4.7191

                     34                     35                     36
                      A                      A                      A
 Frequencies --   1411.9812              1419.6627              1424.3040
 Red. masses --      1.2744                 1.7584                 1.2734
 Frc consts  --      1.4970                 2.0880                 1.5220
 IR Inten    --      5.2707                 5.3307                54.6949

                     37                     38                     39
                      A                      A                      A
 Frequencies --   1453.8988              1470.2073              1485.3529
 Red. masses --      2.0239                 1.1600                 1.1043
 Frc consts  --      2.5207                 1.4773                 1.4354
 IR Inten    --     20.8842                 3.0540                 5.8281

                     40                     41                     42
                      A                      A                      A
 Frequencies --   1497.6395              1711.2139              3013.6316
 Red. masses --      1.2169                 6.9322                 1.0694
 Frc consts  --      1.6082                11.9599                 5.7224
 IR Inten    --      1.6248                10.3621                10.9935

                     43                     44                     45
                      A                      A                      A
 Frequencies --   3034.9414              3036.7033              3083.1217
 Red. masses --      1.0377                 1.0810                 1.0931
 Frc consts  --      5.6315                 5.8734                 6.1218
 IR Inten    --     16.8574                27.2947                23.9581

                     46                     47                     48
                      A                      A                      A
 Frequencies --   3097.2411              3100.6942              3127.8962
 Red. masses --      1.1004                 1.0885                 1.1008
 Frc consts  --      6.2196                 6.1659                 6.3453
 IR Inten    --     14.5004                31.2670                15.7149

                     49                     50                     51
                      A                      A                      A
 Frequencies --   3157.7518              3180.3173              3792.9494
 Red. masses --      1.0839                 1.0979                 1.0659
 Frc consts  --      6.3680                 6.5429                 9.0350
 IR Inten    --      4.8158                26.3548                18.3985

 - Thermochemistry -
 -------------------
 Temperature   298.150 Kelvin.  Pressure   1.00000 Atm.
 Atom     1 has atomic number  6 and mass  12.00000

 Molecular mass:   126.06808 amu.
 Principal axes and moments of inertia in atomic units:
                           1         2         3
     Eigenvalues --   662.931611182.923261620.01283
           X            0.99907  -0.03965  -0.01705
           Y            0.03992   0.99908   0.01564
           Z            0.01642  -0.01630   0.99973
 This molecule is an asymmetric top.
 Rotational symmetry number  1.
 Warning -- assumption of classical behavior for rotation
           may cause significant error
 Rotational temperatures (Kelvin)      0.13065     0.07322     0.05346
 Rotational constants (GHZ):           2.72236     1.52566     1.11403
 Zero-point vibrational energy     417696.6 (Joules/Mol)
                                   99.83188 (Kcal/Mol)
 Warning -- explicit consideration of  11 degrees of freedom as
           vibrations may cause significant error
 Vibrational temperatures:    156.02   236.94   289.30   359.28   427.73
          (Kelvin)            507.26   529.44   565.17   626.70   688.78
                              790.77   922.53   969.04  1025.08  1085.46
                             1225.20  1294.52  1313.26  1368.58  1418.26
                             1440.92  1486.94  1512.57  1558.55  1594.38
                             1641.79  1703.68  1728.32  1788.21  1842.07
                             1889.18  1944.02  1958.63  2031.52  2042.58
                             2049.25  2091.83  2115.30  2137.09  2154.77
                             2462.05  4335.94  4366.60  4369.13  4435.92
                             4456.23  4461.20  4500.34  4543.29  4575.76
                             5457.20

 Zero-point correction=                           0.159092 (Hartree/Particle)
 Thermal correction to Energy=                    0.167475
 Thermal correction to Enthalpy=                  0.168420
 Thermal correction to Gibbs Free Energy=         0.126549
 Sum of electronic and zero-point Energies=           -423.025768
 Sum of electronic and thermal Energies=              -423.017384
 Sum of electronic and thermal Enthalpies=            -423.016440
 Sum of electronic and thermal Free Energies=         -423.058311

                     E (Thermal)             CV                S
                      KCal/Mol        Cal/Mol-Kelvin    Cal/Mol-Kelvin
 Total                  105.092             32.894             88.124
 Electronic               0.000              0.000              0.000
 Translational            0.889              2.981             40.409
 Rotational               0.889              2.981             28.631
 Vibrational            103.315             26.933             19.084
 Vibration     1          0.606              1.942              3.297
 Vibration     2          0.623              1.886              2.495
 Vibration     3          0.638              1.838              2.123
 Vibration     4          0.663              1.763              1.733
 Vibration     5          0.691              1.679              1.432
 Vibration     6          0.729              1.570              1.155
 Vibration     7          0.741              1.538              1.088
 Vibration     8          0.760              1.486              0.989
 Vibration     9          0.796              1.393              0.841
 Vibration    10          0.835              1.297              0.714
 Vibration    11          0.905              1.141              0.545

 Normal termination of Gaussian 09 at Tue Jan 28 04:45:13 2020.
