 Gaussian 09, Revision D.01,
 Gaussian 09:  ES64L-G09RevD.01 24-Apr-2013

 -----------------------------
 # b3lyp 6-31G(2df,p) opt Freq
 -----------------------------

 -----
 titel
 -----
 Symbolic Z-matrix:
 Charge =  0 Multiplicity = 1

 SCF Done:  E(RB3LYP) =  -423.184645515     A.U. after   14 cycles
 Optimization completed.
    -- Stationary point found.
 Normal termination of Gaussian 09 at Mon Jan 27 16:22:51 2020.

 ----------------------------------------------------------------------
 #N Geom=AllCheck Guess=TCheck SCRF=Check GenChk RB3LYP/6-31G(2df,p) Fr
 eq
 ----------------------------------------------------------------------

 Structure from the checkpoint file:  "/scratch/puck/g09_f1f9b053-7649-4ad1-a466-b64ea7820271/Gau-12058.chk"
 -----
 titel
 -----
 Charge =  0 Multiplicity = 1

                         Standard orientation:
 ---------------------------------------------------------------------
 Center     Atomic      Atomic             Coordinates (Angstroms)
 Number     Number       Type             X           Y           Z
 ---------------------------------------------------------------------
      1          6           0        2.207336   -1.026314   -0.414072
      2          6           0        1.249963    0.071556   -0.009588
      3          6           0        1.602100    1.473800   -0.451933
      4          8           0        0.746354   -0.028784    1.331249
      5          6           0       -0.166289   -0.274210    0.280358
      6          6           0       -0.955638   -1.573178    0.029650
      7          6           0       -2.157903   -0.722554   -0.487469
      8          6           0       -1.406603    0.550534   -0.038117
      9          8           0       -1.694891    1.708852    0.054381
     10          1           0        2.269553   -1.104628   -1.504664
     11          1           0        3.212133   -0.804621   -0.038156
     12          1           0        1.896122   -1.990919   -0.007974
     13          1           0        1.701506    1.520922   -1.541539
     14          1           0        0.834351    2.182450   -0.137244
     15          1           0        2.561421    1.772554   -0.015391
     16          1           0       -0.516240   -2.265937   -0.690038
     17          1           0       -1.174541   -2.110261    0.955167
     18          1           0       -2.316293   -0.759570   -1.569017
     19          1           0       -3.117500   -0.878337    0.010837
 ---------------------------------------------------------------------

 SCF Done:  E(RB3LYP) =  -423.184645515     A.U. after    1 cycles

 The electronic state is 1-A.
 Alpha  occ. eigenvalues --  -19.16024 -19.14272 -10.27124 -10.25578 -10.24413
 Alpha  occ. eigenvalues --  -10.19961 -10.19892 -10.18997 -10.18111  -1.08415
 Alpha  occ. eigenvalues --   -1.04831  -0.84159  -0.77530  -0.70599  -0.65991
 Alpha  occ. eigenvalues --   -0.63819  -0.58639  -0.51521  -0.48141  -0.48021
 Alpha  occ. eigenvalues --   -0.46948  -0.45407  -0.42689  -0.41945  -0.40086
 Alpha  occ. eigenvalues --   -0.39236  -0.38536  -0.37821  -0.36805  -0.35592
 Alpha  occ. eigenvalues --   -0.34855  -0.29561  -0.28217  -0.24074
 Alpha virt. eigenvalues --   -0.03691   0.08723   0.10164   0.10445   0.12065
 Alpha virt. eigenvalues --    0.13526   0.14468   0.15199   0.16113   0.16889
 Alpha virt. eigenvalues --    0.17723   0.18507   0.18556   0.19708   0.20888

 Mulliken charges:
               1
     1  C   -0.451708
     2  C    0.283897
     3  C   -0.464283
     4  O   -0.310807
     5  C    0.289810
     6  C   -0.342626
     7  C   -0.344847
     8  C    0.338576
     9  O   -0.306552
    10  H    0.123982
    11  H    0.132180
    12  H    0.131170
    13  H    0.119835
    14  H    0.160719
    15  H    0.126003
    16  H    0.114568
    17  H    0.127046
    18  H    0.134960
    19  H    0.138077
 Sum of Mulliken charges =   0.00000

 Dipole moment (field-independent basis, Debye):
    X=              0.8670    Y=             -2.5379    Z=             -1.9012  Tot=              3.2874
 Quadrupole moment (field-independent basis, Debye-Ang):
   XX=            -50.7129   YY=            -56.0920   ZZ=            -54.3146
   XY=              5.0890   XZ=             -1.5620   YZ=             -0.3674

  Exact polarizability:  93.266   2.625  78.377  -0.137   0.163  61.147
 Approx polarizability: 123.843  -0.741 116.116   1.717   1.478  99.718

                      1                      2                      3
                      A                      A                      A
 Frequencies --     84.4109               122.1930               158.5068
 Red. masses --      2.5648                 3.7742                 2.0926
 Frc consts  --      0.0108                 0.0332                 0.0310
 IR Inten    --      2.5657                 1.4254                 1.3802

                      4                      5                      6
                      A                      A                      A
 Frequencies --    183.2817               197.4393               242.0984
 Red. masses --      1.3408                 1.2866                 1.6603
 Frc consts  --      0.0265                 0.0296                 0.0573
 IR Inten    --      0.8223                 0.1958                 0.2727

                      7                      8                      9
                      A                      A                      A
 Frequencies --    305.2413               352.2565               409.4998
 Red. masses --      5.2636                 2.4142                 2.9782
 Frc consts  --      0.2889                 0.1765                 0.2942
 IR Inten    --      0.7471                 0.2466                 4.5511

                     10                     11                     12
                      A                      A                      A
 Frequencies --    464.3090               492.1356               537.2946
 Red. masses --      3.3440                 3.4034                 2.2296
 Frc consts  --      0.4247                 0.4857                 0.3792
 IR Inten    --      6.7068                 0.5911                 1.2489

                     13                     14                     15
                      A                      A                      A
 Frequencies --    619.4756               695.2254               726.3869
 Red. masses --      4.5112                 4.1711                 3.4404
 Frc consts  --      1.0200                 1.1878                 1.0695
 IR Inten    --      7.5379                10.4240                 1.6450

                     16                     17                     18
                      A                      A                      A
 Frequencies --    758.2638               836.6454               920.8403
 Red. masses --      1.4839                 4.0947                 3.2329
 Frc consts  --      0.5027                 1.6887                 1.6151
 IR Inten    --      5.7183                26.5660                18.0806

                     19                     20                     21
                      A                      A                      A
 Frequencies --    950.7118               955.4334               986.9212
 Red. masses --      1.5394                 2.3215                 1.6823
 Frc consts  --      0.8198                 1.2486                 0.9654
 IR Inten    --      0.3101                 0.7823                 4.5589

                     22                     23                     24
                      A                      A                      A
 Frequencies --   1019.2941              1039.9690              1086.5146
 Red. masses --      2.6746                 1.5319                 1.9243
 Frc consts  --      1.6373                 0.9762                 1.3384
 IR Inten    --     51.8235                 2.0833                 1.4037

                     25                     26                     27
                      A                      A                      A
 Frequencies --   1100.5195              1130.7834              1175.7826
 Red. masses --      3.2793                 1.9854                 2.0796
 Frc consts  --      2.3401                 1.4957                 1.6939
 IR Inten    --     66.4531                 7.7168                20.3792

                     28                     29                     30
                      A                      A                      A
 Frequencies --   1206.5243              1218.9396              1254.7906
 Red. masses --      1.4760                 1.2983                 2.1631
 Frc consts  --      1.2659                 1.1365                 2.0066
 IR Inten    --      1.4968                 1.0110                 5.1856

                     31                     32                     33
                      A                      A                      A
 Frequencies --   1257.0177              1407.9271              1414.7182
 Red. masses --      2.2964                 1.3402                 1.3054
 Frc consts  --      2.1379                 1.5653                 1.5394
 IR Inten    --      6.6099                13.5630                 5.9500

                     34                     35                     36
                      A                      A                      A
 Frequencies --   1430.4906              1444.8426              1475.8714
 Red. masses --      1.6562                 1.4014                 1.0519
 Frc consts  --      1.9967                 1.7237                 1.3500
 IR Inten    --     34.5796                18.9972                 1.0117

                     37                     38                     39
                      A                      A                      A
 Frequencies --   1482.9889              1484.0115              1498.5302
 Red. masses --      1.0469                 1.1178                 1.0546
 Frc consts  --      1.3565                 1.4503                 1.3953
 IR Inten    --      3.9712                 2.3072                 9.7676

                     40                     41                     42
                      A                      A                      A
 Frequencies --   1512.3402              1881.2330              3034.7662
 Red. masses --      1.3313                12.8320                 1.0370
 Frc consts  --      1.7940                26.7565                 5.6270
 IR Inten    --      6.4552               224.5543                 8.0335

                     43                     44                     45
                      A                      A                      A
 Frequencies --   3039.6596              3067.8687              3077.0138
 Red. masses --      1.0371                 1.0586                 1.0597
 Frc consts  --      5.6457                 5.8700                 5.9116
 IR Inten    --     30.2573                10.9326                12.7825

                     46                     47                     48
                      A                      A                      A
 Frequencies --   3096.3709              3101.5009              3117.7642
 Red. masses --      1.1007                 1.1002                 1.1063
 Frc consts  --      6.2177                 6.2355                 6.3360
 IR Inten    --      0.2304                30.3550                 0.3698

                     49                     50                     51
                      A                      A                      A
 Frequencies --   3131.4731              3134.2506              3144.7586
 Red. masses --      1.1017                 1.1057                 1.1004
 Frc consts  --      6.3650                 6.3998                 6.4117
 IR Inten    --     22.8996                 9.5704                 3.6951

 - Thermochemistry -
 -------------------
 Temperature   298.150 Kelvin.  Pressure   1.00000 Atm.
 Atom     1 has atomic number  6 and mass  12.00000

 Molecular mass:   126.06808 amu.
 Principal axes and moments of inertia in atomic units:
                           1         2         3
     Eigenvalues --   705.982631233.600761617.53701
           X            0.99844   0.05394  -0.01439
           Y           -0.05397   0.99854  -0.00174
           Z            0.01427   0.00252   0.99989
 This molecule is an asymmetric top.
 Rotational symmetry number  1.
 Warning -- assumption of classical behavior for rotation
           may cause significant error
 Rotational temperatures (Kelvin)      0.12269     0.07021     0.05355
 Rotational constants (GHZ):           2.55635     1.46299     1.11573
 Zero-point vibrational energy     409524.1 (Joules/Mol)
                                   97.87861 (Kcal/Mol)
 Warning -- explicit consideration of  13 degrees of freedom as
           vibrations may cause significant error
 Vibrational temperatures:    121.45   175.81   228.06   263.70   284.07
          (Kelvin)            348.33   439.17   506.82   589.18   668.04
                              708.07   773.05   891.29  1000.27  1045.11
                             1090.97  1203.74  1324.88  1367.86  1374.65
                             1419.96  1466.53  1496.28  1563.25  1583.40
                             1626.94  1691.69  1735.92  1753.78  1805.36
                             1808.57  2025.69  2035.46  2058.15  2078.80
                             2123.45  2133.69  2135.16  2156.05  2175.92
                             2706.67  4366.35  4373.39  4413.97  4427.13
                             4454.98  4462.36  4485.76  4505.49  4509.48
                             4524.60

 Zero-point correction=                           0.155979 (Hartree/Particle)
 Thermal correction to Energy=                    0.165274
 Thermal correction to Enthalpy=                  0.166218
 Thermal correction to Gibbs Free Energy=         0.122114
 Sum of electronic and zero-point Energies=           -423.028666
 Sum of electronic and thermal Energies=              -423.019372
 Sum of electronic and thermal Enthalpies=            -423.018427
 Sum of electronic and thermal Free Energies=         -423.062532

                     E (Thermal)             CV                S
                      KCal/Mol        Cal/Mol-Kelvin    Cal/Mol-Kelvin
 Total                  103.711             34.597             92.825
 Electronic               0.000              0.000              0.000
 Translational            0.889              2.981             40.409
 Rotational               0.889              2.981             28.734
 Vibrational            101.933             28.636             23.683
 Vibration     1          0.601              1.960              3.786
 Vibration     2          0.610              1.931              3.065
 Vibration     3          0.621              1.893              2.568
 Vibration     4          0.631              1.863              2.295
 Vibration     5          0.637              1.843              2.157
 Vibration     6          0.658              1.776              1.787
 Vibration     7          0.696              1.664              1.388
 Vibration     8          0.729              1.571              1.156
 Vibration     9          0.774              1.450              0.928
 Vibration    10          0.822              1.329              0.754
 Vibration    11          0.848              1.267              0.678
 Vibration    12          0.892              1.168              0.571
 Vibration    13          0.979              0.991              0.417

 Normal termination of Gaussian 09 at Mon Jan 27 18:13:58 2020.
