 Gaussian 09, Revision D.01,
 Gaussian 09:  ES64L-G09RevD.01 24-Apr-2013

 -----------------------------
 # b3lyp 6-31G(2df,p) opt Freq
 -----------------------------

 -----
 titel
 -----
 Symbolic Z-matrix:
 Charge =  0 Multiplicity = 1

 SCF Done:  E(RB3LYP) =  -423.194457563     A.U. after   14 cycles
 Optimization completed.
    -- Stationary point found.
 Normal termination of Gaussian 09 at Mon Jan 27 16:07:08 2020.

 ----------------------------------------------------------------------
 #N Geom=AllCheck Guess=TCheck SCRF=Check GenChk RB3LYP/6-31G(2df,p) Fr
 eq
 ----------------------------------------------------------------------

 Structure from the checkpoint file:  "/scratch/puck/g09_89f168fd-bc21-4238-89ad-1bfe59a435a6/Gau-83567.chk"
 -----
 titel
 -----
 Charge =  0 Multiplicity = 1

                         Standard orientation:
 ---------------------------------------------------------------------
 Center     Atomic      Atomic             Coordinates (Angstroms)
 Number     Number       Type             X           Y           Z
 ---------------------------------------------------------------------
      1          6           0       -1.153343    0.111466    1.591112
      2          6           0       -1.195082   -0.072869    0.087797
      3          6           0       -2.537890   -0.541434   -0.445417
      4          6           0       -0.385938    0.796577   -0.822145
      5          8           0        0.599247    1.620178   -0.237752
      6          6           0        1.718030    0.844527    0.167801
      7          6           0        1.367775   -0.631597   -0.067763
      8          8           0        2.103930   -1.562376    0.141172
      9          6           0        0.011289   -0.656568   -0.690296
     10          1           0       -1.263671   -0.848538    2.106188
     11          1           0       -0.229778    0.579861    1.933381
     12          1           0       -1.980163    0.756964    1.907870
     13          1           0       -3.329856    0.155706   -0.149766
     14          1           0       -2.539647   -0.609670   -1.537594
     15          1           0       -2.794505   -1.529563   -0.048037
     16          1           0       -0.813395    1.220922   -1.725570
     17          1           0        2.602159    1.103806   -0.430959
     18          1           0        1.957952    1.029832    1.221494
     19          1           0       -0.183565   -1.422347   -1.430898
 ---------------------------------------------------------------------

 SCF Done:  E(RB3LYP) =  -423.194457563     A.U. after    1 cycles

 The electronic state is 1-A.
 Alpha  occ. eigenvalues --  -19.15646 -19.13128 -10.27305 -10.24844 -10.23941
 Alpha  occ. eigenvalues --  -10.21901 -10.20121 -10.19141 -10.18642  -1.06136
 Alpha  occ. eigenvalues --   -1.03819  -0.87515  -0.74935  -0.73705  -0.70267
 Alpha  occ. eigenvalues --   -0.62050  -0.58865  -0.54422  -0.49664  -0.48162
 Alpha  occ. eigenvalues --   -0.46091  -0.44679  -0.43908  -0.43221  -0.41039
 Alpha  occ. eigenvalues --   -0.39727  -0.39189  -0.37904  -0.37124  -0.35856
 Alpha  occ. eigenvalues --   -0.33258  -0.28586  -0.25416  -0.24129
 Alpha virt. eigenvalues --   -0.02225   0.08130   0.09534   0.10630   0.11574
 Alpha virt. eigenvalues --    0.12285   0.13609   0.14931   0.15705   0.17626
 Alpha virt. eigenvalues --    0.17788   0.18938   0.19784   0.20939   0.21670

 Mulliken charges:
               1
     1  C   -0.461171
     2  C    0.268174
     3  C   -0.450221
     4  C    0.056212
     5  O   -0.263127
     6  C   -0.193989
     7  C    0.371399
     8  O   -0.319190
     9  C   -0.249400
    10  H    0.127170
    11  H    0.133137
    12  H    0.123049
    13  H    0.124717
    14  H    0.118878
    15  H    0.128003
    16  H    0.104689
    17  H    0.134678
    18  H    0.134716
    19  H    0.112277
 Sum of Mulliken charges =   0.00000

 Dipole moment (field-independent basis, Debye):
    X=             -2.1948    Y=              0.8505    Z=             -0.4726  Tot=              2.4008
 Quadrupole moment (field-independent basis, Debye-Ang):
   XX=            -54.0232   YY=            -59.7955   ZZ=            -50.3587
   XY=              5.3888   XZ=              0.1122   YZ=              1.0809

  Exact polarizability:  91.674  -0.450  70.163   1.807   0.491  67.377
 Approx polarizability: 125.509  -8.847 114.158   3.246  -1.219  98.314

                      1                      2                      3
                      A                      A                      A
 Frequencies --    105.5345               142.4434               151.9926
 Red. masses --      3.7839                 1.0873                 2.6151
 Frc consts  --      0.0248                 0.0130                 0.0356
 IR Inten    --      6.0157                 0.0483                 3.4416

                      4                      5                      6
                      A                      A                      A
 Frequencies --    188.8696               223.2415               263.6398
 Red. masses --      2.1627                 1.3815                 2.6567
 Frc consts  --      0.0455                 0.0406                 0.1088
 IR Inten    --      0.5400                 1.4465                 2.2132

                      7                      8                      9
                      A                      A                      A
 Frequencies --    340.8597               389.9507               459.5578
 Red. masses --      2.4609                 2.8372                 4.2789
 Frc consts  --      0.1685                 0.2542                 0.5324
 IR Inten    --      0.6206                 0.6254                11.5179

                     10                     11                     12
                      A                      A                      A
 Frequencies --    491.8658               556.7904               608.6220
 Red. masses --      3.3052                 2.8734                 6.6420
 Frc consts  --      0.4711                 0.5248                 1.4496
 IR Inten    --      3.8508                 3.1089                 2.8894

                     13                     14                     15
                      A                      A                      A
 Frequencies --    677.8400               729.8216               825.8356
 Red. masses --      3.9558                 4.3716                 3.2637
 Frc consts  --      1.0709                 1.3719                 1.3114
 IR Inten    --      1.7128                10.7626                 4.3631

                     16                     17                     18
                      A                      A                      A
 Frequencies --    860.2605               879.7374               956.1608
 Red. masses --      1.8232                 2.6683                 2.4292
 Frc consts  --      0.7950                 1.2167                 1.3085
 IR Inten    --      1.7036                35.3929                12.2592

                     19                     20                     21
                      A                      A                      A
 Frequencies --    971.8836               991.7302              1012.7385
 Red. masses --      1.3845                 1.8544                 1.9756
 Frc consts  --      0.7705                 1.0746                 1.1938
 IR Inten    --      1.1529                 7.1890                 2.8954

                     22                     23                     24
                      A                      A                      A
 Frequencies --   1031.4797              1048.9651              1083.1650
 Red. masses --      1.6631                 1.8266                 1.7484
 Frc consts  --      1.0425                 1.1842                 1.2086
 IR Inten    --     11.4523                 6.2596                11.3103

                     25                     26                     27
                      A                      A                      A
 Frequencies --   1117.7865              1148.1150              1192.0587
 Red. masses --      2.8708                 2.0934                 1.2970
 Frc consts  --      2.1134                 1.6258                 1.0859
 IR Inten    --     41.1059                49.3462                 5.7318

                     28                     29                     30
                      A                      A                      A
 Frequencies --   1202.3992              1226.2167              1284.8278
 Red. masses --      2.5576                 1.9061                 1.9821
 Frc consts  --      2.1786                 1.6886                 1.9278
 IR Inten    --     95.0145                27.9452                28.9178

                     31                     32                     33
                      A                      A                      A
 Frequencies --   1310.4084              1340.4496              1400.0990
 Red. masses --      1.6293                 1.5625                 2.6469
 Frc consts  --      1.6484                 1.6541                 3.0570
 IR Inten    --      0.9044                 0.6304                 7.0835

                     34                     35                     36
                      A                      A                      A
 Frequencies --   1409.5669              1430.0319              1477.5862
 Red. masses --      1.3023                 1.2478                 1.0496
 Frc consts  --      1.5245                 1.5034                 1.3501
 IR Inten    --      4.1655                 1.8760                 0.5425

                     37                     38                     39
                      A                      A                      A
 Frequencies --   1484.9780              1489.5804              1499.9657
 Red. masses --      1.0721                 1.0517                 1.0472
 Frc consts  --      1.3930                 1.3749                 1.3882
 IR Inten    --      2.5435                 5.3633                 6.8113

                     40                     41                     42
                      A                      A                      A
 Frequencies --   1511.0750              1837.3398              3013.7801
 Red. masses --      1.1070                12.5483                 1.0611
 Frc consts  --      1.4893                24.9583                 5.6786
 IR Inten    --      6.1295               266.8089                34.8926

                     43                     44                     45
                      A                      A                      A
 Frequencies --   3027.4732              3038.6217              3059.2560
 Red. masses --      1.0351                 1.0394                 1.1011
 Frc consts  --      5.5899                 5.6546                 6.0715
 IR Inten    --     24.3965                28.3578                15.6569

                     46                     47                     48
                      A                      A                      A
 Frequencies --   3092.1069              3095.3598              3103.7572
 Red. masses --      1.1014                 1.1005                 1.1013
 Frc consts  --      6.2044                 6.2126                 6.2507
 IR Inten    --      2.6325                33.5774                21.5506

                     49                     50                     51
                      A                      A                      A
 Frequencies --   3140.8259              3154.2736              3191.9168
 Red. masses --      1.0966                 1.0911                 1.0917
 Frc consts  --      6.3734                 6.3963                 6.5535
 IR Inten    --     15.3959                21.2939                 2.7381

 - Thermochemistry -
 -------------------
 Temperature   298.150 Kelvin.  Pressure   1.00000 Atm.
 Atom     1 has atomic number  6 and mass  12.00000

 Molecular mass:   126.06808 amu.
 Principal axes and moments of inertia in atomic units:
                           1         2         3
     Eigenvalues --   678.535271279.343211463.49660
           X            0.99863   0.05213   0.00403
           Y           -0.05226   0.99748   0.04802
           Z           -0.00152  -0.04817   0.99884
 This molecule is an asymmetric top.
 Rotational symmetry number  1.
 Warning -- assumption of classical behavior for rotation
           may cause significant error
 Rotational temperatures (Kelvin)      0.12765     0.06770     0.05918
 Rotational constants (GHZ):           2.65976     1.41068     1.23317
 Zero-point vibrational energy     414343.6 (Joules/Mol)
                                   99.03050 (Kcal/Mol)
 Warning -- explicit consideration of  12 degrees of freedom as
           vibrations may cause significant error
 Vibrational temperatures:    151.84   204.94   218.68   271.74   321.19
          (Kelvin)            379.32   490.42   561.05   661.20   707.68
                              801.10   875.67   975.26  1050.05  1188.19
                             1237.72  1265.74  1375.70  1398.32  1426.88
                             1457.10  1484.07  1509.22  1558.43  1608.24
                             1651.88  1715.10  1729.98  1764.25  1848.58
                             1885.38  1928.61  2014.43  2028.05  2057.49
                             2125.91  2136.55  2143.17  2158.11  2174.10
                             2643.52  4336.15  4355.85  4371.89  4401.58
                             4448.85  4453.53  4465.61  4518.94  4538.29
                             4592.45

 Zero-point correction=                           0.157815 (Hartree/Particle)
 Thermal correction to Energy=                    0.166592
 Thermal correction to Enthalpy=                  0.167537
 Thermal correction to Gibbs Free Energy=         0.124587
 Sum of electronic and zero-point Energies=           -423.036642
 Sum of electronic and thermal Energies=              -423.027865
 Sum of electronic and thermal Enthalpies=            -423.026921
 Sum of electronic and thermal Free Energies=         -423.069871

                     E (Thermal)             CV                S
                      KCal/Mol        Cal/Mol-Kelvin    Cal/Mol-Kelvin
 Total                  104.538             33.089             90.395
 Electronic               0.000              0.000              0.000
 Translational            0.889              2.981             40.409
 Rotational               0.889              2.981             28.631
 Vibrational            102.761             27.128             21.355
 Vibration     1          0.605              1.945              3.349
 Vibration     2          0.616              1.911              2.771
 Vibration     3          0.619              1.900              2.647
 Vibration     4          0.633              1.855              2.239
 Vibration     5          0.649              1.806              1.933
 Vibration     6          0.670              1.740              1.638
 Vibration     7          0.720              1.594              1.208
 Vibration     8          0.758              1.492              1.000
 Vibration     9          0.817              1.340              0.767
 Vibration    10          0.848              1.268              0.679
 Vibration    11          0.912              1.125              0.530
 Vibration    12          0.968              1.014              0.435

 Optimization completed.
    -- Stationary point found.
 Normal termination of Gaussian 09 at Mon Jan 27 16:54:29 2020.
