 Gaussian 09, Revision D.01,
 Gaussian 09:  ES64L-G09RevD.01 24-Apr-2013

 -----------------------------
 # b3lyp 6-31G(2df,p) opt Freq
 -----------------------------

 -----
 titel
 -----
 Symbolic Z-matrix:
 Charge =  0 Multiplicity = 1

 SCF Done:  E(RB3LYP) =  -423.126917348     A.U. after   14 cycles
 SCF Done:  E(RB3LYP) =  -423.126917498     A.U. after    6 cycles
 Optimization completed.
    -- Stationary point found.
 Normal termination of Gaussian 09 at Tue Jan 28 09:43:59 2020.

 ----------------------------------------------------------------------
 #N Geom=AllCheck Guess=TCheck SCRF=Check GenChk RB3LYP/6-31G(2df,p) Fr
 eq
 ----------------------------------------------------------------------

 Structure from the checkpoint file:  "/scratch/puck/g09_af018b07-9408-4291-ac8f-3f892cda4fac/Gau-132231.chk"
 -----
 titel
 -----
 Charge =  0 Multiplicity = 1

                         Standard orientation:
 ---------------------------------------------------------------------
 Center     Atomic      Atomic             Coordinates (Angstroms)
 Number     Number       Type             X           Y           Z
 ---------------------------------------------------------------------
      1          6           0       -2.850780   -0.412307   -0.378233
      2          6           0       -1.794709   -0.165393    0.708721
      3          6           0       -0.445806    0.157829    0.134019
      4          8           0       -0.261999    1.437113   -0.490977
      5          6           0        0.570728    1.092965    0.619231
      6          6           0        1.856165    0.318290    0.203188
      7          6           0        1.518867   -1.110769    0.717631
      8          6           0        0.514324   -0.929362   -0.457556
      9          8           0        1.522007   -0.135243   -1.134194
     10          1           0       -3.826238   -0.627086    0.067533
     11          1           0       -2.952413    0.468654   -1.018239
     12          1           0       -2.580340   -1.260412   -1.015798
     13          1           0       -2.112647    0.662897    1.351135
     14          1           0       -1.704237   -1.050463    1.352129
     15          1           0        0.505235    1.708274    1.510336
     16          1           0        2.832739    0.791942    0.292595
     17          1           0        2.303126   -1.835712    0.494211
     18          1           0        1.132686   -1.231008    1.734444
     19          1           0        0.109287   -1.749567   -1.048983
 ---------------------------------------------------------------------

 SCF Done:  E(RB3LYP) =  -423.126917498     A.U. after    1 cycles

 The electronic state is 1-A.
 Alpha  occ. eigenvalues --  -19.14703 -19.13802 -10.24525 -10.24396 -10.23552
 Alpha  occ. eigenvalues --  -10.23135 -10.19784 -10.19395 -10.17868  -1.09010
 Alpha  occ. eigenvalues --   -1.03176  -0.78958  -0.76576  -0.70127  -0.67131
 Alpha  occ. eigenvalues --   -0.63047  -0.57306  -0.54906  -0.51769  -0.48856
 Alpha  occ. eigenvalues --   -0.46479  -0.45444  -0.42692  -0.41711  -0.39292
 Alpha  occ. eigenvalues --   -0.38050  -0.37110  -0.35274  -0.34982  -0.33761
 Alpha  occ. eigenvalues --   -0.33248  -0.28768  -0.26376  -0.24064
 Alpha virt. eigenvalues --    0.07233   0.08056   0.09735   0.11496   0.12026
 Alpha virt. eigenvalues --    0.12655   0.13705   0.15456   0.15980   0.16885
 Alpha virt. eigenvalues --    0.17255   0.17677   0.18648   0.19209   0.22082

 Mulliken charges:
               1
     1  C   -0.379068
     2  C   -0.296867
     3  C    0.442106
     4  O   -0.277637
     5  C   -0.062242
     6  C    0.020084
     7  C   -0.236226
     8  C   -0.021524
     9  O   -0.259757
    10  H    0.114207
    11  H    0.139782
    12  H    0.117971
    13  H    0.110258
    14  H    0.101248
    15  H    0.101062
    16  H    0.088854
    17  H    0.113867
    18  H    0.098446
    19  H    0.085435
 Sum of Mulliken charges =   0.00000

 Dipole moment (field-independent basis, Debye):
    X=             -0.2851    Y=             -1.5324    Z=              2.6922  Tot=              3.1109
 Quadrupole moment (field-independent basis, Debye-Ang):
   XX=            -50.8235   YY=            -53.2174   ZZ=            -54.7509
   XY=              1.4552   XZ=              2.7473   YZ=              2.7707

  Exact polarizability:  85.646   1.717  71.125   2.502   2.475  64.753
 Approx polarizability: 112.012   4.124 110.682   3.317   1.063 104.762

                      1                      2                      3
                      A                      A                      A
 Frequencies --     84.4853               146.8921               197.9796
 Red. masses --      2.4731                 3.2331                 1.2628
 Frc consts  --      0.0104                 0.0411                 0.0292
 IR Inten    --      0.6669                 1.2668                 0.1276

                      4                      5                      6
                      A                      A                      A
 Frequencies --    278.8338               330.5653               408.2641
 Red. masses --      1.9964                 2.9314                 3.0121
 Frc consts  --      0.0915                 0.1887                 0.2958
 IR Inten    --      0.1097                 0.1431                 1.6352

                      7                      8                      9
                      A                      A                      A
 Frequencies --    485.9383               507.2076               604.3339
 Red. masses --      4.1730                 3.4228                 3.6903
 Frc consts  --      0.5806                 0.5188                 0.7941
 IR Inten    --      1.5271                 0.9466                 6.2289

                     10                     11                     12
                      A                      A                      A
 Frequencies --    694.2393               723.9342               770.9523
 Red. masses --      4.9223                 4.0352                 1.4050
 Frc consts  --      1.3978                 1.2460                 0.4920
 IR Inten    --     27.7910                 0.5283                 0.2846

                     13                     14                     15
                      A                      A                      A
 Frequencies --    830.2810               855.1277               868.8080
 Red. masses --      3.2606                 2.3078                 2.1957
 Frc consts  --      1.3243                 0.9943                 0.9765
 IR Inten    --      4.5250                 5.7582                12.3379

                     16                     17                     18
                      A                      A                      A
 Frequencies --    881.2593               899.7867               947.9278
 Red. masses --      2.4859                 3.3799                 3.9517
 Frc consts  --      1.1375                 1.6122                 2.0921
 IR Inten    --      7.0176                32.7272                20.9319

                     19                     20                     21
                      A                      A                      A
 Frequencies --    956.2646               968.1855              1013.4864
 Red. masses --      2.9564                 2.5775                 1.5940
 Frc consts  --      1.5928                 1.4235                 0.9646
 IR Inten    --     16.9855                 8.4427                 5.9703

                     22                     23                     24
                      A                      A                      A
 Frequencies --   1028.2995              1057.2922              1085.6173
 Red. masses --      1.9767                 1.9068                 1.9183
 Frc consts  --      1.2315                 1.2559                 1.3321
 IR Inten    --      5.6597                 4.7565                 5.1509

                     25                     26                     27
                      A                      A                      A
 Frequencies --   1099.7023              1112.0717              1172.4632
 Red. masses --      1.6772                 2.2506                 1.4482
 Frc consts  --      1.1951                 1.6399                 1.1729
 IR Inten    --      0.4700                 5.0173                 7.2431

                     28                     29                     30
                      A                      A                      A
 Frequencies --   1199.2966              1222.6927              1245.2107
 Red. masses --      1.9340                 1.3699                 1.5116
 Frc consts  --      1.6389                 1.2066                 1.3809
 IR Inten    --      2.2202                 4.1268                 4.0954

                     31                     32                     33
                      A                      A                      A
 Frequencies --   1261.9779              1274.4004              1302.0306
 Red. masses --      1.3762                 1.5479                 1.4949
 Frc consts  --      1.2913                 1.4812                 1.4932
 IR Inten    --      3.1941                 1.6350                 6.3726

                     34                     35                     36
                      A                      A                      A
 Frequencies --   1321.2794              1356.5353              1411.2859
 Red. masses --      1.3642                 1.5239                 1.2366
 Frc consts  --      1.4032                 1.6522                 1.4511
 IR Inten    --      2.4643                 5.5330                 2.4604

                     37                     38                     39
                      A                      A                      A
 Frequencies --   1457.0688              1474.2998              1483.2424
 Red. masses --      3.0193                 1.1477                 1.1853
 Frc consts  --      3.7767                 1.4698                 1.5363
 IR Inten    --      5.4743                 2.4144                 3.8437

                     40                     41                     42
                      A                      A                      A
 Frequencies --   1498.6293              1509.3057              3024.5286
 Red. masses --      1.0406                 1.1131                 1.0626
 Frc consts  --      1.3770                 1.4940                 5.7269
 IR Inten    --      5.1254                 5.4155                18.3855

                     43                     44                     45
                      A                      A                      A
 Frequencies --   3040.5781              3055.8770              3069.3260
 Red. masses --      1.0356                 1.0592                 1.0985
 Frc consts  --      5.6407                 5.8279                 6.0975
 IR Inten    --     21.3894                35.0265                10.6235

                     46                     47                     48
                      A                      A                      A
 Frequencies --   3108.8359              3120.5680              3130.1136
 Red. masses --      1.1011                 1.1024                 1.0944
 Frc consts  --      6.2703                 6.3249                 6.3177
 IR Inten    --     35.7064                19.3320                27.5722

                     49                     50                     51
                      A                      A                      A
 Frequencies --   3131.7450              3138.8422              3173.6975
 Red. masses --      1.0933                 1.1014                 1.0931
 Frc consts  --      6.3178                 6.3937                 6.4871
 IR Inten    --     36.8560                35.1411                15.1713

 - Thermochemistry -
 -------------------
 Temperature   298.150 Kelvin.  Pressure   1.00000 Atm.
 Atom     1 has atomic number  6 and mass  12.00000

 Molecular mass:   126.06808 amu.
 Principal axes and moments of inertia in atomic units:
                           1         2         3
     Eigenvalues --   537.264191298.902791418.76989
           X            0.99978   0.00888   0.01891
           Y           -0.00986   0.99860   0.05201
           Z           -0.01842  -0.05218   0.99847
 This molecule is an asymmetric top.
 Rotational symmetry number  1.
 Warning -- assumption of classical behavior for rotation
           may cause significant error
 Rotational temperatures (Kelvin)      0.16121     0.06668     0.06105
 Rotational constants (GHZ):           3.35913     1.38944     1.27205
 Zero-point vibrational energy     418822.0 (Joules/Mol)
                                  100.10085 (Kcal/Mol)
 Warning -- explicit consideration of   9 degrees of freedom as
           vibrations may cause significant error
 Vibrational temperatures:    121.56   211.34   284.85   401.18   475.61
          (Kelvin)            587.40   699.16   729.76   869.50   998.85
                             1041.58  1109.23  1194.59  1230.34  1250.02
                             1267.93  1294.59  1363.85  1375.85  1393.00
                             1458.18  1479.49  1521.21  1561.96  1582.22
                             1600.02  1686.91  1725.52  1759.18  1791.58
                             1815.70  1833.58  1873.33  1901.02  1951.75
                             2030.52  2096.39  2121.19  2134.05  2156.19
                             2171.55  4351.62  4374.71  4396.72  4416.07
                             4472.92  4489.80  4503.53  4505.88  4516.09
                             4566.24

 Zero-point correction=                           0.159521 (Hartree/Particle)
 Thermal correction to Energy=                    0.167143
 Thermal correction to Enthalpy=                  0.168087
 Thermal correction to Gibbs Free Energy=         0.127362
 Sum of electronic and zero-point Energies=           -422.967397
 Sum of electronic and thermal Energies=              -422.959774
 Sum of electronic and thermal Enthalpies=            -422.958830
 Sum of electronic and thermal Free Energies=         -422.999556

                     E (Thermal)             CV                S
                      KCal/Mol        Cal/Mol-Kelvin    Cal/Mol-Kelvin
 Total                  104.884             30.231             85.714
 Electronic               0.000              0.000              0.000
 Translational            0.889              2.981             40.409
 Rotational               0.889              2.981             28.384
 Vibrational            103.106             24.269             16.922
 Vibration     1          0.601              1.960              3.784
 Vibration     2          0.617              1.906              2.712
 Vibration     3          0.637              1.843              2.152
 Vibration     4          0.679              1.713              1.541
 Vibration     5          0.713              1.614              1.257
 Vibration     6          0.773              1.452              0.933
 Vibration     7          0.842              1.281              0.694
 Vibration     8          0.862              1.234              0.640
 Vibration     9          0.963              1.023              0.442

 Optimization completed.
    -- Stationary point found.
 Normal termination of Gaussian 09 at Tue Jan 28 10:28:21 2020.
