 Gaussian 09, Revision D.01,
 Gaussian 09:  ES64L-G09RevD.01 24-Apr-2013

 -----------------------------
 # b3lyp 6-31G(2df,p) opt Freq
 -----------------------------

 -----
 titel
 -----
 Symbolic Z-matrix:
 Charge =  0 Multiplicity = 1

 SCF Done:  E(RB3LYP) =  -423.150789658     A.U. after   14 cycles
 Optimization completed.
    -- Stationary point found.
 Normal termination of Gaussian 09 at Tue Jan 28 14:24:22 2020.

 ----------------------------------------------------------------------
 #N Geom=AllCheck Guess=TCheck SCRF=Check GenChk RB3LYP/6-31G(2df,p) Fr
 eq
 ----------------------------------------------------------------------

 Structure from the checkpoint file:  "/scratch/puck/g09_efeedb42-3019-4bc8-a477-fa2f72e6e5a5/Gau-164029.chk"
 -----
 titel
 -----
 Charge =  0 Multiplicity = 1

                         Standard orientation:
 ---------------------------------------------------------------------
 Center     Atomic      Atomic             Coordinates (Angstroms)
 Number     Number       Type             X           Y           Z
 ---------------------------------------------------------------------
      1          6           0        4.276091   -0.946670    0.074061
      2          6           0        3.385549    0.230684   -0.282049
      3          8           0        2.053977   -0.092660    0.073250
      4          6           0        1.148630    0.950925   -0.222812
      5          6           0       -0.203732    0.567101    0.160361
      6          6           0       -1.323989    0.272620    0.486634
      7          6           0       -2.689742   -0.099363    0.822044
      8          6           0       -3.509084   -0.491279   -0.410319
      9          8           0       -4.669349   -0.217965   -0.551740
     10          1           0        5.315760   -0.730396   -0.189013
     11          1           0        4.224359   -1.155683    1.146159
     12          1           0        3.959555   -1.843430   -0.465750
     13          1           0        3.710894    1.140053    0.251766
     14          1           0        3.447340    0.452893   -1.361233
     15          1           0        1.435444    1.875214    0.309120
     16          1           0        1.175153    1.191834   -1.300239
     17          1           0       -2.683729   -0.976016    1.488220
     18          1           0       -3.223679    0.696673    1.351256
     19          1           0       -2.940447   -1.070249   -1.169879
 ---------------------------------------------------------------------

 SCF Done:  E(RB3LYP) =  -423.150789658     A.U. after    2 cycles

 The electronic state is 1-A.
 Alpha  occ. eigenvalues --  -19.14921 -19.14623 -10.28242 -10.25683 -10.23416
 Alpha  occ. eigenvalues --  -10.22311 -10.18910 -10.18440 -10.17968  -1.05717
 Alpha  occ. eigenvalues --   -1.04127  -0.80755  -0.77908  -0.73431  -0.67760
 Alpha  occ. eigenvalues --   -0.61381  -0.59377  -0.51879  -0.50094  -0.49270
 Alpha  occ. eigenvalues --   -0.48446  -0.46859  -0.44896  -0.43727  -0.42567
 Alpha  occ. eigenvalues --   -0.38976  -0.38338  -0.37968  -0.36175  -0.32873
 Alpha  occ. eigenvalues --   -0.28538  -0.27255  -0.26251  -0.24845
 Alpha virt. eigenvalues --   -0.02952   0.02944   0.04724   0.09236   0.11450
 Alpha virt. eigenvalues --    0.11663   0.13236   0.14564   0.15176   0.16526
 Alpha virt. eigenvalues --    0.17328   0.18502   0.19256   0.19413   0.19666

 Mulliken charges:
               1
     1  C   -0.386842
     2  C   -0.018027
     3  O   -0.241166
     4  C   -0.205341
     5  C    0.012634
     6  C    0.120374
     7  C   -0.417243
     8  C    0.170105
     9  O   -0.229771
    10  H    0.116372
    11  H    0.129984
    12  H    0.129777
    13  H    0.087532
    14  H    0.087437
    15  H    0.116980
    16  H    0.115862
    17  H    0.160098
    18  H    0.155332
    19  H    0.095903
 Sum of Mulliken charges =   0.00000

 Dipole moment (field-independent basis, Debye):
    X=              2.7478    Y=              0.3917    Z=              0.2192  Tot=              2.7842
 Quadrupole moment (field-independent basis, Debye-Ang):
   XX=            -61.8746   YY=            -51.4320   ZZ=            -52.2184
   XY=              3.4215   XZ=             -5.7324   YZ=             -0.3763

  Exact polarizability: 124.148   3.642  63.815  -5.049   0.260  64.740
 Approx polarizability: 160.558   8.680  93.012 -10.622  -2.189  94.990

                      1                      2                      3
                      A                      A                      A
 Frequencies --     17.3607                47.0796                67.5552
 Red. masses --      3.8546                 3.9444                 2.0344
 Frc consts  --      0.0007                 0.0052                 0.0055
 IR Inten    --      1.8227                 3.6718                 4.3299

                      4                      5                      6
                      A                      A                      A
 Frequencies --     81.2193               108.7642               130.1768
 Red. masses --      3.8041                 3.7797                 2.3996
 Frc consts  --      0.0148                 0.0263                 0.0240
 IR Inten    --      3.2072                 3.3638                 2.8400

                      7                      8                      9
                      A                      A                      A
 Frequencies --    227.8564               242.2732               284.1678
 Red. masses --      3.3941                 1.1824                 3.3534
 Frc consts  --      0.1038                 0.0409                 0.1595
 IR Inten    --      3.1003                 1.4554                 5.1593

                     10                     11                     12
                      A                      A                      A
 Frequencies --    332.6918               395.0330               460.8142
 Red. masses --      3.6222                 4.0895                 4.1523
 Frc consts  --      0.2362                 0.3760                 0.5195
 IR Inten    --      3.0452                 1.4379                19.1287

                     13                     14                     15
                      A                      A                      A
 Frequencies --    493.7034               540.6409               724.7791
 Red. masses --      4.8941                 4.3761                 1.7049
 Frc consts  --      0.7028                 0.7536                 0.5277
 IR Inten    --      0.5638                 0.8126                 0.9834

                     16                     17                     18
                      A                      A                      A
 Frequencies --    822.4783               833.7675               908.9121
 Red. masses --      1.0820                 2.9421                 2.0955
 Frc consts  --      0.4312                 1.2050                 1.0199
 IR Inten    --      0.5015                 1.6438                10.0205

                     19                     20                     21
                      A                      A                      A
 Frequencies --   1024.3352              1032.4598              1036.1182
 Red. masses --      1.8780                 3.7055                 2.8425
 Frc consts  --      1.1610                 2.3272                 1.7979
 IR Inten    --     17.9586                23.3706                30.5114

                     22                     23                     24
                      A                      A                      A
 Frequencies --   1042.9719              1131.3520              1147.7472
 Red. masses --      1.8547                 4.6460                 2.7315
 Frc consts  --      1.1887                 3.5037                 2.1201
 IR Inten    --      2.7717               162.4977                48.2053

                     25                     26                     27
                      A                      A                      A
 Frequencies --   1177.5385              1188.4308              1212.4624
 Red. masses --      2.8385                 1.5249                 1.1996
 Frc consts  --      2.3190                 1.2689                 1.0390
 IR Inten    --     62.7470                 5.5490                 6.6655

                     28                     29                     30
                      A                      A                      A
 Frequencies --   1255.0783              1291.8151              1294.5956
 Red. masses --      1.0838                 1.6141                 1.1088
 Frc consts  --      1.0058                 1.5870                 1.0948
 IR Inten    --      3.8878                11.0531                 2.5575

                     31                     32                     33
                      A                      A                      A
 Frequencies --   1378.7188              1405.6820              1414.3784
 Red. masses --      1.2468                 1.2614                 1.1663
 Frc consts  --      1.3964                 1.4685                 1.3746
 IR Inten    --    114.0587                17.7184                 9.6403

                     34                     35                     36
                      A                      A                      A
 Frequencies --   1437.8009              1448.5648              1483.0289
 Red. masses --      1.1037                 1.5041                 1.0402
 Frc consts  --      1.3443                 1.8596                 1.3479
 IR Inten    --      6.0012                17.2619                 4.1682

                     37                     38                     39
                      A                      A                      A
 Frequencies --   1496.1822              1501.2485              1531.5863
 Red. masses --      1.0759                 1.0499                 1.0903
 Frc consts  --      1.4191                 1.3941                 1.5069
 IR Inten    --      3.9950                 0.1945                 3.1217

                     40                     41                     42
                      A                      A                      A
 Frequencies --   1841.4081              2374.7226              2903.0121
 Red. masses --     10.2732                11.8794                 1.0852
 Frc consts  --     20.5237                39.4704                 5.3883
 IR Inten    --    215.2940                 5.0594                76.7820

                     43                     44                     45
                      A                      A                      A
 Frequencies --   2942.8429              2955.1648              2961.1078
 Red. masses --      1.0541                 1.0545                 1.1023
 Frc consts  --      5.3785                 5.4259                 5.6948
 IR Inten    --      9.2413                87.7076                52.0693

                     46                     47                     48
                      A                      A                      A
 Frequencies --   2976.9823              3003.4963              3046.5130
 Red. masses --      1.1057                 1.0667                 1.0347
 Frc consts  --      5.7737                 5.6696                 5.6580
 IR Inten    --     44.7065                11.0138                16.8969

                     49                     50                     51
                      A                      A                      A
 Frequencies --   3080.1318              3120.9534              3124.3633
 Red. masses --      1.0917                 1.1015                 1.1028
 Frc consts  --      6.1024                 6.3212                 6.3424
 IR Inten    --      4.6114                23.9393                24.1612

 - Thermochemistry -
 -------------------
 Temperature   298.150 Kelvin.  Pressure   1.00000 Atm.
 Atom     1 has atomic number  6 and mass  12.00000

 Molecular mass:   126.06808 amu.
 Principal axes and moments of inertia in atomic units:
                           1         2         3
     Eigenvalues --   270.914654257.084794310.09063
           X            0.99997  -0.00280  -0.00664
           Y            0.00241   0.99831  -0.05810
           Z            0.00679   0.05808   0.99829
 This molecule is an asymmetric top.
 Rotational symmetry number  1.
 Rotational temperatures (Kelvin)      0.31971     0.02035     0.02010
 Rotational constants (GHZ):           6.66166     0.42394     0.41872
 Zero-point vibrational energy     406623.1 (Joules/Mol)
                                   97.18524 (Kcal/Mol)
 Warning -- explicit consideration of  14 degrees of freedom as
           vibrations may cause significant error
 Vibrational temperatures:     24.98    67.74    97.20   116.86   156.49
          (Kelvin)            187.30   327.83   348.58   408.85   478.67
                              568.36   663.01   710.33   777.86  1042.79
                             1183.36  1199.60  1307.72  1473.79  1485.48
                             1490.74  1500.60  1627.76  1651.35  1694.21
                             1709.88  1744.46  1805.78  1858.63  1862.63
                             1983.67  2022.46  2034.97  2068.67  2084.16
                             2133.75  2152.67  2159.96  2203.61  2649.37
                             3416.69  4176.78  4234.09  4251.82  4260.37
                             4283.21  4321.36  4383.25  4431.62  4490.35
                             4495.26

 Zero-point correction=                           0.154875 (Hartree/Particle)
 Thermal correction to Energy=                    0.165862
 Thermal correction to Enthalpy=                  0.166807
 Thermal correction to Gibbs Free Energy=         0.115704
 Sum of electronic and zero-point Energies=           -422.995915
 Sum of electronic and thermal Energies=              -422.984927
 Sum of electronic and thermal Enthalpies=            -422.983983
 Sum of electronic and thermal Free Energies=         -423.035085

                     E (Thermal)             CV                S
                      KCal/Mol        Cal/Mol-Kelvin    Cal/Mol-Kelvin
 Total                  104.080             36.124            107.554
 Electronic               0.000              0.000              0.000
 Translational            0.889              2.981             40.409
 Rotational               0.889              2.981             29.987
 Vibrational            102.303             30.163             37.158
 Vibration     1          0.593              1.986              6.915
 Vibration     2          0.595              1.979              4.936
 Vibration     3          0.598              1.970              4.223
 Vibration     4          0.600              1.962              3.861
 Vibration     5          0.606              1.942              3.291
 Vibration     6          0.612              1.923              2.943
 Vibration     7          0.651              1.799              1.896
 Vibration     8          0.658              1.776              1.786
 Vibration     9          0.683              1.703              1.508
 Vibration    10          0.715              1.610              1.247
 Vibration    11          0.762              1.481              0.981
 Vibration    12          0.819              1.337              0.764
 Vibration    13          0.849              1.264              0.674
 Vibration    14          0.896              1.160              0.564

 Optimization completed.
    -- Stationary point found.
 Normal termination of Gaussian 09 at Tue Jan 28 14:55:45 2020.
