 Gaussian 09, Revision D.01,
 Gaussian 09:  ES64L-G09RevD.01 24-Apr-2013

 -----------------------------
 # b3lyp 6-31G(2df,p) opt Freq
 -----------------------------

 -----
 titel
 -----
 Symbolic Z-matrix:
 Charge =  0 Multiplicity = 1

 SCF Done:  E(RB3LYP) =  -423.180505258     A.U. after   14 cycles
 Optimization completed.
    -- Stationary point found.
 Normal termination of Gaussian 09 at Mon Jan 27 22:00:58 2020.

 ----------------------------------------------------------------------
 #N Geom=AllCheck Guess=TCheck SCRF=Check GenChk RB3LYP/6-31G(2df,p) Fr
 eq
 ----------------------------------------------------------------------

 Structure from the checkpoint file:  "/scratch/puck/g09_e96a38e2-325b-4b77-b280-ec8ab59a0c7b/Gau-98426.chk"
 -----
 titel
 -----
 Charge =  0 Multiplicity = 1

                         Standard orientation:
 ---------------------------------------------------------------------
 Center     Atomic      Atomic             Coordinates (Angstroms)
 Number     Number       Type             X           Y           Z
 ---------------------------------------------------------------------
      1          6           0        2.288165   -0.284982   -0.544177
      2          6           0        1.187162   -0.138959    0.502812
      3          6           0        0.317578    1.129389    0.260757
      4          8           0        0.608782    2.281150    0.086439
      5          6           0       -0.943379    0.349492    0.041088
      6          6           0       -2.060281    0.701052   -0.898426
      7          6           0       -1.141488   -0.596961    1.237233
      8          6           0       -0.103498   -0.944018    0.233193
      9          8           0       -0.168801   -2.051187   -0.587941
     10          1           0        2.777503   -1.260081   -0.462759
     11          1           0        1.886546   -0.197079   -1.558186
     12          1           0        3.041460    0.495321   -0.407429
     13          1           0        1.597088   -0.246383    1.514520
     14          1           0       -1.668613    1.139862   -1.820912
     15          1           0       -2.636747   -0.190844   -1.163190
     16          1           0       -2.745772    1.426574   -0.448281
     17          1           0       -0.877454   -0.295036    2.247726
     18          1           0       -2.068252   -1.158759    1.160474
     19          1           0       -0.091167   -2.843352   -0.044827
 ---------------------------------------------------------------------

 SCF Done:  E(RB3LYP) =  -423.180505258     A.U. after    1 cycles

 The electronic state is 1-A.
 Alpha  occ. eigenvalues --  -19.16441 -19.12549 -10.26061 -10.25587 -10.20635
 Alpha  occ. eigenvalues --  -10.20427 -10.19452 -10.18529 -10.17966  -1.05174
 Alpha  occ. eigenvalues --   -1.03465  -0.90014  -0.77024  -0.72276  -0.67195
 Alpha  occ. eigenvalues --   -0.60812  -0.59722  -0.51620  -0.49249  -0.48182
 Alpha  occ. eigenvalues --   -0.45802  -0.44584  -0.42466  -0.41552  -0.40094
 Alpha  occ. eigenvalues --   -0.39389  -0.38152  -0.37097  -0.36270  -0.35995
 Alpha  occ. eigenvalues --   -0.32797  -0.27819  -0.26071  -0.23346
 Alpha virt. eigenvalues --   -0.00544   0.06135   0.10003   0.10973   0.11136
 Alpha virt. eigenvalues --    0.12926   0.13925   0.15211   0.16368   0.16561
 Alpha virt. eigenvalues --    0.17611   0.18943   0.19112   0.20076   0.23027

 Mulliken charges:
               1
     1  C   -0.396466
     2  C   -0.203933
     3  C    0.387541
     4  O   -0.328982
     5  C    0.147536
     6  C   -0.498288
     7  C   -0.396867
     8  C    0.359691
     9  O   -0.456039
    10  H    0.115219
    11  H    0.127322
    12  H    0.133290
    13  H    0.079833
    14  H    0.134946
    15  H    0.128414
    16  H    0.133095
    17  H    0.118295
    18  H    0.122656
    19  H    0.292737
 Sum of Mulliken charges =   0.00000

 Dipole moment (field-independent basis, Debye):
    X=             -0.8571    Y=             -3.3641    Z=              1.2588  Tot=              3.6927
 Quadrupole moment (field-independent basis, Debye-Ang):
   XX=            -50.7462   YY=            -56.6043   ZZ=            -52.4879
   XY=             -2.2343   XZ=             -0.0230   YZ=             -3.1332

  Exact polarizability:  83.576   0.227  80.537  -0.200  -3.471  66.205
 Approx polarizability: 110.307   3.522 129.726  -0.270  -5.238 100.263

                      1                      2                      3
                      A                      A                      A
 Frequencies --     82.8022               139.3096               167.3869
 Red. masses --      4.1814                 1.0950                 2.9380
 Frc consts  --      0.0169                 0.0125                 0.0485
 IR Inten    --      2.2650                 0.9938                10.7322

                      4                      5                      6
                      A                      A                      A
 Frequencies --    186.2800               193.9092               213.5291
 Red. masses --      2.0627                 1.3988                 2.2545
 Frc consts  --      0.0422                 0.0310                 0.0606
 IR Inten    --      0.3469                 0.6780                 4.9619

                      7                      8                      9
                      A                      A                      A
 Frequencies --    235.2557               258.5517               408.4754
 Red. masses --      1.2795                 3.0759                 2.5421
 Frc consts  --      0.0417                 0.1211                 0.2499
 IR Inten    --     84.1426                 0.5543                 7.0987

                     10                     11                     12
                      A                      A                      A
 Frequencies --    425.7341               478.5875               541.6367
 Red. masses --      3.3450                 4.3616                 3.4997
 Frc consts  --      0.3572                 0.5886                 0.6049
 IR Inten    --      1.7097                 2.0967                 5.6459

                     13                     14                     15
                      A                      A                      A
 Frequencies --    566.9731               688.7445               691.1648
 Red. masses --      3.8490                 4.6211                 3.7917
 Frc consts  --      0.7290                 1.2916                 1.0672
 IR Inten    --      0.5457                 0.4832                 0.4517

                     16                     17                     18
                      A                      A                      A
 Frequencies --    731.4625               793.4437               852.0938
 Red. masses --      3.4794                 2.7308                 2.3069
 Frc consts  --      1.0968                 1.0129                 0.9869
 IR Inten    --     20.4199                11.9580                10.4050

                     19                     20                     21
                      A                      A                      A
 Frequencies --    923.8779               973.6533               991.7623
 Red. masses --      2.7672                 1.2111                 1.8310
 Frc consts  --      1.3916                 0.6764                 1.0611
 IR Inten    --     35.9677                 6.6252                20.4459

                     22                     23                     24
                      A                      A                      A
 Frequencies --   1048.0881              1053.2625              1072.9549
 Red. masses --      1.5245                 1.3618                 1.8127
 Frc consts  --      0.9866                 0.8901                 1.2296
 IR Inten    --     38.8582                 2.5244                 6.2422

                     25                     26                     27
                      A                      A                      A
 Frequencies --   1090.1164              1112.3407              1177.3338
 Red. masses --      1.7116                 1.9490                 2.7645
 Frc consts  --      1.1984                 1.4208                 2.2577
 IR Inten    --      7.7709                 2.2682                14.8061

                     28                     29                     30
                      A                      A                      A
 Frequencies --   1223.8190              1225.2741              1290.8240
 Red. masses --      1.9874                 1.8921                 1.6078
 Frc consts  --      1.7538                 1.6736                 1.5784
 IR Inten    --      8.8063                29.2760                60.6449

                     31                     32                     33
                      A                      A                      A
 Frequencies --   1341.5724              1351.5610              1400.9001
 Red. masses --      1.8350                 3.5959                 1.6375
 Frc consts  --      1.9458                 3.8701                 1.8934
 IR Inten    --     12.3959                30.0909                11.2129

                     34                     35                     36
                      A                      A                      A
 Frequencies --   1411.1255              1414.9165              1481.6900
 Red. masses --      1.3369                 1.4716                 1.0469
 Frc consts  --      1.5685                 1.7358                 1.3542
 IR Inten    --     13.0465                 1.6815                 3.2473

                     37                     38                     39
                      A                      A                      A
 Frequencies --   1490.2463              1491.9141              1496.7371
 Red. masses --      1.0975                 1.0772                 1.0525
 Frc consts  --      1.4360                 1.4127                 1.3893
 IR Inten    --      1.3512                 5.9504                 9.4644

                     40                     41                     42
                      A                      A                      A
 Frequencies --   1503.1026              1869.2132              3028.6054
 Red. masses --      1.3569                12.6174                 1.0835
 Frc consts  --      1.8062                25.9740                 5.8556
 IR Inten    --     20.7314               281.0082                30.3653

                     43                     44                     45
                      A                      A                      A
 Frequencies --   3035.8064              3042.5644              3101.0156
 Red. masses --      1.0349                 1.0346                 1.1009
 Frc consts  --      5.6196                 5.6430                 6.2374
 IR Inten    --     26.0025                20.5369                14.8697

                     46                     47                     48
                      A                      A                      A
 Frequencies --   3106.0786              3110.9107              3111.4647
 Red. masses --      1.0559                 1.1008                 1.1015
 Frc consts  --      6.0023                 6.2765                 6.2832
 IR Inten    --     12.5793                 9.2878                27.9384

                     49                     50                     51
                      A                      A                      A
 Frequencies --   3122.6358              3196.4732              3795.8176
 Red. masses --      1.1020                 1.1154                 1.0662
 Frc consts  --      6.3312                 6.7145                 9.0514
 IR Inten    --     15.0251                 7.1878                31.4510

 - Thermochemistry -
 -------------------
 Temperature   298.150 Kelvin.  Pressure   1.00000 Atm.
 Atom     1 has atomic number  6 and mass  12.00000

 Molecular mass:   126.06808 amu.
 Principal axes and moments of inertia in atomic units:
                           1         2         3
     Eigenvalues --   927.14591 969.593261481.32863
           X            0.87059  -0.49202   0.00046
           Y            0.49184   0.87025  -0.02736
           Z            0.01306   0.02404   0.99963
 This molecule is an asymmetric top.
 Rotational symmetry number  1.
 Warning -- assumption of classical behavior for rotation
           may cause significant error
 Rotational temperatures (Kelvin)      0.09342     0.08933     0.05847
 Rotational constants (GHZ):           1.94656     1.86134     1.21833
 Zero-point vibrational energy     411174.4 (Joules/Mol)
                                   98.27305 (Kcal/Mol)
 Warning -- explicit consideration of  13 degrees of freedom as
           vibrations may cause significant error
 Vibrational temperatures:    119.13   200.44   240.83   268.02   278.99
          (Kelvin)            307.22   338.48   372.00   587.70   612.54
                              688.58   779.29   815.75   990.95   994.43
                             1052.41  1141.59  1225.97  1329.25  1400.87
                             1426.92  1507.96  1515.41  1543.74  1568.43
                             1600.41  1693.92  1760.80  1762.89  1857.21
                             1930.22  1944.59  2015.58  2030.29  2035.75
                             2131.82  2144.13  2146.53  2153.47  2162.63
                             2689.38  4357.48  4367.84  4377.57  4461.66
                             4468.95  4475.90  4476.70  4492.77  4599.01
                             5461.33

 Zero-point correction=                           0.156608 (Hartree/Particle)
 Thermal correction to Energy=                    0.166232
 Thermal correction to Enthalpy=                  0.167176
 Thermal correction to Gibbs Free Energy=         0.122501
 Sum of electronic and zero-point Energies=           -423.023897
 Sum of electronic and thermal Energies=              -423.014273
 Sum of electronic and thermal Enthalpies=            -423.013329
 Sum of electronic and thermal Free Energies=         -423.058005

                     E (Thermal)             CV                S
                      KCal/Mol        Cal/Mol-Kelvin    Cal/Mol-Kelvin
 Total                  104.312             35.395             94.028
 Electronic               0.000              0.000              0.000
 Translational            0.889              2.981             40.409
 Rotational               0.889              2.981             28.678
 Vibrational            102.535             29.434             24.941
 Vibration     1          0.600              1.961              3.823
 Vibration     2          0.615              1.914              2.813
 Vibration     3          0.624              1.883              2.465
 Vibration     4          0.632              1.859              2.265
 Vibration     5          0.635              1.848              2.190
 Vibration     6          0.644              1.820              2.013
 Vibration     7          0.655              1.787              1.838
 Vibration     8          0.667              1.748              1.672
 Vibration     9          0.773              1.452              0.932
 Vibration    10          0.788              1.414              0.873
 Vibration    11          0.835              1.298              0.714
 Vibration    12          0.897              1.158              0.562
 Vibration    13          0.923              1.103              0.510

 Optimization completed.
    -- Stationary point found.
 Normal termination of Gaussian 09 at Mon Jan 27 22:51:30 2020.
