 Gaussian 09, Revision D.01,
 Gaussian 09:  ES64L-G09RevD.01 24-Apr-2013

 -----------------------------
 # b3lyp 6-31G(2df,p) opt Freq
 -----------------------------

 -----
 titel
 -----
 Symbolic Z-matrix:
 Charge =  0 Multiplicity = 1

 SCF Done:  E(RB3LYP) =  -423.185315640     A.U. after   13 cycles
 Optimization completed.
    -- Stationary point found.
 Normal termination of Gaussian 09 at Mon Jan 27 12:19:12 2020.

 ----------------------------------------------------------------------
 #N Geom=AllCheck Guess=TCheck SCRF=Check GenChk RB3LYP/6-31G(2df,p) Fr
 eq
 ----------------------------------------------------------------------

 Structure from the checkpoint file:  "/scratch/puck/g09_4ef18750-261b-4741-bcfb-5b509526fab4/Gau-35500.chk"
 -----
 titel
 -----
 Charge =  0 Multiplicity = 1

                         Standard orientation:
 ---------------------------------------------------------------------
 Center     Atomic      Atomic             Coordinates (Angstroms)
 Number     Number       Type             X           Y           Z
 ---------------------------------------------------------------------
      1          6           0       -2.032269    0.642123    0.026235
      2          8           0       -1.946352   -0.801423    0.034854
      3          6           0       -0.648443   -0.779294   -0.577966
      4          6           0       -0.644133    0.777126   -0.629791
      5          6           0        0.521789    1.101554    0.316394
      6          6           0        1.850986    0.769653   -0.400733
      7          6           0        1.830811   -0.790929   -0.360426
      8          6           0        0.506253   -1.054907    0.394802
      9          8           0        0.429008    0.059166    1.299632
     10          1           0       -2.874241    0.990305   -0.584539
     11          1           0       -2.118017    1.051742    1.038960
     12          1           0       -0.608913   -1.369497   -1.499117
     13          1           0       -0.599299    1.278784   -1.595969
     14          1           0        0.476937    2.072190    0.811858
     15          1           0        1.894692    1.172999   -1.415789
     16          1           0        2.697876    1.171235    0.159613
     17          1           0        1.843633   -1.244983   -1.355278
     18          1           0        2.678613   -1.188474    0.200500
     19          1           0        0.437500   -1.988201    0.952779
 ---------------------------------------------------------------------

 SCF Done:  E(RB3LYP) =  -423.185315640     A.U. after    1 cycles

 The electronic state is 1-A.
 Alpha  occ. eigenvalues --  -19.13747 -19.12797 -10.23313 -10.23041 -10.22745
 Alpha  occ. eigenvalues --  -10.22621 -10.19148 -10.18764 -10.18745  -1.05738
 Alpha  occ. eigenvalues --   -1.02132  -0.79328  -0.75939  -0.73055  -0.67721
 Alpha  occ. eigenvalues --   -0.58731  -0.57521  -0.54855  -0.52530  -0.50324
 Alpha  occ. eigenvalues --   -0.48195  -0.44290  -0.41987  -0.41004  -0.40313
 Alpha  occ. eigenvalues --   -0.38562  -0.36565  -0.35289  -0.34792  -0.32703
 Alpha  occ. eigenvalues --   -0.30504  -0.29450  -0.26296  -0.24101
 Alpha virt. eigenvalues --    0.07579   0.08436   0.10744   0.12654   0.13467
 Alpha virt. eigenvalues --    0.14312   0.14736   0.15314   0.15426   0.16372
 Alpha virt. eigenvalues --    0.17596   0.18849   0.19444   0.19989   0.22247

 Mulliken charges:
               1
     1  C   -0.093325
     2  O   -0.296796
     3  C    0.141755
     4  C   -0.084447
     5  C    0.059754
     6  C   -0.220165
     7  C   -0.228226
     8  C    0.034672
     9  O   -0.261892
    10  H    0.096488
    11  H    0.109628
    12  H    0.075414
    13  H    0.079886
    14  H    0.079872
    15  H    0.099229
    16  H    0.108360
    17  H    0.101505
    18  H    0.111495
    19  H    0.086792
 Sum of Mulliken charges =   0.00000

 Dipole moment (field-independent basis, Debye):
    X=              1.4140    Y=              1.1601    Z=             -1.8289  Tot=              2.5865
 Quadrupole moment (field-independent basis, Debye-Ang):
   XX=            -54.6210   YY=            -50.4828   ZZ=            -54.5916
   XY=             -3.6904   XZ=              0.2772   YZ=              0.2844

  Exact polarizability:  81.050  -3.703  72.665  -0.666   0.902  64.327
 Approx polarizability: 106.375  -2.570 109.357  -1.587   1.037 102.978

                      1                      2                      3
                      A                      A                      A
 Frequencies --    154.0737               240.4912               256.8150
 Red. masses --      2.4705                 2.0367                 3.8743
 Frc consts  --      0.0346                 0.0694                 0.1506
 IR Inten    --      2.0150                 1.4358                 0.5174

                      4                      5                      6
                      A                      A                      A
 Frequencies --    358.5624               413.7694               586.6488
 Red. masses --      2.9523                 3.9602                 4.3753
 Frc consts  --      0.2236                 0.3995                 0.8872
 IR Inten    --      2.6115                 0.4729                 7.2812

                      7                      8                      9
                      A                      A                      A
 Frequencies --    605.8496               753.8145               793.7427
 Red. masses --      4.6917                 2.3228                 4.2010
 Frc consts  --      1.0146                 0.7776                 1.5594
 IR Inten    --     10.4046                 3.3103                 3.5677

                     10                     11                     12
                      A                      A                      A
 Frequencies --    816.4672               833.7770               863.0176
 Red. masses --      1.6953                 3.4504                 1.7591
 Frc consts  --      0.6659                 1.4132                 0.7719
 IR Inten    --      5.7552                12.6740                 4.7847

                     13                     14                     15
                      A                      A                      A
 Frequencies --    891.0617               905.3822               923.8674
 Red. masses --      3.6540                 2.5549                 2.4460
 Frc consts  --      1.7094                 1.2339                 1.2301
 IR Inten    --     13.4158                 4.1046                 4.1644

                     16                     17                     18
                      A                      A                      A
 Frequencies --    940.3900               956.0722               988.4088
 Red. masses --      2.0832                 4.6322                 2.0525
 Frc consts  --      1.0854                 2.4947                 1.1814
 IR Inten    --      3.5759                21.3543                13.9875

                     19                     20                     21
                      A                      A                      A
 Frequencies --   1005.6221              1018.7190              1034.3006
 Red. masses --      3.4538                 2.6790                 2.0305
 Frc consts  --      2.0579                 1.6380                 1.2798
 IR Inten    --     12.9023                 1.8169                 9.2184

                     22                     23                     24
                      A                      A                      A
 Frequencies --   1049.6682              1066.8702              1081.6483
 Red. masses --      3.6880                 2.6745                 1.7834
 Frc consts  --      2.3941                 1.7936                 1.2293
 IR Inten    --     85.4231                31.6615                 7.8438

                     25                     26                     27
                      A                      A                      A
 Frequencies --   1142.3833              1166.2866              1198.7572
 Red. masses --      1.3785                 1.1268                 1.7237
 Frc consts  --      1.0600                 0.9031                 1.4594
 IR Inten    --      5.6826                 0.9477                 6.6707

                     28                     29                     30
                      A                      A                      A
 Frequencies --   1222.7052              1239.8533              1250.0921
 Red. masses --      1.3566                 1.4115                 1.4682
 Frc consts  --      1.1949                 1.2784                 1.3518
 IR Inten    --      3.4673                 6.6334                 1.0809

                     31                     32                     33
                      A                      A                      A
 Frequencies --   1256.2009              1284.0853              1294.9782
 Red. masses --      1.4151                 1.2643                 1.3114
 Frc consts  --      1.3157                 1.2283                 1.2957
 IR Inten    --      3.0911                 0.2298                 1.4339

                     34                     35                     36
                      A                      A                      A
 Frequencies --   1310.8449              1326.2101              1341.2688
 Red. masses --      1.5056                 1.4629                 1.7824
 Frc consts  --      1.5242                 1.5159                 1.8892
 IR Inten    --      0.9408                 1.4199                 8.9929

                     37                     38                     39
                      A                      A                      A
 Frequencies --   1362.7682              1373.5888              1483.0217
 Red. masses --      1.4450                 1.5231                 1.0825
 Frc consts  --      1.5811                 1.6932                 1.4027
 IR Inten    --      1.1301                 2.4981                 0.4970

                     40                     41                     42
                      A                      A                      A
 Frequencies --   1502.8497              1511.1946              3017.6792
 Red. masses --      1.1011                 1.1046                 1.0566
 Frc consts  --      1.4653                 1.4863                 5.6690
 IR Inten    --      4.1950                 0.4720                84.9200

                     43                     44                     45
                      A                      A                      A
 Frequencies --   3055.9392              3062.9338              3067.6492
 Red. masses --      1.0826                 1.0639                 1.1086
 Frc consts  --      5.9569                 5.8805                 6.1469
 IR Inten    --     17.3828                38.9302                26.4763

                     46                     47                     48
                      A                      A                      A
 Frequencies --   3071.2769              3103.1341              3112.6444
 Red. masses --      1.0618                 1.1043                 1.0911
 Frc consts  --      5.9013                 6.2650                 6.2286
 IR Inten    --     39.3114                 1.3291                14.8016

                     49                     50                     51
                      A                      A                      A
 Frequencies --   3119.5863              3123.4873              3133.1408
 Red. masses --      1.0901                 1.1026                 1.0912
 Frc consts  --      6.2506                 6.3382                 6.3111
 IR Inten    --     37.4450                49.0473                16.5705

 - Thermochemistry -
 -------------------
 Temperature   298.150 Kelvin.  Pressure   1.00000 Atm.
 Atom     1 has atomic number  6 and mass  12.00000

 Molecular mass:   126.06808 amu.
 Principal axes and moments of inertia in atomic units:
                           1         2         3
     Eigenvalues --   521.050261073.180431208.26715
           X            0.99944  -0.03147  -0.01132
           Y            0.03156   0.99947   0.00771
           Z            0.01108  -0.00806   0.99991
 This molecule is an asymmetric top.
 Rotational symmetry number  1.
 Warning -- assumption of classical behavior for rotation
           may cause significant error
 Rotational temperatures (Kelvin)      0.16623     0.08071     0.07168
 Rotational constants (GHZ):           3.46366     1.68168     1.49366
 Zero-point vibrational energy     428703.3 (Joules/Mol)
                                  102.46255 (Kcal/Mol)
 Warning -- explicit consideration of   7 degrees of freedom as
           vibrations may cause significant error
 Vibrational temperatures:    221.68   346.01   369.50   515.89   595.32
          (Kelvin)            844.06   871.68  1084.57  1142.02  1174.71
                             1199.62  1241.69  1282.04  1302.64  1329.24
                             1353.01  1375.57  1422.10  1446.86  1465.71
                             1488.13  1510.24  1534.99  1556.25  1643.63
                             1678.02  1724.74  1759.20  1783.87  1798.60
                             1807.39  1847.51  1863.18  1886.01  1908.12
                             1929.78  1960.72  1976.29  2133.73  2162.26
                             2174.27  4341.76  4396.81  4406.87  4413.66
                             4418.88  4464.71  4478.40  4488.38  4494.00
                             4507.89

 Zero-point correction=                           0.163284 (Hartree/Particle)
 Thermal correction to Energy=                    0.169755
 Thermal correction to Enthalpy=                  0.170699
 Thermal correction to Gibbs Free Energy=         0.132608
 Sum of electronic and zero-point Energies=           -423.022031
 Sum of electronic and thermal Energies=              -423.015561
 Sum of electronic and thermal Enthalpies=            -423.014617
 Sum of electronic and thermal Free Energies=         -423.052708

                     E (Thermal)             CV                S
                      KCal/Mol        Cal/Mol-Kelvin    Cal/Mol-Kelvin
 Total                  106.523             26.943             80.169
 Electronic               0.000              0.000              0.000
 Translational            0.889              2.981             40.409
 Rotational               0.889              2.981             28.004
 Vibrational            104.745             20.981             11.756
 Vibration     1          0.620              1.898              2.621
 Vibration     2          0.658              1.778              1.799
 Vibration     3          0.666              1.751              1.683
 Vibration     4          0.733              1.558              1.128
 Vibration     5          0.777              1.440              0.913
 Vibration     6          0.944              1.060              0.473
 Vibration     7          0.964              1.019              0.440

 Optimization completed.
    -- Stationary point found.
 Normal termination of Gaussian 09 at Mon Jan 27 13:07:25 2020.
