 Gaussian 09, Revision D.01,
 Gaussian 09:  ES64L-G09RevD.01 24-Apr-2013

 -----------------------------
 # b3lyp 6-31G(2df,p) opt Freq
 -----------------------------

 -----
 titel
 -----
 Symbolic Z-matrix:
 Charge =  0 Multiplicity = 1

 SCF Done:  E(RB3LYP) =  -423.129011952     A.U. after   13 cycles
 Optimization completed.
    -- Stationary point found.
 Normal termination of Gaussian 09 at Mon Jan 27 23:06:22 2020.

 ----------------------------------------------------------------------
 #N Geom=AllCheck Guess=TCheck SCRF=Check GenChk RB3LYP/6-31G(2df,p) Fr
 eq
 ----------------------------------------------------------------------

 Structure from the checkpoint file:  "/scratch/puck/g09_ad51e888-a460-4e55-91cc-81b1c14ce1e5/Gau-67604.chk"
 -----
 titel
 -----
 Charge =  0 Multiplicity = 1

                         Standard orientation:
 ---------------------------------------------------------------------
 Center     Atomic      Atomic             Coordinates (Angstroms)
 Number     Number       Type             X           Y           Z
 ---------------------------------------------------------------------
      1          6           0       -2.109286    0.721400   -0.841787
      2          6           0       -1.026291    0.025159   -0.085205
      3          8           0       -1.401803   -0.784124    1.049689
      4          6           0       -0.617166   -1.390844    0.016253
      5          6           0        0.854391   -1.005538    0.305348
      6          8           0        1.810547   -1.435287   -0.632348
      7          6           0        0.402942    0.478039    0.188706
      8          6           0        0.888046    1.687946    0.921187
      9          6           0        1.176398    1.529856   -0.555377
     10          1           0       -2.961274    0.051512   -0.983280
     11          1           0       -2.461085    1.604690   -0.296377
     12          1           0       -1.753002    1.050385   -1.823147
     13          1           0       -0.999307   -2.287057   -0.461937
     14          1           0        1.212713   -1.323773    1.287238
     15          1           0        1.570676   -1.065478   -1.489761
     16          1           0        0.159147    2.432961    1.223878
     17          1           0        1.712044    1.561582    1.615752
     18          1           0        0.645059    2.170473   -1.252306
     19          1           0        2.190869    1.283887   -0.853536
 ---------------------------------------------------------------------

 SCF Done:  E(RB3LYP) =  -423.129011952     A.U. after    1 cycles

 The electronic state is 1-A.
 Alpha  occ. eigenvalues --  -19.14743 -19.14452 -10.24283 -10.23665 -10.22985
 Alpha  occ. eigenvalues --  -10.19910 -10.19364 -10.19107 -10.18921  -1.07500
 Alpha  occ. eigenvalues --   -1.02560  -0.86379  -0.75784  -0.74257  -0.62678
 Alpha  occ. eigenvalues --   -0.61519  -0.60384  -0.53525  -0.51579  -0.49766
 Alpha  occ. eigenvalues --   -0.45966  -0.44663  -0.43432  -0.42344  -0.41119
 Alpha  occ. eigenvalues --   -0.39297  -0.37303  -0.37037  -0.33519  -0.31549
 Alpha  occ. eigenvalues --   -0.30390  -0.28737  -0.25922  -0.24330
 Alpha virt. eigenvalues --    0.06738   0.08784   0.09167   0.10185   0.11220
 Alpha virt. eigenvalues --    0.13154   0.13922   0.14422   0.14822   0.16798
 Alpha virt. eigenvalues --    0.17452   0.19128   0.20393   0.20769   0.22824

 Mulliken charges:
               1
     1  C   -0.514342
     2  C    0.344263
     3  O   -0.284188
     4  C   -0.117655
     5  C    0.033812
     6  O   -0.425993
     7  C    0.275555
     8  C   -0.328719
     9  C   -0.340820
    10  H    0.138935
    11  H    0.132601
    12  H    0.124612
    13  H    0.102942
    14  H    0.103255
    15  H    0.280958
    16  H    0.115825
    17  H    0.121755
    18  H    0.114297
    19  H    0.122908
 Sum of Mulliken charges =   0.00000

 Dipole moment (field-independent basis, Debye):
    X=             -0.3954    Y=              1.3140    Z=             -2.0251  Tot=              2.4462
 Quadrupole moment (field-independent basis, Debye-Ang):
   XX=            -55.9479   YY=            -53.4027   ZZ=            -51.7456
   XY=              0.9635   XZ=              2.9960   YZ=              1.1011

  Exact polarizability:  77.627   0.586  80.849   1.378  -0.199  67.287
 Approx polarizability: 107.248  -0.795 116.613  -4.336  -1.575 106.488

                      1                      2                      3
                      A                      A                      A
 Frequencies --    104.4681               184.9039               200.3737
 Red. masses --      3.7218                 1.2599                 2.0344
 Frc consts  --      0.0239                 0.0254                 0.0481
 IR Inten    --      0.5152                 0.1699                 0.3555

                      4                      5                      6
                      A                      A                      A
 Frequencies --    203.2347               221.1578               295.7229
 Red. masses --      2.8834                 2.3706                 2.0374
 Frc consts  --      0.0702                 0.0683                 0.1050
 IR Inten    --      1.2621                 1.5074                10.6681

                      7                      8                      9
                      A                      A                      A
 Frequencies --    320.1024               374.3038               424.9892
 Red. masses --      1.5542                 2.6833                 3.2321
 Frc consts  --      0.0938                 0.2215                 0.3439
 IR Inten    --     63.2115                30.2301                13.8193

                     10                     11                     12
                      A                      A                      A
 Frequencies --    512.7713               542.2256               598.1354
 Red. masses --      6.9335                 4.2819                 3.4434
 Frc consts  --      1.0741                 0.7417                 0.7258
 IR Inten    --      7.4282                 2.2595                 4.0398

                     13                     14                     15
                      A                      A                      A
 Frequencies --    656.3209               782.6186               791.1184
 Red. masses --      3.1614                 1.1603                 3.6006
 Frc consts  --      0.8023                 0.4187                 1.3277
 IR Inten    --      4.1798                 1.4084                16.6772

                     16                     17                     18
                      A                      A                      A
 Frequencies --    838.5970               867.8200               935.9572
 Red. masses --      1.9843                 2.3744                 1.4686
 Frc consts  --      0.8222                 1.0536                 0.7580
 IR Inten    --      3.6788                15.7075                 0.8445

                     19                     20                     21
                      A                      A                      A
 Frequencies --    939.9148               977.2782               990.1618
 Red. masses --      1.5610                 3.2748                 4.3350
 Frc consts  --      0.8125                 1.8428                 2.5041
 IR Inten    --      1.0986                13.2088                 6.0980

                     22                     23                     24
                      A                      A                      A
 Frequencies --   1018.9673              1035.5781              1052.5725
 Red. masses --      2.5033                 2.1538                 1.3696
 Frc consts  --      1.5314                 1.3609                 0.8940
 IR Inten    --      0.9342                45.3083                 4.4820

                     25                     26                     27
                      A                      A                      A
 Frequencies --   1079.3523              1094.3051              1109.0340
 Red. masses --      1.3996                 1.6620                 2.6418
 Frc consts  --      0.9607                 1.1727                 1.9144
 IR Inten    --      0.4170                 1.6504               105.8010

                     28                     29                     30
                      A                      A                      A
 Frequencies --   1161.2060              1189.5794              1219.8834
 Red. masses --      2.0079                 1.2765                 1.4942
 Frc consts  --      1.5952                 1.0643                 1.3101
 IR Inten    --      6.0375                 0.4874                 3.7797

                     31                     32                     33
                      A                      A                      A
 Frequencies --   1235.8611              1257.3673              1285.3921
 Red. masses --      1.4761                 2.4161                 1.7122
 Frc consts  --      1.3283                 2.2505                 1.6667
 IR Inten    --      8.5619                22.5857                 0.9459

                     34                     35                     36
                      A                      A                      A
 Frequencies --   1377.5055              1400.7912              1419.9741
 Red. masses --      2.6410                 1.3140                 1.3521
 Frc consts  --      2.9526                 1.5192                 1.6063
 IR Inten    --     14.8574                 3.3263                67.7537

                     37                     38                     39
                      A                      A                      A
 Frequencies --   1461.3351              1462.0837              1483.8078
 Red. masses --      1.0915                 2.6622                 1.1781
 Frc consts  --      1.3733                 3.3530                 1.5282
 IR Inten    --      0.6448                 8.3739                14.0082

                     40                     41                     42
                      A                      A                      A
 Frequencies --   1492.8755              1502.4700              3033.7978
 Red. masses --      1.0868                 1.6072                 1.0369
 Frc consts  --      1.4271                 2.1377                 5.6229
 IR Inten    --      1.5942                 0.4767                18.7661

                     43                     44                     45
                      A                      A                      A
 Frequencies --   3089.8918              3095.3776              3122.4745
 Red. masses --      1.0867                 1.0994                 1.0599
 Frc consts  --      6.1130                 6.2061                 6.0883
 IR Inten    --     28.9749                13.8095                 7.8911

                     46                     47                     48
                      A                      A                      A
 Frequencies --   3123.3042              3127.5672              3172.8141
 Red. masses --      1.0915                 1.0562                 1.0945
 Frc consts  --      6.2735                 6.0873                 6.4919
 IR Inten    --     18.2994                13.6384                19.3383

                     49                     50                     51
                      A                      A                      A
 Frequencies --   3201.8136              3216.2973              3796.5403
 Red. masses --      1.1177                 1.1156                 1.0656
 Frc consts  --      6.7512                 6.7993                 9.0492
 IR Inten    --      0.1902                12.7071                11.0794

 - Thermochemistry -
 -------------------
 Temperature   298.150 Kelvin.  Pressure   1.00000 Atm.
 Atom     1 has atomic number  6 and mass  12.00000

 Molecular mass:   126.06808 amu.
 Principal axes and moments of inertia in atomic units:
                           1         2         3
     Eigenvalues --   851.938411019.367111423.66030
           X            0.99909   0.00626   0.04222
           Y           -0.00629   0.99998   0.00060
           Z           -0.04221  -0.00086   0.99911
 This molecule is an asymmetric top.
 Rotational symmetry number  1.
 Warning -- assumption of classical behavior for rotation
           may cause significant error
 Rotational temperatures (Kelvin)      0.10167     0.08497     0.06084
 Rotational constants (GHZ):           2.11839     1.77045     1.26768
 Zero-point vibrational energy     413202.1 (Joules/Mol)
                                   98.75767 (Kcal/Mol)
 Warning -- explicit consideration of  12 degrees of freedom as
           vibrations may cause significant error
 Vibrational temperatures:    150.31   266.04   288.29   292.41   318.20
          (Kelvin)            425.48   460.56   538.54   611.46   737.76
                              780.14   860.58   944.30  1126.01  1138.24
                             1206.55  1248.60  1346.63  1352.33  1406.08
                             1424.62  1466.06  1489.96  1514.42  1552.95
                             1574.46  1595.65  1670.71  1711.54  1755.14
                             1778.13  1809.07  1849.39  1981.92  2015.42
                             2043.02  2102.53  2103.61  2134.87  2147.91
                             2161.72  4364.95  4445.66  4453.55  4492.54
                             4493.73  4499.87  4564.97  4606.69  4627.53
                             5462.37

 Zero-point correction=                           0.157380 (Hartree/Particle)
 Thermal correction to Energy=                    0.166092
 Thermal correction to Enthalpy=                  0.167036
 Thermal correction to Gibbs Free Energy=         0.124499
 Sum of electronic and zero-point Energies=           -422.971632
 Sum of electronic and thermal Energies=              -422.962920
 Sum of electronic and thermal Enthalpies=            -422.961976
 Sum of electronic and thermal Free Energies=         -423.004513

                     E (Thermal)             CV                S
                      KCal/Mol        Cal/Mol-Kelvin    Cal/Mol-Kelvin
 Total                  104.224             33.750             89.527
 Electronic               0.000              0.000              0.000
 Translational            0.889              2.981             40.409
 Rotational               0.889              2.981             28.604
 Vibrational            102.447             27.788             20.514
 Vibration     1          0.605              1.946              3.369
 Vibration     2          0.631              1.860              2.278
 Vibration     3          0.638              1.839              2.130
 Vibration     4          0.639              1.835              2.104
 Vibration     5          0.648              1.809              1.950
 Vibration     6          0.690              1.682              1.441
 Vibration     7          0.706              1.635              1.310
 Vibration     8          0.745              1.525              1.062
 Vibration     9          0.787              1.416              0.875
 Vibration    10          0.868              1.222              0.627
 Vibration    11          0.897              1.157              0.561
 Vibration    12          0.956              1.036              0.453

 Optimization completed.
    -- Stationary point found.
 Normal termination of Gaussian 09 at Mon Jan 27 23:48:04 2020.
