 Gaussian 09, Revision D.01,
 Gaussian 09:  ES64L-G09RevD.01 24-Apr-2013

 -----------------------------
 # b3lyp 6-31G(2df,p) opt Freq
 -----------------------------

 -----
 titel
 -----
 Symbolic Z-matrix:
 Charge =  0 Multiplicity = 1

 SCF Done:  E(RB3LYP) =  -423.174681014     A.U. after   13 cycles
 Optimization completed.
    -- Stationary point found.
 Normal termination of Gaussian 09 at Mon Jan 27 19:00:21 2020.

 ----------------------------------------------------------------------
 #N Geom=AllCheck Guess=TCheck SCRF=Check GenChk RB3LYP/6-31G(2df,p) Fr
 eq
 ----------------------------------------------------------------------

 Structure from the checkpoint file:  "/scratch/puck/g09_bc1b394f-6fd6-41e1-ae72-22bcacb4c40b/Gau-151146.chk"
 -----
 titel
 -----
 Charge =  0 Multiplicity = 1

                         Standard orientation:
 ---------------------------------------------------------------------
 Center     Atomic      Atomic             Coordinates (Angstroms)
 Number     Number       Type             X           Y           Z
 ---------------------------------------------------------------------
      1          6           0       -2.098795   -0.940938   -0.160583
      2          6           0       -0.824495   -0.142917   -0.030376
      3          6           0       -0.951768    1.384521   -0.006437
      4          8           0        0.411684    1.836983   -0.017067
      5          6           0        1.195094    0.706512   -0.307735
      6          6           0        1.233076   -0.423504    0.782897
      7          6           0        1.237953   -1.444464   -0.376910
      8          6           0        0.344149   -0.368836   -1.037830
      9          8           0       -0.134504   -0.455615    1.216986
     10          1           0       -2.754051   -0.755470    0.696209
     11          1           0       -2.638492   -0.666227   -1.072437
     12          1           0       -1.882191   -2.012144   -0.193049
     13          1           0       -1.488849    1.785179   -0.879494
     14          1           0       -1.444738    1.724682    0.909336
     15          1           0        2.151957    0.997662   -0.738930
     16          1           0        1.905512   -0.449227    1.638710
     17          1           0        2.204043   -1.541911   -0.877592
     18          1           0        0.810342   -2.424816   -0.159995
     19          1           0        0.107740   -0.330909   -2.100271
 ---------------------------------------------------------------------

 SCF Done:  E(RB3LYP) =  -423.174681014     A.U. after    1 cycles

 The electronic state is 1-A.
 Alpha  occ. eigenvalues --  -19.13757 -19.13474 -10.23989 -10.23285 -10.23186
 Alpha  occ. eigenvalues --  -10.22277 -10.19438 -10.18743 -10.18238  -1.06610
 Alpha  occ. eigenvalues --   -1.01005  -0.83061  -0.78298  -0.69246  -0.66931
 Alpha  occ. eigenvalues --   -0.63200  -0.57061  -0.54389  -0.52405  -0.48078
 Alpha  occ. eigenvalues --   -0.47589  -0.44780  -0.42134  -0.41517  -0.39750
 Alpha  occ. eigenvalues --   -0.37646  -0.37338  -0.36079  -0.34223  -0.33522
 Alpha  occ. eigenvalues --   -0.32012  -0.31305  -0.25909  -0.22522
 Alpha virt. eigenvalues --    0.08477   0.09228   0.11096   0.12699   0.14469
 Alpha virt. eigenvalues --    0.14642   0.14936   0.15391   0.15973   0.16387
 Alpha virt. eigenvalues --    0.17907   0.18706   0.19117   0.21078   0.22018

 Mulliken charges:
               1
     1  C   -0.485526
     2  C    0.370163
     3  C   -0.091806
     4  O   -0.278933
     5  C    0.128069
     6  C    0.052482
     7  C   -0.262366
     8  C   -0.143897
     9  O   -0.316022
    10  H    0.131265
    11  H    0.118740
    12  H    0.127410
    13  H    0.085587
    14  H    0.112034
    15  H    0.088129
    16  H    0.080974
    17  H    0.103218
    18  H    0.106785
    19  H    0.073692
 Sum of Mulliken charges =   0.00000

 Dipole moment (field-independent basis, Debye):
    X=             -0.1192    Y=             -1.1482    Z=             -1.5045  Tot=              1.8963
 Quadrupole moment (field-independent basis, Debye-Ang):
   XX=            -48.2130   YY=            -56.6439   ZZ=            -54.1457
   XY=             -1.9035   XZ=              0.6419   YZ=              0.5059

  Exact polarizability:  82.612  -3.800  72.386   0.603   0.234  65.616
 Approx polarizability: 114.177  -3.693 105.713   0.620  -0.469 104.695

                      1                      2                      3
                      A                      A                      A
 Frequencies --    201.0601               237.5461               251.7116
 Red. masses --      1.0329                 2.8348                 2.4494
 Frc consts  --      0.0246                 0.0942                 0.0914
 IR Inten    --      0.0204                 2.2432                 0.7278

                      4                      5                      6
                      A                      A                      A
 Frequencies --    332.9708               400.9468               435.4210
 Red. masses --      2.8217                 2.8915                 2.4663
 Frc consts  --      0.1843                 0.2739                 0.2755
 IR Inten    --      4.7484                 0.3130                 1.0090

                      7                      8                      9
                      A                      A                      A
 Frequencies --    497.7911               604.4066               636.1324
 Red. masses --      3.2484                 3.9482                 4.5652
 Frc consts  --      0.4743                 0.8498                 1.0885
 IR Inten    --      3.1424                 3.6551                 0.5689

                     10                     11                     12
                      A                      A                      A
 Frequencies --    715.6777               752.0181               805.5421
 Red. masses --      5.0096                 3.3145                 2.6679
 Frc consts  --      1.5118                 1.1044                 1.0200
 IR Inten    --     10.7345                 3.8468                 0.8594

                     13                     14                     15
                      A                      A                      A
 Frequencies --    827.5645               869.3113               887.3675
 Red. masses --      3.6769                 2.0167                 2.4049
 Frc consts  --      1.4837                 0.8979                 1.1157
 IR Inten    --     22.9362                 4.5446                10.0802

                     16                     17                     18
                      A                      A                      A
 Frequencies --    909.5959               950.8729               966.8842
 Red. masses --      1.9221                 1.9226                 2.0102
 Frc consts  --      0.9370                 1.0242                 1.1072
 IR Inten    --      4.6725                11.2120                13.3931

                     19                     20                     21
                      A                      A                      A
 Frequencies --    981.6731              1005.4513              1021.5494
 Red. masses --      3.7092                 1.5305                 1.8682
 Frc consts  --      2.1060                 0.9116                 1.1487
 IR Inten    --      9.9835                 5.6853                20.1857

                     22                     23                     24
                      A                      A                      A
 Frequencies --   1051.7732              1084.5209              1103.0188
 Red. masses --      2.2610                 2.1226                 1.6996
 Frc consts  --      1.4736                 1.4710                 1.2183
 IR Inten    --     11.0502                72.8005                 8.9517

                     25                     26                     27
                      A                      A                      A
 Frequencies --   1107.4219              1149.7198              1180.1080
 Red. masses --      3.6514                 1.8981                 1.5084
 Frc consts  --      2.6384                 1.4783                 1.2377
 IR Inten    --     73.9168                 4.7388                 2.6710

                     28                     29                     30
                      A                      A                      A
 Frequencies --   1199.9420              1218.0206              1226.2593
 Red. masses --      1.5028                 1.7223                 1.6322
 Frc consts  --      1.2749                 1.5054                 1.4461
 IR Inten    --      1.1884                 7.2625                10.8219

                     31                     32                     33
                      A                      A                      A
 Frequencies --   1247.5193              1254.7135              1298.0382
 Red. masses --      1.6056                 1.9350                 2.1832
 Frc consts  --      1.4722                 1.7948                 2.1673
 IR Inten    --      3.8794                 7.2681                10.8764

                     34                     35                     36
                      A                      A                      A
 Frequencies --   1322.6849              1331.5242              1400.6844
 Red. masses --      1.5242                 1.4763                 1.5144
 Frc consts  --      1.5711                 1.5421                 1.7505
 IR Inten    --      5.8973                15.6916                 2.9623

                     37                     38                     39
                      A                      A                      A
 Frequencies --   1414.3195              1482.1161              1485.9663
 Red. masses --      1.4762                 1.0648                 1.1076
 Frc consts  --      1.7397                 1.3781                 1.4410
 IR Inten    --      9.3505                 0.9389                 5.5521

                     40                     41                     42
                      A                      A                      A
 Frequencies --   1495.2951              1507.1738              2989.0164
 Red. masses --      1.0572                 1.0944                 1.0678
 Frc consts  --      1.3927                 1.4648                 5.6210
 IR Inten    --      3.8196                 0.6972                69.8583

                     43                     44                     45
                      A                      A                      A
 Frequencies --   3040.3133              3070.6670              3079.9567
 Red. masses --      1.0354                 1.0564                 1.0962
 Frc consts  --      5.6388                 5.8688                 6.1269
 IR Inten    --     18.8665                24.5075                23.5768

                     46                     47                     48
                      A                      A                      A
 Frequencies --   3110.2681              3117.8673              3126.2159
 Red. masses --      1.1011                 1.1014                 1.0890
 Frc consts  --      6.2761                 6.3082                 6.2705
 IR Inten    --     14.3514                15.2365                18.3033

                     49                     50                     51
                      A                      A                      A
 Frequencies --   3131.9485              3134.6561              3142.1930
 Red. masses --      1.0943                 1.1048                 1.0937
 Frc consts  --      6.3245                 6.3958                 6.3622
 IR Inten    --     27.3937                34.9611                39.3790

 - Thermochemistry -
 -------------------
 Temperature   298.150 Kelvin.  Pressure   1.00000 Atm.
 Atom     1 has atomic number  6 and mass  12.00000

 Molecular mass:   126.06808 amu.
 Principal axes and moments of inertia in atomic units:
                           1         2         3
     Eigenvalues --   734.14761 805.081541118.93722
           X            0.99696  -0.07769   0.00508
           Y            0.07759   0.99682   0.01812
           Z           -0.00647  -0.01767   0.99982
 This molecule is an asymmetric top.
 Rotational symmetry number  1.
 Warning -- assumption of classical behavior for rotation
           may cause significant error
 Rotational temperatures (Kelvin)      0.11798     0.10758     0.07741
 Rotational constants (GHZ):           2.45828     2.24169     1.61291
 Zero-point vibrational energy     423450.6 (Joules/Mol)
                                  101.20713 (Kcal/Mol)
 Warning -- explicit consideration of   8 degrees of freedom as
           vibrations may cause significant error
 Vibrational temperatures:    289.28   341.78   362.16   479.07   576.87
          (Kelvin)            626.47   716.21   869.61   915.25  1029.70
                             1081.98  1158.99  1190.68  1250.74  1276.72
                             1308.70  1368.09  1391.13  1412.41  1446.62
                             1469.78  1513.27  1560.38  1587.00  1593.33
                             1654.19  1697.91  1726.45  1752.46  1764.31
                             1794.90  1805.25  1867.59  1903.05  1915.76
                             2015.27  2034.89  2132.43  2137.97  2151.39
                             2168.48  4300.52  4374.33  4418.00  4431.37
                             4474.98  4485.91  4497.92  4506.17  4510.07
                             4520.91

 Zero-point correction=                           0.161284 (Hartree/Particle)
 Thermal correction to Energy=                    0.168151
 Thermal correction to Enthalpy=                  0.169095
 Thermal correction to Gibbs Free Energy=         0.130531
 Sum of electronic and zero-point Energies=           -423.013397
 Sum of electronic and thermal Energies=              -423.006530
 Sum of electronic and thermal Enthalpies=            -423.005586
 Sum of electronic and thermal Free Energies=         -423.044150

                     E (Thermal)             CV                S
                      KCal/Mol        Cal/Mol-Kelvin    Cal/Mol-Kelvin
 Total                  105.517             28.844             81.166
 Electronic               0.000              0.000              0.000
 Translational            0.889              2.981             40.409
 Rotational               0.889              2.981             27.983
 Vibrational            103.739             22.883             12.775
 Vibration     1          0.638              1.838              2.123
 Vibration     2          0.656              1.783              1.821
 Vibration     3          0.664              1.760              1.719
 Vibration     4          0.715              1.610              1.246
 Vibration     5          0.767              1.468              0.959
 Vibration     6          0.796              1.393              0.841
 Vibration     7          0.853              1.255              0.664
 Vibration     8          0.963              1.022              0.442

 Normal termination of Gaussian 09 at Mon Jan 27 19:49:41 2020.
