 Gaussian 09, Revision D.01,
 Gaussian 09:  ES64L-G09RevD.01 24-Apr-2013

 -----------------------------
 # b3lyp 6-31G(2df,p) opt Freq
 -----------------------------

 -----
 titel
 -----
 Symbolic Z-matrix:
 Charge =  0 Multiplicity = 1

 SCF Done:  E(RB3LYP) =  -423.190312330     A.U. after   13 cycles
 Optimization completed.
    -- Stationary point found.
 Normal termination of Gaussian 09 at Tue Jan 28 03:29:22 2020.

 ----------------------------------------------------------------------
 #N Geom=AllCheck Guess=TCheck SCRF=Check GenChk RB3LYP/6-31G(2df,p) Fr
 eq
 ----------------------------------------------------------------------

 Structure from the checkpoint file:  "/scratch/puck/g09_6fe278ab-a1f8-4279-8aee-794b418b1c6d/Gau-79426.chk"
 -----
 titel
 -----
 Charge =  0 Multiplicity = 1

                         Standard orientation:
 ---------------------------------------------------------------------
 Center     Atomic      Atomic             Coordinates (Angstroms)
 Number     Number       Type             X           Y           Z
 ---------------------------------------------------------------------
      1          8           0       -2.414500   -0.181791    0.322015
      2          6           0       -1.312715    0.026192   -0.563053
      3          6           0       -0.593132    1.381164   -0.311112
      4          6           0        0.830864    1.150967    0.203962
      5          6           0        0.826307    0.183430    1.409253
      6          6           0        0.655188   -1.152794    0.699286
      7          6           0        1.142971   -0.889689   -0.701383
      8          8           0        1.560448    0.447330   -0.815265
      9          6           0       -0.329649   -1.127811   -0.473831
     10          1           0       -2.055336   -0.499179    1.157418
     11          1           0       -1.768419    0.040677   -1.557962
     12          1           0       -0.532227    1.958444   -1.238615
     13          1           0       -1.185626    1.960349    0.404015
     14          1           0        1.355523    2.090059    0.390099
     15          1           0        1.781215    0.206694    1.943943
     16          1           0        0.031917    0.430860    2.120547
     17          1           0        0.856925   -2.080429    1.220378
     18          1           0        1.749562   -1.568907   -1.286847
     19          1           0       -0.720113   -2.091637   -0.785709
 ---------------------------------------------------------------------

 SCF Done:  E(RB3LYP) =  -423.190312330     A.U. after    1 cycles

 The electronic state is 1-A.
 Alpha  occ. eigenvalues --  -19.14202 -19.12985 -10.23519 -10.23371 -10.23330
 Alpha  occ. eigenvalues --  -10.19413 -10.19164 -10.19043 -10.17638  -1.04900
 Alpha  occ. eigenvalues --   -1.01154  -0.85375  -0.78245  -0.73940  -0.64042
 Alpha  occ. eigenvalues --   -0.62445  -0.57387  -0.54713  -0.53479  -0.47273
 Alpha  occ. eigenvalues --   -0.46881  -0.44531  -0.43901  -0.42056  -0.40641
 Alpha  occ. eigenvalues --   -0.39517  -0.36332  -0.35554  -0.33956  -0.32521
 Alpha  occ. eigenvalues --   -0.31840  -0.27843  -0.25969  -0.23152
 Alpha virt. eigenvalues --    0.07018   0.09165   0.11367   0.11919   0.13009
 Alpha virt. eigenvalues --    0.14218   0.14528   0.15534   0.16750   0.17203
 Alpha virt. eigenvalues --    0.17836   0.18972   0.19829   0.21203   0.22646

 Mulliken charges:
               1
     1  O   -0.441411
     2  C    0.126212
     3  C   -0.239811
     4  C    0.062116
     5  C   -0.243386
     6  C   -0.130914
     7  C    0.092817
     8  O   -0.262067
     9  C   -0.117035
    10  H    0.279265
    11  H    0.090939
    12  H    0.107325
    13  H    0.103736
    14  H    0.081577
    15  H    0.109584
    16  H    0.096921
    17  H    0.089860
    18  H    0.103364
    19  H    0.090909
 Sum of Mulliken charges =   0.00000

 Dipole moment (field-independent basis, Debye):
    X=              0.7378    Y=             -0.6583    Z=              1.2304  Tot=              1.5785
 Quadrupole moment (field-independent basis, Debye-Ang):
   XX=            -61.1834   YY=            -49.5422   ZZ=            -50.8228
   XY=             -1.1720   XZ=              1.4297   YZ=              0.8769

  Exact polarizability:  73.148  -0.863  73.729   2.000   1.015  70.152
 Approx polarizability: 108.065   0.971 104.848  -1.532   0.175 109.282

                      1                      2                      3
                      A                      A                      A
 Frequencies --     93.6918               259.8149               302.1625
 Red. masses --      3.7145                 1.3781                 2.0966
 Frc consts  --      0.0192                 0.0548                 0.1128
 IR Inten    --      5.5048                28.2413                45.0984

                      4                      5                      6
                      A                      A                      A
 Frequencies --    349.4445               375.9523               438.0887
 Red. masses --      2.7815                 3.1056                 2.4544
 Frc consts  --      0.2001                 0.2586                 0.2775
 IR Inten    --      1.5078                 1.7490                 2.7729

                      7                      8                      9
                      A                      A                      A
 Frequencies --    537.5880               586.5968               638.4471
 Red. masses --      5.0610                 3.4241                 3.9801
 Frc consts  --      0.8618                 0.6942                 0.9559
 IR Inten    --      3.4781                 8.9883                 1.8115

                     10                     11                     12
                      A                      A                      A
 Frequencies --    700.7265               768.1827               785.6214
 Red. masses --      5.6333                 2.8175                 2.0937
 Frc consts  --      1.6297                 0.9796                 0.7614
 IR Inten    --      2.0283                12.7506                15.2625

                     13                     14                     15
                      A                      A                      A
 Frequencies --    833.6150               845.1808               885.3687
 Red. masses --      2.2408                 2.5994                 2.2909
 Frc consts  --      0.9174                 1.0940                 1.0580
 IR Inten    --      2.8334                12.1641                 1.3257

                     16                     17                     18
                      A                      A                      A
 Frequencies --    897.6823               939.7743               951.9307
 Red. masses --      2.6997                 2.6528                 2.4102
 Frc consts  --      1.2818                 1.3804                 1.2868
 IR Inten    --     12.2142                 4.0571                10.9552

                     19                     20                     21
                      A                      A                      A
 Frequencies --    998.5473              1026.3427              1045.9761
 Red. masses --      1.6801                 2.2338                 2.5012
 Frc consts  --      0.9870                 1.3864                 1.6123
 IR Inten    --      7.8639                43.4159                30.2288

                     22                     23                     24
                      A                      A                      A
 Frequencies --   1057.5563              1067.1509              1091.1950
 Red. masses --      1.7443                 1.8242                 1.7078
 Frc consts  --      1.1494                 1.2240                 1.1981
 IR Inten    --      7.4772                 3.9707                16.3280

                     25                     26                     27
                      A                      A                      A
 Frequencies --   1104.2429              1126.1907              1158.1614
 Red. masses --      1.8465                 2.3413                 1.4323
 Frc consts  --      1.3265                 1.7496                 1.1319
 IR Inten    --     26.1930                56.6333                 8.6429

                     28                     29                     30
                      A                      A                      A
 Frequencies --   1181.7089              1196.6923              1251.9353
 Red. masses --      1.2005                 1.1647                 2.0810
 Frc consts  --      0.9877                 0.9827                 1.9217
 IR Inten    --     13.6523                25.1633                 4.6109

                     31                     32                     33
                      A                      A                      A
 Frequencies --   1278.4317              1297.3391              1315.0956
 Red. masses --      1.3960                 1.3688                 1.4915
 Frc consts  --      1.3443                 1.3574                 1.5198
 IR Inten    --      7.8908                 2.2412                 3.4614

                     34                     35                     36
                      A                      A                      A
 Frequencies --   1326.0057              1361.2520              1368.6858
 Red. masses --      1.4733                 1.8381                 1.4364
 Frc consts  --      1.5263                 2.0068                 1.5854
 IR Inten    --      2.0405                 8.9408                 2.3953

                     37                     38                     39
                      A                      A                      A
 Frequencies --   1380.7574              1419.4494              1429.3700
 Red. masses --      1.4002                 2.3479                 1.2243
 Frc consts  --      1.5728                 2.7872                 1.4738
 IR Inten    --      9.3202                25.3840                50.4607

                     40                     41                     42
                      A                      A                      A
 Frequencies --   1470.9440              1495.9220              3045.4936
 Red. masses --      1.0936                 1.1056                 1.0596
 Frc consts  --      1.3942                 1.4577                 5.7901
 IR Inten    --      4.1504                 3.6641                17.3662

                     43                     44                     45
                      A                      A                      A
 Frequencies --   3047.1028              3059.4693              3087.0559
 Red. masses --      1.0663                 1.0791                 1.1047
 Frc consts  --      5.8334                 5.9514                 6.2027
 IR Inten    --     22.5013                33.7511                22.6420

                     46                     47                     48
                      A                      A                      A
 Frequencies --   3096.3415              3099.6462              3156.1469
 Red. masses --      1.0899                 1.1042                 1.0888
 Frc consts  --      6.1567                 6.2504                 6.3900
 IR Inten    --     46.0730                22.8553                11.8803

                     49                     50                     51
                      A                      A                      A
 Frequencies --   3184.3319              3198.7418              3808.0630
 Red. masses --      1.0900                 1.0949                 1.0659
 Frc consts  --      6.5122                 6.6009                 9.1068
 IR Inten    --     10.1149                21.8577                 9.7604

 - Thermochemistry -
 -------------------
 Temperature   298.150 Kelvin.  Pressure   1.00000 Atm.
 Atom     1 has atomic number  8 and mass  15.99491

 Molecular mass:   126.06808 amu.
 Principal axes and moments of inertia in atomic units:
                           1         2         3
     Eigenvalues --   646.928381028.591101149.38110
           X            0.99939  -0.02155   0.02748
           Y            0.02081   0.99942   0.02708
           Z           -0.02805  -0.02650   0.99926
 This molecule is an asymmetric top.
 Rotational symmetry number  1.
 Warning -- assumption of classical behavior for rotation
           may cause significant error
 Rotational temperatures (Kelvin)      0.13388     0.08421     0.07536
 Rotational constants (GHZ):           2.78971     1.75458     1.57019
 Zero-point vibrational energy     427193.7 (Joules/Mol)
                                  102.10175 (Kcal/Mol)
 Warning -- explicit consideration of   8 degrees of freedom as
           vibrations may cause significant error
 Vibrational temperatures:    134.80   373.82   434.74   502.77   540.91
          (Kelvin)            630.31   773.47   843.98   918.58  1008.19
                             1105.24  1130.33  1199.38  1216.03  1273.85
                             1291.56  1352.12  1369.61  1436.69  1476.68
                             1504.92  1521.59  1535.39  1569.98  1588.76
                             1620.34  1666.33  1700.21  1721.77  1801.25
                             1839.38  1866.58  1892.13  1907.82  1958.54
                             1969.23  1986.60  2042.27  2056.54  2116.36
                             2152.30  4381.78  4384.10  4401.89  4441.58
                             4454.94  4459.69  4540.99  4581.54  4602.27
                             5478.95

 Zero-point correction=                           0.162709 (Hartree/Particle)
 Thermal correction to Energy=                    0.169668
 Thermal correction to Enthalpy=                  0.170613
 Thermal correction to Gibbs Free Energy=         0.131515
 Sum of electronic and zero-point Energies=           -423.027603
 Sum of electronic and thermal Energies=              -423.020644
 Sum of electronic and thermal Enthalpies=            -423.019700
 Sum of electronic and thermal Free Energies=         -423.058798

                     E (Thermal)             CV                S
                      KCal/Mol        Cal/Mol-Kelvin    Cal/Mol-Kelvin
 Total                  106.469             28.912             82.289
 Electronic               0.000              0.000              0.000
 Translational            0.889              2.981             40.409
 Rotational               0.889              2.981             28.127
 Vibrational            104.691             22.951             13.753
 Vibration     1          0.603              1.954              3.581
 Vibration     2          0.668              1.746              1.663
 Vibration     3          0.694              1.670              1.405
 Vibration     4          0.727              1.576              1.169
 Vibration     5          0.747              1.521              1.055
 Vibration     6          0.798              1.387              0.833
 Vibration     7          0.893              1.167              0.570
 Vibration     8          0.944              1.060              0.473

 Optimization completed.
    -- Stationary point found.
 Normal termination of Gaussian 09 at Tue Jan 28 04:16:34 2020.
