 Gaussian 09, Revision D.01,
 Gaussian 09:  ES64L-G09RevD.01 24-Apr-2013

 -----------------------------
 # b3lyp 6-31G(2df,p) opt Freq
 -----------------------------

 -----
 titel
 -----
 Symbolic Z-matrix:
 Charge =  0 Multiplicity = 1

 SCF Done:  E(RB3LYP) =  -423.169371155     A.U. after   14 cycles
 Optimization completed.
    -- Stationary point found.
 Normal termination of Gaussian 09 at Tue Jan 28 14:14:44 2020.

 ----------------------------------------------------------------------
 #N Geom=AllCheck Guess=TCheck SCRF=Check GenChk RB3LYP/6-31G(2df,p) Fr
 eq
 ----------------------------------------------------------------------

 Structure from the checkpoint file:  "/scratch/puck/g09_ffa0890b-028a-48b1-9cea-72926c691595/Gau-98581.chk"
 -----
 titel
 -----
 Charge =  0 Multiplicity = 1

                         Standard orientation:
 ---------------------------------------------------------------------
 Center     Atomic      Atomic             Coordinates (Angstroms)
 Number     Number       Type             X           Y           Z
 ---------------------------------------------------------------------
      1          8           0       -3.500796   -0.249021   -0.172407
      2          6           0       -2.243345    0.020992    0.428705
      3          6           0       -1.094439   -0.708872   -0.276193
      4          6           0        0.256639   -0.466839    0.400700
      5          6           0        1.497432   -1.069809   -0.289165
      6          6           0        2.721328   -0.651807    0.435713
      7          6           0        2.101162    0.342096   -0.541105
      8          6           0        0.857272    0.926758    0.044501
      9          8           0        0.373824    2.026262    0.022184
     10          1           0       -3.521681    0.203396   -1.021360
     11          1           0       -2.030672    1.097312    0.468053
     12          1           0       -2.325862   -0.335213    1.462133
     13          1           0       -1.314449   -1.783100   -0.290727
     14          1           0       -1.045877   -0.381204   -1.324058
     15          1           0        0.191608   -0.695999    1.471385
     16          1           0        1.470803   -1.886518   -0.998610
     17          1           0        2.686530   -0.459498    1.504762
     18          1           0        3.662888   -1.065464    0.089267
     19          1           0        2.666189    0.733255   -1.377996
 ---------------------------------------------------------------------

 SCF Done:  E(RB3LYP) =  -423.169371155     A.U. after    1 cycles

 The electronic state is 1-A.
 Alpha  occ. eigenvalues --  -19.13261 -19.12994 -10.26983 -10.22148 -10.21749
 Alpha  occ. eigenvalues --  -10.21305 -10.20980 -10.20336 -10.18893  -1.04241
 Alpha  occ. eigenvalues --   -1.01058  -0.91307  -0.78380  -0.70076  -0.65178
 Alpha  occ. eigenvalues --   -0.60957  -0.59691  -0.52624  -0.50631  -0.49906
 Alpha  occ. eigenvalues --   -0.47102  -0.46122  -0.43329  -0.41360  -0.40209
 Alpha  occ. eigenvalues --   -0.39150  -0.38090  -0.36445  -0.35276  -0.32282
 Alpha  occ. eigenvalues --   -0.31400  -0.28766  -0.26256  -0.24114
 Alpha virt. eigenvalues --   -0.01198   0.08010   0.09189   0.09951   0.10340
 Alpha virt. eigenvalues --    0.11658   0.13282   0.14017   0.14764   0.17022
 Alpha virt. eigenvalues --    0.17115   0.18007   0.19918   0.20591   0.23501

 Mulliken charges:
               1
     1  O   -0.419181
     2  C   -0.074302
     3  C   -0.227011
     4  C   -0.129043
     5  C   -0.055405
     6  C   -0.294808
     7  C   -0.159642
     8  C    0.414168
     9  O   -0.328548
    10  H    0.282279
    11  H    0.122943
    12  H    0.106974
    13  H    0.107415
    14  H    0.092156
    15  H    0.090718
    16  H    0.108204
    17  H    0.123877
    18  H    0.128795
    19  H    0.110412
 Sum of Mulliken charges =   0.00000

 Dipole moment (field-independent basis, Debye):
    X=              2.3884    Y=             -2.0648    Z=             -0.9341  Tot=              3.2925
 Quadrupole moment (field-independent basis, Debye-Ang):
   XX=            -55.0362   YY=            -59.1771   ZZ=            -49.2662
   XY=             -4.4483   XZ=              2.2716   YZ=             -0.6569

  Exact polarizability:  91.520  -3.748  73.060  -0.501  -1.583  64.473
 Approx polarizability: 115.692  -6.503 122.216  -0.681  -3.371 100.098

                      1                      2                      3
                      A                      A                      A
 Frequencies --     81.8378                92.5377               120.9814
 Red. masses --      4.1198                 2.7624                 2.7613
 Frc consts  --      0.0163                 0.0139                 0.0238
 IR Inten    --      1.1653                 6.1032                 3.3965

                      4                      5                      6
                      A                      A                      A
 Frequencies --    169.6692               231.0794               290.3836
 Red. masses --      3.3746                 3.1691                 1.1154
 Frc consts  --      0.0572                 0.0997                 0.0554
 IR Inten    --      3.9523                 2.5539                89.2453

                      7                      8                      9
                      A                      A                      A
 Frequencies --    321.3478               335.6902               460.6898
 Red. masses --      4.6760                 3.5673                 4.3088
 Frc consts  --      0.2845                 0.2368                 0.5388
 IR Inten    --      0.8832                14.4864                 4.8715

                     10                     11                     12
                      A                      A                      A
 Frequencies --    504.0385               632.4340               698.3824
 Red. masses --      3.1140                 4.4795                 2.7030
 Frc consts  --      0.4661                 1.0556                 0.7768
 IR Inten    --      5.9854                 0.3547                 6.0562

                     13                     14                     15
                      A                      A                      A
 Frequencies --    765.3495               784.2410               840.7920
 Red. masses --      1.5538                 2.3749                 1.9450
 Frc consts  --      0.5362                 0.8606                 0.8101
 IR Inten    --      5.8571                14.1812                10.5972

                     16                     17                     18
                      A                      A                      A
 Frequencies --    886.3538               920.8494               930.2016
 Red. masses --      1.7600                 1.7770                 3.1529
 Frc consts  --      0.8146                 0.8878                 1.6074
 IR Inten    --     10.4535                 4.1240                13.9471

                     19                     20                     21
                      A                      A                      A
 Frequencies --    946.2669              1012.1867              1046.7225
 Red. masses --      1.6869                 2.0160                 1.2404
 Frc consts  --      0.8899                 1.2169                 0.8007
 IR Inten    --     24.2025                12.6953                 4.2522

                     22                     23                     24
                      A                      A                      A
 Frequencies --   1051.7534              1070.3283              1074.0650
 Red. masses --      1.5502                 2.2210                 2.8212
 Frc consts  --      1.0104                 1.4991                 1.9175
 IR Inten    --      9.2709                41.4722                90.9671

                     25                     26                     27
                      A                      A                      A
 Frequencies --   1092.1481              1114.6681              1122.4587
 Red. masses --      1.5195                 1.7594                 1.8745
 Frc consts  --      1.0678                 1.2880                 1.3915
 IR Inten    --     13.9433                 1.4320                11.1074

                     28                     29                     30
                      A                      A                      A
 Frequencies --   1156.7065              1192.8776              1221.3124
 Red. masses --      1.5719                 2.1567                 1.3556
 Frc consts  --      1.2391                 1.8082                 1.1914
 IR Inten    --      8.6810                 2.8039                 1.6331

                     31                     32                     33
                      A                      A                      A
 Frequencies --   1274.8335              1293.6973              1313.7341
 Red. masses --      1.4638                 1.8806                 1.2416
 Frc consts  --      1.4016                 1.8545                 1.2626
 IR Inten    --      3.3517                 7.8375                 3.8968

                     34                     35                     36
                      A                      A                      A
 Frequencies --   1327.7204              1360.9926              1405.7899
 Red. masses --      1.9374                 1.5276                 1.2578
 Frc consts  --      2.0122                 1.6672                 1.4646
 IR Inten    --      0.2788                 0.3664                21.5695

                     37                     38                     39
                      A                      A                      A
 Frequencies --   1420.3926              1489.1140              1495.6129
 Red. masses --      1.2857                 1.0859                 1.1779
 Frc consts  --      1.5283                 1.4187                 1.5524
 IR Inten    --     29.9091                 1.0225                 2.3759

                     40                     41                     42
                      A                      A                      A
 Frequencies --   1517.6856              1863.3819              3010.8633
 Red. masses --      1.0911                12.2594                 1.0615
 Frc consts  --      1.4807                25.0797                 5.6697
 IR Inten    --      1.5259               295.9130                 8.6919

                     43                     44                     45
                      A                      A                      A
 Frequencies --   3022.4491              3033.3785              3053.3435
 Red. masses --      1.0635                 1.0793                 1.0980
 Frc consts  --      5.7240                 5.8514                 6.0311
 IR Inten    --     18.7809                41.0811                 5.1361

                     46                     47                     48
                      A                      A                      A
 Frequencies --   3079.5308              3117.3168              3195.4206
 Red. masses --      1.1070                 1.0557                 1.0936
 Frc consts  --      6.1853                 6.0446                 6.5789
 IR Inten    --     49.0981                18.4612                 6.5094

                     49                     50                     51
                      A                      A                      A
 Frequencies --   3201.0509              3212.2137              3820.8785
 Red. masses --      1.1057                 1.1029                 1.0663
 Frc consts  --      6.6755                 6.7051                 9.1714
 IR Inten    --      1.9842                 9.3233                18.5010

 - Thermochemistry -
 -------------------
 Temperature   298.150 Kelvin.  Pressure   1.00000 Atm.
 Atom     1 has atomic number  8 and mass  15.99491

 Molecular mass:   126.06808 amu.
 Principal axes and moments of inertia in atomic units:
                           1         2         3
     Eigenvalues --   504.693061898.421952224.42965
           X            0.99990  -0.01403   0.00109
           Y            0.01403   0.99990  -0.00112
           Z           -0.00108   0.00114   1.00000
 This molecule is an asymmetric top.
 Rotational symmetry number  1.
 Warning -- assumption of classical behavior for rotation
           may cause significant error
 Rotational temperatures (Kelvin)      0.17162     0.04562     0.03894
 Rotational constants (GHZ):           3.57592     0.95065     0.81133
 Zero-point vibrational energy     416765.5 (Joules/Mol)
                                   99.60935 (Kcal/Mol)
 Warning -- explicit consideration of  10 degrees of freedom as
           vibrations may cause significant error
 Vibrational temperatures:    117.75   133.14   174.07   244.12   332.47
          (Kelvin)            417.80   462.35   482.98   662.83   725.20
                              909.93  1004.82  1101.17  1128.35  1209.71
                             1275.26  1324.90  1338.35  1361.47  1456.31
                             1506.00  1513.24  1539.96  1545.34  1571.36
                             1603.76  1614.97  1664.24  1716.28  1757.19
                             1834.20  1861.34  1890.17  1910.29  1958.16
                             2022.62  2043.63  2142.50  2151.85  2183.61
                             2680.99  4331.96  4348.62  4364.35  4393.07
                             4430.75  4485.12  4597.49  4605.59  4621.65
                             5497.39

 Zero-point correction=                           0.158738 (Hartree/Particle)
 Thermal correction to Energy=                    0.167643
 Thermal correction to Enthalpy=                  0.168587
 Thermal correction to Gibbs Free Energy=         0.124605
 Sum of electronic and zero-point Energies=           -423.010634
 Sum of electronic and thermal Energies=              -423.001728
 Sum of electronic and thermal Enthalpies=            -423.000784
 Sum of electronic and thermal Free Energies=         -423.044766

                     E (Thermal)             CV                S
                      KCal/Mol        Cal/Mol-Kelvin    Cal/Mol-Kelvin
 Total                  105.198             32.884             92.569
 Electronic               0.000              0.000              0.000
 Translational            0.889              2.981             40.409
 Rotational               0.889              2.981             29.145
 Vibrational            103.420             26.922             23.015
 Vibration     1          0.600              1.962              3.846
 Vibration     2          0.602              1.955              3.606
 Vibration     3          0.609              1.932              3.085
 Vibration     4          0.625              1.880              2.439
 Vibration     5          0.653              1.793              1.871
 Vibration     6          0.686              1.692              1.472
 Vibration     7          0.707              1.633              1.303
 Vibration     8          0.717              1.604              1.233
 Vibration     9          0.819              1.337              0.764
 Vibration    10          0.859              1.241              0.648

 Normal termination of Gaussian 09 at Tue Jan 28 14:58:51 2020.
