 Gaussian 09, Revision D.01,
 Gaussian 09:  ES64L-G09RevD.01 24-Apr-2013

 -----------------------------
 # b3lyp 6-31G(2df,p) opt Freq
 -----------------------------

 -----
 titel
 -----
 Symbolic Z-matrix:
 Charge =  0 Multiplicity = 1

 SCF Done:  E(RB3LYP) =  -423.140265645     A.U. after   14 cycles
 Optimization completed.
    -- Stationary point found.
 Normal termination of Gaussian 09 at Mon Jan 27 22:56:43 2020.

 ----------------------------------------------------------------------
 #N Geom=AllCheck Guess=TCheck SCRF=Check GenChk RB3LYP/6-31G(2df,p) Fr
 eq
 ----------------------------------------------------------------------

 Structure from the checkpoint file:  "/scratch/puck/g09_b071224b-81f1-44c1-b643-fb6d9bc87ad3/Gau-101399.chk"
 -----
 titel
 -----
 Charge =  0 Multiplicity = 1

                         Standard orientation:
 ---------------------------------------------------------------------
 Center     Atomic      Atomic             Coordinates (Angstroms)
 Number     Number       Type             X           Y           Z
 ---------------------------------------------------------------------
      1          6           0       -0.323262    2.019479    0.675921
      2          6           0        0.776904    1.026182    0.333871
      3          6           0        0.997434    0.482061   -1.110396
      4          6           0        1.895520   -0.625869   -0.466442
      5          6           0        0.623062   -0.546863    0.414905
      6          8           0        0.351922   -1.322916    1.516575
      7          6           0       -0.191591   -0.517969   -0.910369
      8          6           0       -1.656121   -0.202172   -0.840632
      9          8           0       -2.338810   -0.531179    0.105044
     10          1           0        0.039924    3.041538    0.523697
     11          1           0       -1.231249    1.912433    0.079064
     12          1           0       -0.613868    1.927269    1.728335
     13          1           0        1.711142    1.353916    0.803116
     14          1           0        1.221723    1.056780   -2.006057
     15          1           0        2.032699   -1.543780   -1.042805
     16          1           0        2.828624   -0.282113   -0.015064
     17          1           0       -0.607139   -1.299163    1.636407
     18          1           0       -0.099139   -1.422924   -1.530027
     19          1           0       -2.119292    0.279710   -1.730775
 ---------------------------------------------------------------------

 SCF Done:  E(RB3LYP) =  -423.140265645     A.U. after    1 cycles

 The electronic state is 1-A.
 Alpha  occ. eigenvalues --  -19.14980 -19.14262 -10.28052 -10.25283 -10.21507
 Alpha  occ. eigenvalues --  -10.20400 -10.19606 -10.19328 -10.17947  -1.05569
 Alpha  occ. eigenvalues --   -1.03201  -0.91523  -0.74382  -0.71888  -0.63291
 Alpha  occ. eigenvalues --   -0.62362  -0.59843  -0.54250  -0.52689  -0.48969
 Alpha  occ. eigenvalues --   -0.45392  -0.45074  -0.42777  -0.41594  -0.39848
 Alpha  occ. eigenvalues --   -0.39143  -0.37509  -0.36739  -0.34023  -0.32920
 Alpha  occ. eigenvalues --   -0.31912  -0.30200  -0.25838  -0.25744
 Alpha virt. eigenvalues --   -0.03373   0.09229   0.10343   0.11426   0.11844
 Alpha virt. eigenvalues --    0.12608   0.13787   0.14852   0.15340   0.15850
 Alpha virt. eigenvalues --    0.16923   0.18116   0.18710   0.19854   0.22319

 Mulliken charges:
               1
     1  C   -0.450803
     2  C   -0.007122
     3  C   -0.111450
     4  C   -0.269158
     5  C    0.393579
     6  O   -0.475306
     7  C   -0.112236
     8  C    0.091317
     9  O   -0.262520
    10  H    0.117515
    11  H    0.123630
    12  H    0.129870
    13  H    0.072251
    14  H    0.084774
    15  H    0.094919
    16  H    0.100290
    17  H    0.295001
    18  H    0.098611
    19  H    0.086839
 Sum of Mulliken charges =   0.00000

 Dipole moment (field-independent basis, Debye):
    X=              0.7424    Y=              1.2423    Z=             -2.0779  Tot=              2.5322
 Quadrupole moment (field-independent basis, Debye-Ang):
   XX=            -57.2810   YY=            -53.6002   ZZ=            -52.3571
   XY=              0.3877   XZ=              0.1799   YZ=              2.2373

  Exact polarizability:  82.486  -0.972  73.556  -1.573   1.199  72.487
 Approx polarizability: 119.134   2.361 107.099  -6.198  -3.744 115.542

                      1                      2                      3
                      A                      A                      A
 Frequencies --     87.6888               119.6309               149.8531
 Red. masses --      2.9873                 3.3252                 1.6162
 Frc consts  --      0.0135                 0.0280                 0.0214
 IR Inten    --      3.1088                 5.7743                 2.2981

                      4                      5                      6
                      A                      A                      A
 Frequencies --    194.3278               248.3565               328.5169
 Red. masses --      3.3209                 2.1734                 2.5838
 Frc consts  --      0.0739                 0.0790                 0.1643
 IR Inten    --      4.9916                 0.2024                 0.5248

                      7                      8                      9
                      A                      A                      A
 Frequencies --    359.7575               417.2397               452.3721
 Red. masses --      3.0894                 2.9211                 1.2866
 Frc consts  --      0.2356                 0.2996                 0.1551
 IR Inten    --     10.4651                15.9389                70.8094

                     10                     11                     12
                      A                      A                      A
 Frequencies --    486.3088               577.1992               652.3992
 Red. masses --      2.7532                 3.3637                 3.9429
 Frc consts  --      0.3836                 0.6603                 0.9888
 IR Inten    --     10.4652                 2.9144                 8.7931

                     13                     14                     15
                      A                      A                      A
 Frequencies --    710.6018               757.2455               767.6347
 Red. masses --      3.1674                 2.5593                 3.2778
 Frc consts  --      0.9423                 0.8647                 1.1380
 IR Inten    --      7.7717                 6.1803                 2.3830

                     16                     17                     18
                      A                      A                      A
 Frequencies --    829.1584               845.8024               936.3374
 Red. masses --      2.5445                 2.4124                 1.9702
 Frc consts  --      1.0307                 1.0168                 1.0177
 IR Inten    --      9.2455                 9.3814                 2.1173

                     19                     20                     21
                      A                      A                      A
 Frequencies --    963.1021              1010.1585              1019.3615
 Red. masses --      1.9052                 1.3379                 1.3234
 Frc consts  --      1.0412                 0.8043                 0.8102
 IR Inten    --     15.9370                 1.9638                 3.1271

                     22                     23                     24
                      A                      A                      A
 Frequencies --   1027.6750              1071.5999              1097.5917
 Red. masses --      1.4434                 1.5940                 1.7696
 Frc consts  --      0.8982                 1.0785                 1.2560
 IR Inten    --      5.2506                 3.6857                 3.5870

                     25                     26                     27
                      A                      A                      A
 Frequencies --   1111.8101              1130.1927              1150.0733
 Red. masses --      1.6511                 2.2773                 2.1707
 Frc consts  --      1.2025                 1.7138                 1.6916
 IR Inten    --      0.7389                20.5443                 6.6074

                     28                     29                     30
                      A                      A                      A
 Frequencies --   1168.2301              1181.5043              1219.3655
 Red. masses --      1.8067                 1.5701                 1.7610
 Frc consts  --      1.4528                 1.2914                 1.5427
 IR Inten    --      0.4501                 9.3156                 0.5362

                     31                     32                     33
                      A                      A                      A
 Frequencies --   1241.2756              1300.2656              1366.8667
 Red. masses --      1.9997                 2.1625                 1.6086
 Frc consts  --      1.8153                 2.1541                 1.7707
 IR Inten    --      6.3202               232.5345                41.4415

                     34                     35                     36
                      A                      A                      A
 Frequencies --   1390.4030              1412.4566              1419.3277
 Red. masses --      1.8487                 1.2670                 1.2725
 Frc consts  --      2.1057                 1.4893                 1.5103
 IR Inten    --      0.3645                14.0998                 0.9137

                     37                     38                     39
                      A                      A                      A
 Frequencies --   1434.7138              1485.1807              1503.3302
 Red. masses --      1.3541                 1.0486                 1.0555
 Frc consts  --      1.6422                 1.3628                 1.4054
 IR Inten    --     12.9253                 3.9058                 3.8027

                     40                     41                     42
                      A                      A                      A
 Frequencies --   1529.7022              1786.2687              2878.3312
 Red. masses --      1.1954                10.4455                 1.0833
 Frc consts  --      1.6481                19.6369                 5.2877
 IR Inten    --      5.5848               138.5007               122.3500

                     43                     44                     45
                      A                      A                      A
 Frequencies --   2998.1342              3035.3975              3043.1273
 Red. masses --      1.0805                 1.0494                 1.0725
 Frc consts  --      5.7225                 5.6966                 5.8517
 IR Inten    --     26.9227                22.9437                23.5573

                     46                     47                     48
                      A                      A                      A
 Frequencies --   3062.8569              3093.3589              3123.4596
 Red. masses --      1.0548                 1.1008                 1.0969
 Frc consts  --      5.8303                 6.2062                 6.3050
 IR Inten    --     42.6695                17.3994                28.9822

                     49                     50                     51
                      A                      A                      A
 Frequencies --   3132.0464              3145.1410              3765.4116
 Red. masses --      1.1113                 1.0926                 1.0654
 Frc consts  --      6.4228                 6.3676                 8.8997
 IR Inten    --     40.8739                31.2844                56.8588

 - Thermochemistry -
 -------------------
 Temperature   298.150 Kelvin.  Pressure   1.00000 Atm.
 Atom     1 has atomic number  6 and mass  12.00000

 Molecular mass:   126.06808 amu.
 Principal axes and moments of inertia in atomic units:
                           1         2         3
     Eigenvalues --   833.447671116.654531249.55246
           X            0.99913  -0.03787  -0.01730
           Y            0.03992   0.98938   0.13975
           Z            0.01183  -0.14032   0.99004
 This molecule is an asymmetric top.
 Rotational symmetry number  1.
 Warning -- assumption of classical behavior for rotation
           may cause significant error
 Rotational temperatures (Kelvin)      0.10392     0.07757     0.06932
 Rotational constants (GHZ):           2.16539     1.61620     1.44431
 Zero-point vibrational energy     414016.5 (Joules/Mol)
                                   98.95231 (Kcal/Mol)
 Warning -- explicit consideration of  11 degrees of freedom as
           vibrations may cause significant error
 Vibrational temperatures:    126.16   172.12   215.60   279.59   357.33
          (Kelvin)            472.66   517.61   600.31   650.86   699.69
                              830.46   938.66  1022.40  1089.51  1104.45
                             1192.97  1216.92  1347.18  1385.69  1453.39
                             1466.63  1478.59  1541.79  1579.19  1599.64
                             1626.09  1654.70  1680.82  1699.92  1754.39
                             1785.92  1870.79  1966.61  2000.48  2032.21
                             2042.09  2064.23  2136.84  2162.95  2200.90
                             2570.04  4141.27  4313.64  4367.25  4378.38
                             4406.76  4450.65  4493.96  4506.31  4525.15
                             5417.58

 Zero-point correction=                           0.157691 (Hartree/Particle)
 Thermal correction to Energy=                    0.166380
 Thermal correction to Enthalpy=                  0.167324
 Thermal correction to Gibbs Free Energy=         0.124447
 Sum of electronic and zero-point Energies=           -422.982575
 Sum of electronic and thermal Energies=              -422.973885
 Sum of electronic and thermal Enthalpies=            -422.972941
 Sum of electronic and thermal Free Energies=         -423.015818

                     E (Thermal)             CV                S
                      KCal/Mol        Cal/Mol-Kelvin    Cal/Mol-Kelvin
 Total                  104.405             33.064             90.242
 Electronic               0.000              0.000              0.000
 Translational            0.889              2.981             40.409
 Rotational               0.889              2.981             28.544
 Vibrational            102.628             27.103             21.290
 Vibration     1          0.601              1.958              3.711
 Vibration     2          0.609              1.933              3.106
 Vibration     3          0.618              1.903              2.674
 Vibration     4          0.635              1.848              2.186
 Vibration     5          0.662              1.765              1.742
 Vibration     6          0.712              1.619              1.267
 Vibration     7          0.734              1.555              1.123
 Vibration     8          0.780              1.433              0.901
 Vibration     9          0.811              1.356              0.789
 Vibration    10          0.842              1.280              0.693
 Vibration    11          0.934              1.081              0.491

 Optimization completed.
    -- Stationary point found.
 Normal termination of Gaussian 09 at Mon Jan 27 23:41:56 2020.
