 Gaussian 09, Revision D.01,
 Gaussian 09:  ES64L-G09RevD.01 24-Apr-2013

 -----------------------------
 # b3lyp 6-31G(2df,p) opt Freq
 -----------------------------

 -----
 titel
 -----
 Symbolic Z-matrix:
 Charge =  0 Multiplicity = 1

 SCF Done:  E(RB3LYP) =  -423.134311726     A.U. after   14 cycles
 Optimization completed.
    -- Stationary point found.
 Normal termination of Gaussian 09 at Mon Jan 27 16:31:46 2020.

 ----------------------------------------------------------------------
 #N Geom=AllCheck Guess=TCheck SCRF=Check GenChk RB3LYP/6-31G(2df,p) Fr
 eq
 ----------------------------------------------------------------------

 Structure from the checkpoint file:  "/scratch/puck/g09_0b1ff1ed-c808-4a75-a03d-2a52136fd97d/Gau-12310.chk"
 -----
 titel
 -----
 Charge =  0 Multiplicity = 1

                         Standard orientation:
 ---------------------------------------------------------------------
 Center     Atomic      Atomic             Coordinates (Angstroms)
 Number     Number       Type             X           Y           Z
 ---------------------------------------------------------------------
      1          6           0        2.083105    0.092921   -0.755610
      2          6           0        0.825098   -0.463384   -0.111645
      3          8           0        0.562837   -1.697233   -0.712739
      4          6           0        0.823501   -0.382782    1.436412
      5          8           0       -0.037551    0.775181    1.411728
      6          6           0       -0.383290    0.565274    0.017805
      7          6           0       -0.383368    1.864383   -0.775005
      8          6           0       -1.668196   -0.129509   -0.104331
      9          6           0       -2.695692   -0.748390   -0.207230
     10          1           0        1.928211    0.268929   -1.823558
     11          1           0        2.395920    1.024998   -0.280105
     12          1           0        2.888947   -0.639055   -0.645994
     13          1           0       -0.342737   -1.952628   -0.490996
     14          1           0        0.339934   -1.247871    1.909573
     15          1           0        1.774991   -0.173588    1.936170
     16          1           0       -1.185766    2.515628   -0.417193
     17          1           0        0.566602    2.387645   -0.654323
     18          1           0       -0.553298    1.663552   -1.836793
     19          1           0       -3.622037   -1.262278   -0.291072
 ---------------------------------------------------------------------

 SCF Done:  E(RB3LYP) =  -423.134311726     A.U. after    1 cycles

 The electronic state is 1-A.
 Alpha  occ. eigenvalues --  -19.14103 -19.14053 -10.26249 -10.24888 -10.22591
 Alpha  occ. eigenvalues --  -10.19366 -10.19059 -10.18543 -10.18055  -1.05389
 Alpha  occ. eigenvalues --   -1.02061  -0.79360  -0.76346  -0.73633  -0.67374
 Alpha  occ. eigenvalues --   -0.65301  -0.57901  -0.54694  -0.51837  -0.48661
 Alpha  occ. eigenvalues --   -0.47853  -0.44461  -0.40895  -0.40180  -0.39769
 Alpha  occ. eigenvalues --   -0.39313  -0.38790  -0.38070  -0.35531  -0.31147
 Alpha  occ. eigenvalues --   -0.29012  -0.28136  -0.26116  -0.25861
 Alpha virt. eigenvalues --    0.02050   0.03781   0.08552   0.11028   0.11306
 Alpha virt. eigenvalues --    0.12067   0.13225   0.13773   0.15317   0.15931
 Alpha virt. eigenvalues --    0.16115   0.17818   0.18780   0.21071   0.22015

 Mulliken charges:
               1
     1  C   -0.428404
     2  C    0.317237
     3  O   -0.473394
     4  C   -0.125741
     5  O   -0.304082
     6  C    0.124140
     7  C   -0.454061
     8  C    0.328610
     9  C   -0.458911
    10  H    0.127009
    11  H    0.126608
    12  H    0.130426
    13  H    0.280822
    14  H    0.099230
    15  H    0.106187
    16  H    0.138289
    17  H    0.126459
    18  H    0.133426
    19  H    0.206150
 Sum of Mulliken charges =   0.00000

 Dipole moment (field-independent basis, Debye):
    X=             -0.3295    Y=             -0.1308    Z=             -0.5657  Tot=              0.6676
 Quadrupole moment (field-independent basis, Debye-Ang):
   XX=            -47.4720   YY=            -53.4386   ZZ=            -56.0626
   XY=              4.5770   XZ=              2.4360   YZ=             -4.0475

  Exact polarizability:  93.792   7.909  72.826   3.816  -2.733  64.892
 Approx polarizability: 135.006  17.278 109.970   7.134   2.375  95.547

                      1                      2                      3
                      A                      A                      A
 Frequencies --     82.2373               141.4651               187.1759
 Red. masses --      3.2843                 4.0268                 1.7486
 Frc consts  --      0.0131                 0.0475                 0.0361
 IR Inten    --      1.5472                 0.0436                 1.4218

                      4                      5                      6
                      A                      A                      A
 Frequencies --    198.6227               234.9219               277.2304
 Red. masses --      1.7924                 1.3219                 2.7833
 Frc consts  --      0.0417                 0.0430                 0.1260
 IR Inten    --      1.7191                 0.1562                 1.7163

                      7                      8                      9
                      A                      A                      A
 Frequencies --    286.6915               354.1335               376.5138
 Red. masses --      1.5444                 2.4972                 3.0844
 Frc consts  --      0.0748                 0.1845                 0.2576
 IR Inten    --      0.8439                 0.2528                18.1165

                     10                     11                     12
                      A                      A                      A
 Frequencies --    402.3488               415.1350               464.6439
 Red. masses --      1.8039                 1.8527                 3.0634
 Frc consts  --      0.1721                 0.1881                 0.3897
 IR Inten    --     28.2098                58.6360                 2.7270

                     13                     14                     15
                      A                      A                      A
 Frequencies --    538.5866               582.9322               643.3981
 Red. masses --      6.4972                 4.0925                 2.4195
 Frc consts  --      1.1104                 0.8194                 0.5901
 IR Inten    --      6.3580                11.1908                 9.6946

                     16                     17                     18
                      A                      A                      A
 Frequencies --    648.5369               660.8265               675.9481
 Red. masses --      1.5683                 1.3315                 3.7217
 Frc consts  --      0.3886                 0.3426                 1.0019
 IR Inten    --     33.5225                33.2600                 6.9436

                     19                     20                     21
                      A                      A                      A
 Frequencies --    863.7100               892.9795               909.7572
 Red. masses --      2.7340                 2.4368                 1.7205
 Frc consts  --      1.2017                 1.1449                 0.8390
 IR Inten    --     13.8761                 3.7530                 6.8401

                     22                     23                     24
                      A                      A                      A
 Frequencies --    930.6855               988.6774              1012.2386
 Red. masses --      1.7479                 1.8699                 6.4013
 Frc consts  --      0.8920                 1.0769                 3.8644
 IR Inten    --      2.7846                36.2002                87.4712

                     25                     26                     27
                      A                      A                      A
 Frequencies --   1112.8798              1134.6269              1135.4374
 Red. masses --      2.1365                 2.0545                 2.0037
 Frc consts  --      1.5590                 1.5583                 1.5220
 IR Inten    --      9.8559                27.8906                23.5577

                     28                     29                     30
                      A                      A                      A
 Frequencies --   1164.7881              1192.4426              1211.8458
 Red. masses --      1.5196                 2.8058                 2.8001
 Frc consts  --      1.2147                 2.3507                 2.4228
 IR Inten    --     13.4106                22.4555                24.6004

                     31                     32                     33
                      A                      A                      A
 Frequencies --   1260.5877              1337.5557              1387.4014
 Red. masses --      3.0765                 1.5618                 1.2690
 Frc consts  --      2.8804                 1.6463                 1.4392
 IR Inten    --     77.2337                 4.6473                28.1652

                     34                     35                     36
                      A                      A                      A
 Frequencies --   1406.3170              1426.1582              1473.3838
 Red. masses --      1.2431                 1.6561                 1.0482
 Frc consts  --      1.4485                 1.9846                 1.3406
 IR Inten    --     14.0178                51.6560                 5.3520

                     37                     38                     39
                      A                      A                      A
 Frequencies --   1480.1110              1495.6174              1497.9018
 Red. masses --      1.0516                 1.0626                 1.0486
 Frc consts  --      1.3574                 1.4005                 1.3862
 IR Inten    --      0.9056                 1.6157                 5.6466

                     40                     41                     42
                      A                      A                      A
 Frequencies --   1516.0987              2215.9793              3012.4390
 Red. masses --      1.1016                 5.9295                 1.0596
 Frc consts  --      1.4919                17.1555                 5.6652
 IR Inten    --      1.2163                 0.5050                56.1908

                     43                     44                     45
                      A                      A                      A
 Frequencies --   3046.2701              3050.8859              3077.1868
 Red. masses --      1.0348                 1.0353                 1.1059
 Frc consts  --      5.6579                 5.6778                 6.1698
 IR Inten    --      7.8628                11.2892                37.9306

                     46                     47                     48
                      A                      A                      A
 Frequencies --   3117.4061              3121.5620              3132.2911
 Red. masses --      1.1016                 1.1015                 1.1025
 Frc consts  --      6.3075                 6.3236                 6.3734
 IR Inten    --     17.0736                 8.8267                12.2020

                     49                     50                     51
                      A                      A                      A
 Frequencies --   3142.9146              3495.4176              3747.9467
 Red. masses --      1.1013                 1.1611                 1.0652
 Frc consts  --      6.4095                 8.3579                 8.8158
 IR Inten    --     19.0198                70.8367                46.4234

 - Thermochemistry -
 -------------------
 Temperature   298.150 Kelvin.  Pressure   1.00000 Atm.
 Atom     1 has atomic number  6 and mass  12.00000

 Molecular mass:   126.06808 amu.
 Principal axes and moments of inertia in atomic units:
                           1         2         3
     Eigenvalues --   825.450231171.617351326.38464
           X            0.99947   0.03248  -0.00174
           Y           -0.03229   0.98435  -0.17325
           Z           -0.00391   0.17322   0.98488
 This molecule is an asymmetric top.
 Rotational symmetry number  1.
 Warning -- assumption of classical behavior for rotation
           may cause significant error
 Rotational temperatures (Kelvin)      0.10493     0.07393     0.06530
 Rotational constants (GHZ):           2.18637     1.54038     1.36065
 Zero-point vibrational energy     407704.4 (Joules/Mol)
                                   97.44368 (Kcal/Mol)
 Warning -- explicit consideration of  14 degrees of freedom as
           vibrations may cause significant error
 Vibrational temperatures:    118.32   203.54   269.30   285.77   338.00
          (Kelvin)            398.87   412.48   509.52   541.72   578.89
                              597.29   668.52   774.91   838.71   925.71
                              933.10   950.78   972.54  1242.68  1284.80
                             1308.94  1339.05  1422.48  1456.38  1601.18
                             1632.47  1633.64  1675.87  1715.66  1743.57
                             1813.70  1924.44  1996.16  2023.37  2051.92
                             2119.87  2129.55  2151.86  2155.14  2181.33
                             3188.30  4334.22  4382.90  4389.54  4427.38
                             4485.25  4491.23  4506.66  4521.95  5029.12
                             5392.45

 Zero-point correction=                           0.155286 (Hartree/Particle)
 Thermal correction to Energy=                    0.165001
 Thermal correction to Enthalpy=                  0.165945
 Thermal correction to Gibbs Free Energy=         0.121528
 Sum of electronic and zero-point Energies=           -422.979025
 Sum of electronic and thermal Energies=              -422.969311
 Sum of electronic and thermal Enthalpies=            -422.968367
 Sum of electronic and thermal Free Energies=         -423.012784

                     E (Thermal)             CV                S
                      KCal/Mol        Cal/Mol-Kelvin    Cal/Mol-Kelvin
 Total                  103.539             37.111             93.484
 Electronic               0.000              0.000              0.000
 Translational            0.889              2.981             40.409
 Rotational               0.889              2.981             28.641
 Vibrational            101.762             31.149             24.434
 Vibration     1          0.600              1.961              3.837
 Vibration     2          0.615              1.912              2.784
 Vibration     3          0.632              1.857              2.256
 Vibration     4          0.637              1.842              2.146
 Vibration     5          0.655              1.787              1.841
 Vibration     6          0.678              1.716              1.551
 Vibration     7          0.684              1.698              1.493
 Vibration     8          0.730              1.567              1.148
 Vibration     9          0.747              1.520              1.053
 Vibration    10          0.768              1.465              0.954
 Vibration    11          0.779              1.437              0.909
 Vibration    12          0.822              1.328              0.753
 Vibration    13          0.894              1.165              0.568
 Vibration    14          0.940              1.068              0.480

 Optimization completed.
    -- Stationary point found.
 Normal termination of Gaussian 09 at Mon Jan 27 18:33:58 2020.
