 Gaussian 09, Revision D.01,
 Gaussian 09:  ES64L-G09RevD.01 24-Apr-2013

 -----------------------------
 # b3lyp 6-31G(2df,p) opt Freq
 -----------------------------

 -----
 titel
 -----
 Symbolic Z-matrix:
 Charge =  0 Multiplicity = 1

 SCF Done:  E(RB3LYP) =  -423.150058491     A.U. after   14 cycles
 Optimization completed.
    -- Stationary point found.
 Normal termination of Gaussian 09 at Mon Jan 27 12:22:47 2020.

 ----------------------------------------------------------------------
 #N Geom=AllCheck Guess=TCheck SCRF=Check GenChk RB3LYP/6-31G(2df,p) Fr
 eq
 ----------------------------------------------------------------------

 Structure from the checkpoint file:  "/scratch/puck/g09_74a7c031-a59e-4a90-8cf9-fb535e5cd05c/Gau-52442.chk"
 -----
 titel
 -----
 Charge =  0 Multiplicity = 1

                         Standard orientation:
 ---------------------------------------------------------------------
 Center     Atomic      Atomic             Coordinates (Angstroms)
 Number     Number       Type             X           Y           Z
 ---------------------------------------------------------------------
      1          6           0        2.204197   -0.582773    0.268932
      2          8           0        2.118478    0.811429   -0.122892
      3          6           0        0.717335    0.615760   -0.457327
      4          6           0       -0.270642    1.675202   -0.097618
      5          6           0       -1.520248    1.339719    0.225501
      6          6           0       -2.095297   -0.068429    0.271753
      7          8           0       -1.475291   -1.036579   -0.567255
      8          6           0       -0.315711   -1.685566   -0.048762
      9          6           0        0.671614   -0.634270    0.425825
     10          1           0        2.589401   -1.207371   -0.551120
     11          1           0        2.822313   -0.723331    1.160025
     12          1           0        0.639760    0.359691   -1.526052
     13          1           0        0.046539    2.713824   -0.127699
     14          1           0       -2.237418    2.118864    0.476332
     15          1           0       -2.131541   -0.426122    1.315953
     16          1           0       -3.136081   -0.020965   -0.069177
     17          1           0       -0.591061   -2.384484    0.756095
     18          1           0        0.080247   -2.269369   -0.886298
     19          1           0        0.424853   -0.317401    1.443290
 ---------------------------------------------------------------------

 SCF Done:  E(RB3LYP) =  -423.150058491     A.U. after    1 cycles

 The electronic state is 1-A.
 Alpha  occ. eigenvalues --  -19.14295 -19.13174 -10.23828 -10.23435 -10.23396
 Alpha  occ. eigenvalues --  -10.23170 -10.19086 -10.18760 -10.18484  -1.03875
 Alpha  occ. eigenvalues --   -1.02915  -0.79888  -0.77815  -0.71201  -0.66529
 Alpha  occ. eigenvalues --   -0.64589  -0.56346  -0.55233  -0.50183  -0.49175
 Alpha  occ. eigenvalues --   -0.47059  -0.45965  -0.45238  -0.42840  -0.40302
 Alpha  occ. eigenvalues --   -0.39968  -0.37934  -0.36764  -0.33371  -0.31120
 Alpha  occ. eigenvalues --   -0.30330  -0.26632  -0.24963  -0.24104
 Alpha virt. eigenvalues --    0.01119   0.07909   0.08768   0.09660   0.11556
 Alpha virt. eigenvalues --    0.12431   0.14612   0.15273   0.15726   0.16871
 Alpha virt. eigenvalues --    0.17696   0.18480   0.18899   0.20660   0.21792

 Mulliken charges:
               1
     1  C   -0.134770
     2  O   -0.310678
     3  C    0.141273
     4  C   -0.133884
     5  C   -0.041740
     6  C   -0.141484
     7  O   -0.243464
     8  C   -0.122872
     9  C   -0.030615
    10  H    0.097063
    11  H    0.110358
    12  H    0.090795
    13  H    0.104313
    14  H    0.093388
    15  H    0.102638
    16  H    0.119704
    17  H    0.092692
    18  H    0.111279
    19  H    0.096003
 Sum of Mulliken charges =   0.00000

 Dipole moment (field-independent basis, Debye):
    X=             -0.8128    Y=             -0.9362    Z=              1.1775  Tot=              1.7099
 Quadrupole moment (field-independent basis, Debye-Ang):
   XX=            -54.6580   YY=            -52.0994   ZZ=            -53.3576
   XY=             -5.8867   XZ=             -1.6647   YZ=             -1.0453

  Exact polarizability:  92.144  -4.299  77.483  -3.839  -0.644  59.259
 Approx polarizability: 131.191   0.587 108.749  -6.990  -1.099  95.270

                      1                      2                      3
                      A                      A                      A
 Frequencies --    118.6071               190.0213               258.8492
 Red. masses --      2.6549                 2.8289                 3.2464
 Frc consts  --      0.0220                 0.0602                 0.1282
 IR Inten    --      1.6121                 3.4055                 2.5955

                      4                      5                      6
                      A                      A                      A
 Frequencies --    283.4530               332.9856               372.5703
 Red. masses --      3.3159                 2.8738                 5.6063
 Frc consts  --      0.1570                 0.1877                 0.4585
 IR Inten    --      2.9480                 1.7575                 2.4706

                      7                      8                      9
                      A                      A                      A
 Frequencies --    393.4656               485.4051               550.1187
 Red. masses --      2.0960                 4.3608                 2.2928
 Frc consts  --      0.1912                 0.6054                 0.4088
 IR Inten    --      1.9476                 6.9610                 3.5647

                     10                     11                     12
                      A                      A                      A
 Frequencies --    657.1968               725.8494               766.7074
 Red. masses --      2.1310                 2.9944                 3.0411
 Frc consts  --      0.5423                 0.9295                 1.0533
 IR Inten    --     16.4948                17.2574                 5.0345

                     13                     14                     15
                      A                      A                      A
 Frequencies --    846.3526               868.0712               942.3398
 Red. masses --      2.7980                 2.7671                 1.7813
 Frc consts  --      1.1809                 1.2285                 0.9320
 IR Inten    --      1.4352                13.3896                13.4088

                     16                     17                     18
                      A                      A                      A
 Frequencies --    947.3851               977.4063               984.5514
 Red. masses --      2.1890                 3.7912                 1.3911
 Frc consts  --      1.1576                 2.1339                 0.7945
 IR Inten    --     11.0759                50.0566                 8.8844

                     19                     20                     21
                      A                      A                      A
 Frequencies --   1000.4409              1025.7267              1051.6140
 Red. masses --      3.8789                 2.5320                 2.9933
 Frc consts  --      2.2874                 1.5695                 1.9503
 IR Inten    --     25.8848                 9.8350                15.9050

                     22                     23                     24
                      A                      A                      A
 Frequencies --   1092.4789              1116.9696              1135.9984
 Red. masses --      1.8608                 3.4730                 2.2689
 Frc consts  --      1.3085                 2.5529                 1.7251
 IR Inten    --      0.5809               112.5766                21.1785

                     25                     26                     27
                      A                      A                      A
 Frequencies --   1156.7593              1181.3861              1200.1181
 Red. masses --      1.8095                 1.5758                 1.1905
 Frc consts  --      1.4265                 1.2958                 1.0102
 IR Inten    --      0.9569                17.7415                 0.4666

                     28                     29                     30
                      A                      A                      A
 Frequencies --   1236.1978              1272.8664              1292.7897
 Red. masses --      1.2744                 1.2412                 1.2124
 Frc consts  --      1.1474                 1.1848                 1.1939
 IR Inten    --      3.7883                 9.5842                 4.5986

                     31                     32                     33
                      A                      A                      A
 Frequencies --   1318.1462              1329.3990              1354.1295
 Red. masses --      1.2049                 1.2970                 1.2375
 Frc consts  --      1.2335                 1.3505                 1.3370
 IR Inten    --      2.4842                 7.1239                 8.5387

                     34                     35                     36
                      A                      A                      A
 Frequencies --   1386.5740              1402.7929              1404.5271
 Red. masses --      1.3456                 1.3234                 1.6007
 Frc consts  --      1.5242                 1.5344                 1.8604
 IR Inten    --      8.8763                 7.5013                10.0866

                     37                     38                     39
                      A                      A                      A
 Frequencies --   1425.3129              1478.6587              1501.7856
 Red. masses --      1.7314                 1.0795                 1.0911
 Frc consts  --      2.0724                 1.3906                 1.4499
 IR Inten    --      3.3279                 4.0090                 0.9828

                     40                     41                     42
                      A                      A                      A
 Frequencies --   1520.4245              1708.2074              2950.3552
 Red. masses --      1.1160                 7.1503                 1.0714
 Frc consts  --      1.5200                12.2930                 5.4947
 IR Inten    --      1.0993                 0.2537                41.2737

                     43                     44                     45
                      A                      A                      A
 Frequencies --   2970.1115              2985.1674              2993.0004
 Red. masses --      1.0805                 1.0683                 1.0675
 Frc consts  --      5.6161                 5.6087                 5.6342
 IR Inten    --     31.7224                56.4344                84.9529

                     46                     47                     48
                      A                      A                      A
 Frequencies --   3052.0825              3058.9929              3077.1678
 Red. masses --      1.0891                 1.0848                 1.0947
 Frc consts  --      5.9776                 5.9809                 6.1070
 IR Inten    --     31.4041                 1.2924                26.6274

                     49                     50                     51
                      A                      A                      A
 Frequencies --   3089.1011              3144.9498              3176.6647
 Red. masses --      1.0982                 1.0850                 1.0952
 Frc consts  --      6.1745                 6.3230                 6.5115
 IR Inten    --     61.4237                11.1733                15.6837

 - Thermochemistry -
 -------------------
 Temperature   298.150 Kelvin.  Pressure   1.00000 Atm.
 Atom     1 has atomic number  6 and mass  12.00000

 Molecular mass:   126.06808 amu.
 Principal axes and moments of inertia in atomic units:
                           1         2         3
     Eigenvalues --   633.433571130.773021607.14761
           X            0.99854  -0.05322  -0.00973
           Y            0.05317   0.99857  -0.00614
           Z            0.01004   0.00561   0.99993
 This molecule is an asymmetric top.
 Rotational symmetry number  1.
 Warning -- assumption of classical behavior for rotation
           may cause significant error
 Rotational temperatures (Kelvin)      0.13674     0.07660     0.05389
 Rotational constants (GHZ):           2.84914     1.59602     1.12295
 Zero-point vibrational energy     423431.6 (Joules/Mol)
                                  101.20258 (Kcal/Mol)
 Warning -- explicit consideration of   9 degrees of freedom as
           vibrations may cause significant error
 Vibrational temperatures:    170.65   273.40   372.43   407.83   479.09
          (Kelvin)            536.04   566.11   698.39   791.50   945.56
                             1044.33  1103.12  1217.71  1248.96  1355.82
                             1363.07  1406.27  1416.55  1439.41  1475.79
                             1513.04  1571.83  1607.07  1634.45  1664.32
                             1699.75  1726.70  1778.61  1831.37  1860.03
                             1896.52  1912.71  1948.29  1994.97  2018.30
                             2020.80  2050.70  2127.46  2160.73  2187.55
                             2457.73  4244.90  4273.32  4294.98  4306.25
                             4391.26  4401.20  4427.35  4444.52  4524.88
                             4570.51

 Zero-point correction=                           0.161277 (Hartree/Particle)
 Thermal correction to Energy=                    0.168718
 Thermal correction to Enthalpy=                  0.169662
 Thermal correction to Gibbs Free Energy=         0.129514
 Sum of electronic and zero-point Energies=           -422.988782
 Sum of electronic and thermal Energies=              -422.981341
 Sum of electronic and thermal Enthalpies=            -422.980396
 Sum of electronic and thermal Free Energies=         -423.020544

                     E (Thermal)             CV                S
                      KCal/Mol        Cal/Mol-Kelvin    Cal/Mol-Kelvin
 Total                  105.872             29.532             84.499
 Electronic               0.000              0.000              0.000
 Translational            0.889              2.981             40.409
 Rotational               0.889              2.981             28.533
 Vibrational            104.095             23.570             15.557
 Vibration     1          0.609              1.934              3.123
 Vibration     2          0.633              1.854              2.228
 Vibration     3          0.668              1.748              1.670
 Vibration     4          0.682              1.704              1.513
 Vibration     5          0.715              1.610              1.246
 Vibration     6          0.744              1.528              1.069
 Vibration     7          0.761              1.484              0.987
 Vibration     8          0.841              1.282              0.696
 Vibration     9          0.905              1.139              0.544

 Optimization completed.
    -- Stationary point found.
 Normal termination of Gaussian 09 at Mon Jan 27 13:12:12 2020.
