 Gaussian 09, Revision D.01,
 Gaussian 09:  ES64L-G09RevD.01 24-Apr-2013

 -----------------------------
 # b3lyp 6-31G(2df,p) opt Freq
 -----------------------------

 -----
 titel
 -----
 Symbolic Z-matrix:
 Charge =  0 Multiplicity = 1

 SCF Done:  E(RB3LYP) =  -423.108079929     A.U. after   14 cycles
 Optimization completed.
    -- Stationary point found.
 Normal termination of Gaussian 09 at Tue Jan 28 14:06:03 2020.

 ----------------------------------------------------------------------
 #N Geom=AllCheck Guess=TCheck SCRF=Check GenChk RB3LYP/6-31G(2df,p) Fr
 eq
 ----------------------------------------------------------------------

 Structure from the checkpoint file:  "/scratch/puck/g09_f33ff87b-825b-41f9-8ec6-29cb431c712a/Gau-43879.chk"
 -----
 titel
 -----
 Charge =  0 Multiplicity = 1

                         Standard orientation:
 ---------------------------------------------------------------------
 Center     Atomic      Atomic             Coordinates (Angstroms)
 Number     Number       Type             X           Y           Z
 ---------------------------------------------------------------------
      1          6           0       -2.848719   -0.398003    0.100772
      2          8           0       -1.519359   -0.716807   -0.255552
      3          6           0       -0.563908    0.081546    0.388964
      4          6           0       -0.260820    1.456201   -0.277874
      5          8           0        0.841569    2.011131    0.443291
      6          6           0        1.114380    1.040848   -0.587855
      7          6           0        0.877298   -0.331027    0.006873
      8          6           0        1.235888   -1.645947   -0.614933
      9          6           0        1.827134   -1.245378    0.717466
     10          1           0       -3.119114    0.630543   -0.179707
     11          1           0       -3.500650   -1.090957   -0.436014
     12          1           0       -3.015346   -0.514015    1.182477
     13          1           0       -0.768921    0.159670    1.466666
     14          1           0       -0.933588    2.131581   -0.793647
     15          1           0        1.785632    1.339309   -1.385161
     16          1           0        0.462230   -2.404800   -0.632710
     17          1           0        1.881756   -1.638009   -1.487142
     18          1           0        1.468134   -1.752324    1.607344
     19          1           0        2.874662   -0.965024    0.755509
 ---------------------------------------------------------------------

 SCF Done:  E(RB3LYP) =  -423.108079929     A.U. after    1 cycles

 The electronic state is 1-A.
 Alpha  occ. eigenvalues --  -19.14927 -19.14803 -10.23785 -10.23565 -10.23295
 Alpha  occ. eigenvalues --  -10.22933 -10.19812 -10.18610 -10.18488  -1.07597
 Alpha  occ. eigenvalues --   -1.03920  -0.86178  -0.76350  -0.69080  -0.64142
 Alpha  occ. eigenvalues --   -0.60976  -0.59782  -0.54182  -0.51511  -0.49527
 Alpha  occ. eigenvalues --   -0.48420  -0.46088  -0.45022  -0.42423  -0.39373
 Alpha  occ. eigenvalues --   -0.39146  -0.36642  -0.35885  -0.33704  -0.31244
 Alpha  occ. eigenvalues --   -0.29310  -0.27698  -0.26108  -0.24386
 Alpha virt. eigenvalues --    0.07670   0.08699   0.10399   0.11171   0.12090
 Alpha virt. eigenvalues --    0.12855   0.14065   0.14666   0.15343   0.16337
 Alpha virt. eigenvalues --    0.18093   0.18402   0.18901   0.19517   0.22409

 Mulliken charges:
               1
     1  C   -0.237446
     2  O   -0.240848
     3  C    0.013010
     4  C   -0.014677
     5  O   -0.246654
     6  C   -0.075895
     7  C    0.335276
     8  C   -0.314154
     9  C   -0.330345
    10  H    0.109006
    11  H    0.130111
    12  H    0.110581
    13  H    0.075773
    14  H    0.106603
    15  H    0.103863
    16  H    0.130002
    17  H    0.112782
    18  H    0.117224
    19  H    0.115789
 Sum of Mulliken charges =   0.00000

 Dipole moment (field-independent basis, Debye):
    X=             -1.0312    Y=             -0.5996    Z=             -0.6345  Tot=              1.3511
 Quadrupole moment (field-independent basis, Debye-Ang):
   XX=            -47.5242   YY=            -56.8226   ZZ=            -52.5897
   XY=             -2.3734   XZ=             -2.7719   YZ=             -3.4564

  Exact polarizability:  87.627  -3.333  76.305  -1.302  -1.295  64.868
 Approx polarizability: 115.812  -2.939 109.756  -0.550   3.622 100.497

                      1                      2                      3
                      A                      A                      A
 Frequencies --     91.4130               117.7041               164.5594
 Red. masses --      2.6072                 2.3755                 2.4978
 Frc consts  --      0.0128                 0.0194                 0.0399
 IR Inten    --      1.5915                 0.9407                 1.7904

                      4                      5                      6
                      A                      A                      A
 Frequencies --    179.0605               259.2572               270.0512
 Red. masses --      1.5467                 2.9737                 2.3707
 Frc consts  --      0.0292                 0.1178                 0.1019
 IR Inten    --      0.3826                 1.8955                 1.1720

                      7                      8                      9
                      A                      A                      A
 Frequencies --    293.0592               421.8039               496.7596
 Red. masses --      3.6253                 3.6084                 6.1878
 Frc consts  --      0.1834                 0.3783                 0.8997
 IR Inten    --      9.7411                 2.9204                 0.3454

                     10                     11                     12
                      A                      A                      A
 Frequencies --    550.9758               603.2375               774.0794
 Red. masses --      4.3082                 3.5298                 1.0541
 Frc consts  --      0.7706                 0.7568                 0.3721
 IR Inten    --      5.0391                 2.8854                 0.1256

                     13                     14                     15
                      A                      A                      A
 Frequencies --    823.1873               845.5034               869.6431
 Red. masses --      6.3339                 1.7775                 1.9818
 Frc consts  --      2.5288                 0.7487                 0.8831
 IR Inten    --      6.2381                10.7861                14.7619

                     16                     17                     18
                      A                      A                      A
 Frequencies --    880.4951               934.0500               956.5613
 Red. masses --      1.9219                 1.5478                 2.6819
 Frc consts  --      0.8779                 0.7956                 1.4458
 IR Inten    --     19.9506                 1.0140                 4.6661

                     19                     20                     21
                      A                      A                      A
 Frequencies --    983.0392               989.5423              1011.0647
 Red. masses --      3.1036                 3.4514                 2.7984
 Frc consts  --      1.7671                 1.9912                 1.6855
 IR Inten    --     23.5682                23.0652                 1.0542

                     22                     23                     24
                      A                      A                      A
 Frequencies --   1036.4110              1055.9641              1058.3860
 Red. masses --      3.0600                 1.4544                 1.5294
 Frc consts  --      1.9366                 0.9555                 1.0094
 IR Inten    --     16.1749                 3.9337                 1.9648

                     25                     26                     27
                      A                      A                      A
 Frequencies --   1076.6070              1151.5345              1181.5101
 Red. masses --      1.3921                 3.4141                 1.2904
 Frc consts  --      0.9507                 2.6674                 1.0614
 IR Inten    --      0.7395               141.7643                 3.6231

                     28                     29                     30
                      A                      A                      A
 Frequencies --   1187.6889              1207.3259              1212.6212
 Red. masses --      1.2872                 1.4329                 1.4448
 Frc consts  --      1.0698                 1.2306                 1.2518
 IR Inten    --      0.0779                 5.4184                10.2319

                     31                     32                     33
                      A                      A                      A
 Frequencies --   1226.3587              1245.7966              1268.8053
 Red. masses --      1.6075                 1.8089                 1.8547
 Frc consts  --      1.4245                 1.6541                 1.7592
 IR Inten    --     27.7738                 7.2844                21.7831

                     34                     35                     36
                      A                      A                      A
 Frequencies --   1363.5607              1366.8097              1406.6353
 Red. masses --      1.4607                 3.8257                 2.4350
 Frc consts  --      1.6001                 4.2110                 2.8386
 IR Inten    --     45.9455                 8.5068                17.0691

                     37                     38                     39
                      A                      A                      A
 Frequencies --   1465.3813              1480.0851              1487.5041
 Red. masses --      1.0869                 1.1321                 1.0699
 Frc consts  --      1.3751                 1.4612                 1.3948
 IR Inten    --      1.2898                 2.1023                 3.3423

                     40                     41                     42
                      A                      A                      A
 Frequencies --   1505.2346              1507.5191              2980.7165
 Red. masses --      1.5272                 1.0848                 1.0385
 Frc consts  --      2.0387                 1.4526                 5.4362
 IR Inten    --      0.3794                 7.5229                46.5501

                     43                     44                     45
                      A                      A                      A
 Frequencies --   2999.4038              3030.5666              3118.8011
 Red. masses --      1.0817                 1.1032                 1.0970
 Frc consts  --      5.7338                 5.9696                 6.2869
 IR Inten    --     58.9172                47.5736                26.9705

                     46                     47                     48
                      A                      A                      A
 Frequencies --   3127.7043              3133.7186              3177.3418
 Red. masses --      1.0525                 1.0567                 1.0875
 Frc consts  --      6.0665                 6.1141                 6.4684
 IR Inten    --     15.5187                12.8166                16.3619

                     49                     50                     51
                      A                      A                      A
 Frequencies --   3192.4780              3208.0466              3225.7108
 Red. masses --      1.1017                 1.1174                 1.1150
 Frc consts  --      6.6153                 6.7754                 6.8357
 IR Inten    --     18.8666                 2.1218                 9.6526

 - Thermochemistry -
 -------------------
 Temperature   298.150 Kelvin.  Pressure   1.00000 Atm.
 Atom     1 has atomic number  6 and mass  12.00000

 Molecular mass:   126.06808 amu.
 Principal axes and moments of inertia in atomic units:
                           1         2         3
     Eigenvalues --   786.386551133.440381676.99034
           X            0.99817  -0.05942  -0.01108
           Y            0.05919   0.99805  -0.02004
           Z            0.01225   0.01934   0.99974
 This molecule is an asymmetric top.
 Rotational symmetry number  1.
 Warning -- assumption of classical behavior for rotation
           may cause significant error
 Rotational temperatures (Kelvin)      0.11014     0.07642     0.05165
 Rotational constants (GHZ):           2.29498     1.59227     1.07618
 Zero-point vibrational energy     413915.5 (Joules/Mol)
                                   98.92819 (Kcal/Mol)
 Warning -- explicit consideration of  11 degrees of freedom as
           vibrations may cause significant error
 Vibrational temperatures:    131.52   169.35   236.76   257.63   373.01
          (Kelvin)            388.54   421.65   606.88   714.73   792.73
                              867.92  1113.73  1184.38  1216.49  1251.22
                             1266.83  1343.89  1376.28  1414.37  1423.73
                             1454.69  1491.16  1519.29  1522.78  1549.00
                             1656.80  1699.93  1708.82  1737.07  1744.69
                             1764.45  1792.42  1825.53  1961.86  1966.53
                             2023.83  2108.35  2129.51  2140.18  2165.69
                             2168.98  4288.58  4315.47  4360.30  4487.25
                             4500.06  4508.72  4571.48  4593.26  4615.66
                             4641.07

 Zero-point correction=                           0.157652 (Hartree/Particle)
 Thermal correction to Energy=                    0.166219
 Thermal correction to Enthalpy=                  0.167163
 Thermal correction to Gibbs Free Energy=         0.124296
 Sum of electronic and zero-point Energies=           -422.950428
 Sum of electronic and thermal Energies=              -422.941861
 Sum of electronic and thermal Enthalpies=            -422.940916
 Sum of electronic and thermal Free Energies=         -422.983783

                     E (Thermal)             CV                S
                      KCal/Mol        Cal/Mol-Kelvin    Cal/Mol-Kelvin
 Total                  104.304             32.204             90.221
 Electronic               0.000              0.000              0.000
 Translational            0.889              2.981             40.409
 Rotational               0.889              2.981             28.793
 Vibrational            102.527             26.242             21.020
 Vibration     1          0.602              1.955              3.630
 Vibration     2          0.608              1.935              3.138
 Vibration     3          0.623              1.886              2.497
 Vibration     4          0.629              1.868              2.338
 Vibration     5          0.668              1.747              1.667
 Vibration     6          0.674              1.728              1.596
 Vibration     7          0.688              1.687              1.456
 Vibration     8          0.784              1.423              0.886
 Vibration     9          0.852              1.257              0.666
 Vibration    10          0.906              1.138              0.542
 Vibration    11          0.962              1.025              0.444

 Optimization completed.
    -- Stationary point found.
 Normal termination of Gaussian 09 at Tue Jan 28 14:52:55 2020.
