 Gaussian 09, Revision D.01,
 Gaussian 09:  ES64L-G09RevD.01 24-Apr-2013

 -----------------------------
 # b3lyp 6-31G(2df,p) opt Freq
 -----------------------------

 -----
 titel
 -----
 Symbolic Z-matrix:
 Charge =  0 Multiplicity = 1

 SCF Done:  E(RB3LYP) =  -423.123808038     A.U. after   14 cycles
 Optimization completed.
    -- Stationary point found.
 Normal termination of Gaussian 09 at Tue Jan 28 12:39:41 2020.

 ----------------------------------------------------------------------
 #N Geom=AllCheck Guess=TCheck SCRF=Check GenChk RB3LYP/6-31G(2df,p) Fr
 eq
 ----------------------------------------------------------------------

 Structure from the checkpoint file:  "/scratch/puck/g09_705c1ce0-9ae8-4315-a9ff-9b92559d8dee/Gau-116186.chk"
 -----
 titel
 -----
 Charge =  0 Multiplicity = 1

                         Standard orientation:
 ---------------------------------------------------------------------
 Center     Atomic      Atomic             Coordinates (Angstroms)
 Number     Number       Type             X           Y           Z
 ---------------------------------------------------------------------
      1          6           0        0.681211    2.546430    0.096019
      2          8           0       -0.403452    1.737817   -0.318453
      3          6           0       -0.339402    0.428764    0.144375
      4          6           0       -1.534826   -0.468370   -0.232852
      5          8           0       -2.636467   -0.582943    0.623469
      6          6           0       -0.548519   -1.652493   -0.418602
      7          6           0        0.602182   -0.607550   -0.580181
      8          6           0        1.900432   -0.897225   -0.015081
      9          6           0        2.967941   -1.135718    0.486814
     10          1           0        1.640610    2.170776   -0.285233
     11          1           0        0.505803    3.548248   -0.302174
     12          1           0        0.743401    2.602519    1.193323
     13          1           0       -0.149578    0.390558    1.230612
     14          1           0       -1.931376   -0.137669   -1.197557
     15          1           0       -2.319589   -0.874206    1.485038
     16          1           0       -0.427594   -2.221804    0.507871
     17          1           0       -0.721461   -2.343849   -1.243739
     18          1           0        0.690720   -0.308578   -1.629935
     19          1           0        3.914303   -1.348006    0.918713
 ---------------------------------------------------------------------

 SCF Done:  E(RB3LYP) =  -423.123808038     A.U. after    1 cycles

 The electronic state is 1-A.
 Alpha  occ. eigenvalues --  -19.14797 -19.14234 -10.23852 -10.23577 -10.22680
 Alpha  occ. eigenvalues --  -10.21311 -10.19273 -10.18235 -10.17248  -1.04486
 Alpha  occ. eigenvalues --   -1.02482  -0.85187  -0.75066  -0.70735  -0.66869
 Alpha  occ. eigenvalues --   -0.63762  -0.59376  -0.53991  -0.51472  -0.50639
 Alpha  occ. eigenvalues --   -0.46405  -0.45505  -0.43173  -0.42537  -0.41963
 Alpha  occ. eigenvalues --   -0.39728  -0.36937  -0.35502  -0.33594  -0.31607
 Alpha  occ. eigenvalues --   -0.28480  -0.26668  -0.26199  -0.24183
 Alpha virt. eigenvalues --    0.04531   0.04964   0.07748   0.08598   0.10360
 Alpha virt. eigenvalues --    0.12140   0.13196   0.14050   0.15103   0.15734
 Alpha virt. eigenvalues --    0.17377   0.18127   0.18919   0.19662   0.21715

 Mulliken charges:
               1
     1  C   -0.246399
     2  O   -0.239013
     3  C    0.104880
     4  C    0.112912
     5  O   -0.429939
     6  C   -0.294558
     7  C   -0.209468
     8  C    0.300141
     9  C   -0.445071
    10  H    0.122727
    11  H    0.129707
    12  H    0.109553
    13  H    0.065715
    14  H    0.108294
    15  H    0.278904
    16  H    0.107792
    17  H    0.117951
    18  H    0.111870
    19  H    0.194002
 Sum of Mulliken charges =   0.00000

 Dipole moment (field-independent basis, Debye):
    X=              1.4829    Y=             -0.2998    Z=              0.8864  Tot=              1.7534
 Quadrupole moment (field-independent basis, Debye-Ang):
   XX=            -57.7585   YY=            -51.7495   ZZ=            -49.3123
   XY=              2.5949   XZ=              0.7423   YZ=             -0.4076

  Exact polarizability:  94.768  -2.955  76.547   7.148  -1.463  64.905
 Approx polarizability: 138.990  -8.845  99.970  17.036  -5.729 102.823

                      1                      2                      3
                      A                      A                      A
 Frequencies --     77.5072                85.6871               124.0399
 Red. masses --      3.1899                 3.1756                 3.9425
 Frc consts  --      0.0113                 0.0137                 0.0357
 IR Inten    --      2.6574                 1.2458                 0.0028

                      4                      5                      6
                      A                      A                      A
 Frequencies --    165.5481               217.3603               234.0199
 Red. masses --      1.2621                 2.9447                 2.6695
 Frc consts  --      0.0204                 0.0820                 0.0861
 IR Inten    --      0.6939                 0.5303                 0.1275

                      7                      8                      9
                      A                      A                      A
 Frequencies --    267.7186               329.0724               375.7604
 Red. masses --      2.0284                 1.6610                 3.5932
 Frc consts  --      0.0857                 0.1060                 0.2989
 IR Inten    --     13.2286                80.8251                13.8149

                     10                     11                     12
                      A                      A                      A
 Frequencies --    442.7054               493.6006               498.8594
 Red. masses --      4.4430                 3.3864                 4.8750
 Frc consts  --      0.5130                 0.4861                 0.7148
 IR Inten    --     12.7054                 1.9796                 4.6969

                     13                     14                     15
                      A                      A                      A
 Frequencies --    540.3404               580.3379               614.2896
 Red. masses --      3.6702                 2.9534                 1.2041
 Frc consts  --      0.6314                 0.5861                 0.2677
 IR Inten    --      1.9385                 1.2170                45.0214

                     16                     17                     18
                      A                      A                      A
 Frequencies --    625.9700               823.1981               847.2322
 Red. masses --      1.2154                 1.9880                 2.0620
 Frc consts  --      0.2806                 0.7937                 0.8721
 IR Inten    --     45.3581                 3.1116                 7.2951

                     19                     20                     21
                      A                      A                      A
 Frequencies --    934.7450              1018.5857              1039.9242
 Red. masses --      5.1414                 4.3578                 3.1303
 Frc consts  --      2.6468                 2.6639                 1.9946
 IR Inten    --     18.6545                14.1777                12.0513

                     22                     23                     24
                      A                      A                      A
 Frequencies --   1053.8376              1063.8011              1089.2313
 Red. masses --      2.7034                 2.4228                 1.6614
 Frc consts  --      1.7689                 1.6154                 1.1614
 IR Inten    --     47.3711                 8.9371                 9.9349

                     25                     26                     27
                      A                      A                      A
 Frequencies --   1154.3911              1160.4119              1182.5607
 Red. masses --      2.9301                 1.6312                 1.2994
 Frc consts  --      2.3006                 1.2941                 1.0706
 IR Inten    --    170.1722                25.4137                 7.4739

                     28                     29                     30
                      A                      A                      A
 Frequencies --   1193.7204              1209.5685              1222.1522
 Red. masses --      1.5282                 1.4280                 1.4765
 Frc consts  --      1.2830                 1.2310                 1.2993
 IR Inten    --     48.0819                21.5139                26.1789

                     31                     32                     33
                      A                      A                      A
 Frequencies --   1249.3144              1271.0475              1330.9117
 Red. masses --      1.4849                 1.5224                 1.4982
 Frc consts  --      1.3655                 1.4491                 1.5636
 IR Inten    --     26.1457                23.0693                 4.4950

                     34                     35                     36
                      A                      A                      A
 Frequencies --   1347.1555              1395.8111              1445.4812
 Red. masses --      1.4941                 1.3052                 1.2753
 Frc consts  --      1.5976                 1.4982                 1.5699
 IR Inten    --      4.8767                36.6224                61.1268

                     37                     38                     39
                      A                      A                      A
 Frequencies --   1482.6787              1487.6765              1493.4645
 Red. masses --      1.1174                 1.0597                 1.1611
 Frc consts  --      1.4472                 1.3818                 1.5259
 IR Inten    --      2.8006                 5.7216                14.5708

                     40                     41                     42
                      A                      A                      A
 Frequencies --   1507.9985              2230.0415              2961.8552
 Red. masses --      1.0850                 6.0025                 1.0818
 Frc consts  --      1.4537                17.5878                 5.5915
 IR Inten    --      4.5553                 8.4845                32.4504

                     43                     44                     45
                      A                      A                      A
 Frequencies --   2987.7496              3043.4454              3055.6763
 Red. masses --      1.0385                 1.1007                 1.0822
 Frc consts  --      5.4621                 6.0070                 5.9538
 IR Inten    --     49.7105                40.6981                 5.3008

                     46                     47                     48
                      A                      A                      A
 Frequencies --   3066.5352              3080.8221              3121.4896
 Red. masses --      1.0644                 1.0830                 1.0984
 Frc consts  --      5.8975                 6.0563                 6.3056
 IR Inten    --     15.8537                23.0479                29.8384

                     49                     50                     51
                      A                      A                      A
 Frequencies --   3135.1930              3504.5145              3808.1831
 Red. masses --      1.1058                 1.1602                 1.0658
 Frc consts  --      6.4039                 8.3955                 9.1070
 IR Inten    --     24.0065                75.3384                15.1459

 - Thermochemistry -
 -------------------
 Temperature   298.150 Kelvin.  Pressure   1.00000 Atm.
 Atom     1 has atomic number  6 and mass  12.00000

 Molecular mass:   126.06808 amu.
 Principal axes and moments of inertia in atomic units:
                           1         2         3
     Eigenvalues --   949.490641306.138202041.68190
           X            0.99776   0.06656   0.00703
           Y           -0.06662   0.99774   0.00896
           Z           -0.00642  -0.00940   0.99994
 This molecule is an asymmetric top.
 Rotational symmetry number  1.
 Warning -- assumption of classical behavior for rotation
           may cause significant error
 Rotational temperatures (Kelvin)      0.09122     0.06631     0.04242
 Rotational constants (GHZ):           1.90075     1.38174     0.88395
 Zero-point vibrational energy     410757.1 (Joules/Mol)
                                   98.17330 (Kcal/Mol)
 Warning -- explicit consideration of  15 degrees of freedom as
           vibrations may cause significant error
 Vibrational temperatures:    111.52   123.28   178.47   238.19   312.73
          (Kelvin)            336.70   385.19   473.46   540.63   636.95
                              710.18   717.75   777.43   834.98   883.82
                              900.63  1184.40  1218.98  1344.89  1465.52
                             1496.22  1516.24  1530.57  1567.16  1660.91
                             1669.57  1701.44  1717.50  1740.30  1758.40
                             1797.48  1828.75  1914.88  1938.25  2008.26
                             2079.72  2133.24  2140.43  2148.76  2169.67
                             3208.53  4261.44  4298.70  4378.83  4396.43
                             4412.05  4432.61  4491.12  4510.84  5042.21
                             5479.12

 Zero-point correction=                           0.156449 (Hartree/Particle)
 Thermal correction to Energy=                    0.166264
 Thermal correction to Enthalpy=                  0.167208
 Thermal correction to Gibbs Free Energy=         0.121562
 Sum of electronic and zero-point Energies=           -422.967359
 Sum of electronic and thermal Energies=              -422.957544
 Sum of electronic and thermal Enthalpies=            -422.956600
 Sum of electronic and thermal Free Energies=         -423.002246

                     E (Thermal)             CV                S
                      KCal/Mol        Cal/Mol-Kelvin    Cal/Mol-Kelvin
 Total                  104.332             35.934             96.071
 Electronic               0.000              0.000              0.000
 Translational            0.889              2.981             40.409
 Rotational               0.889              2.981             29.317
 Vibrational            102.555             29.973             26.345
 Vibration     1          0.599              1.964              3.953
 Vibration     2          0.601              1.959              3.756
 Vibration     3          0.610              1.929              3.036
 Vibration     4          0.624              1.885              2.485
 Vibration     5          0.646              1.815              1.981
 Vibration     6          0.654              1.789              1.848
 Vibration     7          0.673              1.732              1.611
 Vibration     8          0.712              1.617              1.265
 Vibration     9          0.747              1.522              1.056
 Vibration    10          0.802              1.377              0.818
 Vibration    11          0.849              1.264              0.674
 Vibration    12          0.854              1.253              0.661
 Vibration    13          0.895              1.161              0.565
 Vibration    14          0.937              1.074              0.485
 Vibration    15          0.974              1.002              0.426

 Normal termination of Gaussian 09 at Tue Jan 28 13:19:08 2020.
