 Gaussian 09, Revision D.01,
 Gaussian 09:  ES64L-G09RevD.01 24-Apr-2013

 -----------------------------
 # b3lyp 6-31G(2df,p) opt Freq
 -----------------------------

 -----
 titel
 -----
 Symbolic Z-matrix:
 Charge =  0 Multiplicity = 1

 SCF Done:  E(RB3LYP) =  -423.097141991     A.U. after   13 cycles
 Optimization completed.
    -- Stationary point found.
 Normal termination of Gaussian 09 at Tue Jan 28 13:50:00 2020.

 ----------------------------------------------------------------------
 #N Geom=AllCheck Guess=TCheck SCRF=Check GenChk RB3LYP/6-31G(2df,p) Fr
 eq
 ----------------------------------------------------------------------

 Structure from the checkpoint file:  "/scratch/puck/g09_8a02670c-c534-4bff-b6a0-0444f22055db/Gau-146068.chk"
 -----
 titel
 -----
 Charge =  0 Multiplicity = 1

                         Standard orientation:
 ---------------------------------------------------------------------
 Center     Atomic      Atomic             Coordinates (Angstroms)
 Number     Number       Type             X           Y           Z
 ---------------------------------------------------------------------
      1          6           0       -2.913544   -0.332752   -0.640136
      2          6           0       -1.928918   -0.566892    0.512215
      3          6           0       -0.487556   -0.623983    0.042267
      4          6           0        0.589207   -0.341018    1.080075
      5          6           0        2.023436   -0.492501    0.481871
      6          8           0        1.939502   -0.893346   -0.898300
      7          6           0        1.737276    0.485023   -0.560806
      8          6           0        0.279079    0.675588    0.002896
      9          8           0       -0.277332    1.927757    0.181000
     10          1           0       -2.732666    0.631292   -1.128492
     11          1           0       -2.821800   -1.111405   -1.404897
     12          1           0       -3.947884   -0.333391   -0.282823
     13          1           0       -2.043291    0.227214    1.258029
     14          1           0       -2.174630   -1.509701    1.016481
     15          1           0       -0.276636   -1.372558   -0.714824
     16          1           0        0.375912   -0.293034    2.139712
     17          1           0        2.935179   -0.732338    1.015024
     18          1           0        2.350762    1.234732   -1.047553
     19          1           0       -0.756186    2.163119   -0.622541
 ---------------------------------------------------------------------

 SCF Done:  E(RB3LYP) =  -423.097141991     A.U. after    1 cycles

 The electronic state is 1-A.
 Alpha  occ. eigenvalues --  -19.15654 -19.15314 -10.24062 -10.23883 -10.23535
 Alpha  occ. eigenvalues --  -10.18963 -10.18911 -10.18393 -10.17680  -1.07869
 Alpha  occ. eigenvalues --   -1.03840  -0.86513  -0.76682  -0.68718  -0.64524
 Alpha  occ. eigenvalues --   -0.61915  -0.57492  -0.54957  -0.52953  -0.49492
 Alpha  occ. eigenvalues --   -0.47188  -0.44056  -0.42150  -0.41194  -0.39770
 Alpha  occ. eigenvalues --   -0.37698  -0.36648  -0.35278  -0.34844  -0.33409
 Alpha  occ. eigenvalues --   -0.32178  -0.26907  -0.25112  -0.22791
 Alpha virt. eigenvalues --    0.05408   0.06859   0.10403   0.10858   0.12601
 Alpha virt. eigenvalues --    0.13415   0.15151   0.15388   0.15838   0.17113
 Alpha virt. eigenvalues --    0.17580   0.18885   0.20039   0.20739   0.22670

 Mulliken charges:
               1
     1  C   -0.373647
     2  C   -0.217573
     3  C   -0.071581
     4  C   -0.192782
     5  C    0.016876
     6  O   -0.239408
     7  C   -0.059267
     8  C    0.337701
     9  O   -0.454501
    10  H    0.100538
    11  H    0.119414
    12  H    0.114591
    13  H    0.107776
    14  H    0.099631
    15  H    0.105945
    16  H    0.098015
    17  H    0.110464
    18  H    0.108539
    19  H    0.289271
 Sum of Mulliken charges =   0.00000

 Dipole moment (field-independent basis, Debye):
    X=             -0.6703    Y=              0.7204    Z=              0.1007  Tot=              0.9892
 Quadrupole moment (field-independent basis, Debye-Ang):
   XX=            -50.9306   YY=            -54.6300   ZZ=            -52.3061
   XY=              1.4749   XZ=              3.1629   YZ=             -5.1774

  Exact polarizability:  88.373   0.028  68.258   1.519  -4.666  67.402
 Approx polarizability: 109.758  -2.821 109.985   1.809  -5.636 108.658

                      1                      2                      3
                      A                      A                      A
 Frequencies --     84.3937               143.0944               181.5719
 Red. masses --      2.5837                 3.1820                 1.5595
 Frc consts  --      0.0108                 0.0384                 0.0303
 IR Inten    --      0.0851                 0.0889                 0.2722

                      4                      5                      6
                      A                      A                      A
 Frequencies --    246.7579               277.4214               302.7191
 Red. masses --      2.1349                 2.1527                 1.2771
 Frc consts  --      0.0766                 0.0976                 0.0690
 IR Inten    --     12.7162                 7.8184                65.3232

                      7                      8                      9
                      A                      A                      A
 Frequencies --    343.8207               382.4998               430.7812
 Red. masses --      4.0588                 2.9654                 3.1124
 Frc consts  --      0.2827                 0.2556                 0.3403
 IR Inten    --     52.4965                12.7637                 2.7315

                     10                     11                     12
                      A                      A                      A
 Frequencies --    466.0830               597.2347               668.5077
 Red. masses --      3.9165                 3.8573                 4.0574
 Frc consts  --      0.5013                 0.8106                 1.0683
 IR Inten    --      1.0666                 9.9647                 5.8883

                     13                     14                     15
                      A                      A                      A
 Frequencies --    751.3885               767.8822               805.0136
 Red. masses --      3.2704                 1.7622                 4.4353
 Frc consts  --      1.0879                 0.6122                 1.6935
 IR Inten    --      0.8049                 1.5045                 3.6695

                     16                     17                     18
                      A                      A                      A
 Frequencies --    837.2378               858.7663               893.5551
 Red. masses --      1.4840                 2.0248                 2.7930
 Frc consts  --      0.6129                 0.8798                 1.3139
 IR Inten    --     34.9479                 3.9792                 4.6648

                     19                     20                     21
                      A                      A                      A
 Frequencies --    931.5822               947.9933               971.2286
 Red. masses --      1.4884                 1.8724                 3.3286
 Frc consts  --      0.7610                 0.9914                 1.8499
 IR Inten    --      3.2065                 1.0765                29.4719

                     22                     23                     24
                      A                      A                      A
 Frequencies --    996.7774              1034.9854              1056.2011
 Red. masses --      2.6882                 1.6935                 1.8079
 Frc consts  --      1.5737                 1.0688                 1.1883
 IR Inten    --      8.7527                 0.7638                 2.4258

                     25                     26                     27
                      A                      A                      A
 Frequencies --   1065.9784              1123.4925              1137.6071
 Red. masses --      1.4433                 2.3294                 1.7422
 Frc consts  --      0.9663                 1.7323                 1.3284
 IR Inten    --      9.1247                 1.0098                 2.3698

                     28                     29                     30
                      A                      A                      A
 Frequencies --   1167.5045              1183.5686              1229.4185
 Red. masses --      1.5004                 1.5968                 1.4226
 Frc consts  --      1.2050                 1.3179                 1.2668
 IR Inten    --      6.6880                21.2875                 4.5418

                     31                     32                     33
                      A                      A                      A
 Frequencies --   1243.2755              1284.9818              1294.1605
 Red. masses --      1.4625                 1.6475                 1.3303
 Frc consts  --      1.3319                 1.6028                 1.3127
 IR Inten    --     12.2538               105.8391                10.7466

                     34                     35                     36
                      A                      A                      A
 Frequencies --   1340.0086              1370.8306              1386.5297
 Red. masses --      1.4533                 3.9932                 1.7501
 Frc consts  --      1.5375                 4.4212                 1.9823
 IR Inten    --      8.5323                17.6758                 9.4095

                     37                     38                     39
                      A                      A                      A
 Frequencies --   1411.9090              1452.0777              1485.5503
 Red. masses --      1.2371                 3.3806                 1.0762
 Frc consts  --      1.4530                 4.1998                 1.3993
 IR Inten    --      2.2177                12.7461                 1.3778

                     40                     41                     42
                      A                      A                      A
 Frequencies --   1498.8338              1502.4408              3027.6216
 Red. masses --      1.0476                 1.0714                 1.0559
 Frc consts  --      1.3866                 1.4249                 5.7024
 IR Inten    --      4.8813                 2.2543                14.9409

                     43                     44                     45
                      A                      A                      A
 Frequencies --   3030.9635              3067.4868              3096.8152
 Red. masses --      1.0425                 1.0978                 1.1016
 Frc consts  --      5.6427                 6.0862                 6.2246
 IR Inten    --     37.9952                 2.5897                49.3268

                     46                     47                     48
                      A                      A                      A
 Frequencies --   3105.7860              3160.3549              3179.2690
 Red. masses --      1.1013                 1.0871                 1.0881
 Frc consts  --      6.2590                 6.3973                 6.4802
 IR Inten    --     34.0644                11.4102                13.7392

                     49                     50                     51
                      A                      A                      A
 Frequencies --   3195.7485              3207.8740              3775.9865
 Red. masses --      1.0992                 1.0954                 1.0660
 Frc consts  --      6.6144                 6.6415                 8.9553
 IR Inten    --     20.5677                 6.9226                16.5075

 - Thermochemistry -
 -------------------
 Temperature   298.150 Kelvin.  Pressure   1.00000 Atm.
 Atom     1 has atomic number  6 and mass  12.00000

 Molecular mass:   126.06808 amu.
 Principal axes and moments of inertia in atomic units:
                           1         2         3
     Eigenvalues --   582.373911469.430641655.85960
           X            0.99964   0.02125   0.01661
           Y           -0.02019   0.99789  -0.06171
           Z           -0.01788   0.06135   0.99796
 This molecule is an asymmetric top.
 Rotational symmetry number  1.
 Warning -- assumption of classical behavior for rotation
           may cause significant error
 Rotational temperatures (Kelvin)      0.14873     0.05894     0.05231
 Rotational constants (GHZ):           3.09894     1.22819     1.08991
 Zero-point vibrational energy     412733.0 (Joules/Mol)
                                   98.64556 (Kcal/Mol)
 Warning -- explicit consideration of  11 degrees of freedom as
           vibrations may cause significant error
 Vibrational temperatures:    121.42   205.88   261.24   355.03   399.15
          (Kelvin)            435.54   494.68   550.33   619.80   670.59
                              859.29   961.83  1081.08  1104.81  1158.23
                             1204.60  1235.57  1285.62  1340.34  1363.95
                             1397.38  1434.14  1489.11  1519.64  1533.70
                             1616.45  1636.76  1679.78  1702.89  1768.86
                             1788.79  1848.80  1862.01  1927.97  1972.32
                             1994.90  2031.42  2089.21  2137.37  2156.48
                             2161.67  4356.07  4360.87  4413.42  4455.62
                             4468.53  4547.04  4574.25  4597.96  4615.41
                             5432.80

 Zero-point correction=                           0.157202 (Hartree/Particle)
 Thermal correction to Energy=                    0.165810
 Thermal correction to Enthalpy=                  0.166754
 Thermal correction to Gibbs Free Energy=         0.124161
 Sum of electronic and zero-point Energies=           -422.939940
 Sum of electronic and thermal Energies=              -422.931332
 Sum of electronic and thermal Enthalpies=            -422.930388
 Sum of electronic and thermal Free Energies=         -422.972981

                     E (Thermal)             CV                S
                      KCal/Mol        Cal/Mol-Kelvin    Cal/Mol-Kelvin
 Total                  104.047             33.399             89.643
 Electronic               0.000              0.000              0.000
 Translational            0.889              2.981             40.409
 Rotational               0.889              2.981             28.740
 Vibrational            102.270             27.438             20.495
 Vibration     1          0.601              1.960              3.786
 Vibration     2          0.616              1.910              2.762
 Vibration     3          0.630              1.865              2.312
 Vibration     4          0.661              1.768              1.754
 Vibration     5          0.678              1.715              1.550
 Vibration     6          0.694              1.669              1.402
 Vibration     7          0.723              1.588              1.194
 Vibration     8          0.752              1.508              1.029
 Vibration     9          0.792              1.403              0.856
 Vibration    10          0.823              1.325              0.749
 Vibration    11          0.955              1.038              0.454

 Optimization completed.
    -- Stationary point found.
 Normal termination of Gaussian 09 at Tue Jan 28 14:31:08 2020.
