 Gaussian 09, Revision D.01,
 Gaussian 09:  ES64L-G09RevD.01 24-Apr-2013

 -----------------------------
 # b3lyp 6-31G(2df,p) opt Freq
 -----------------------------

 -----
 titel
 -----
 Symbolic Z-matrix:
 Charge =  0 Multiplicity = 1

 SCF Done:  E(RB3LYP) =  -423.196853643     A.U. after   14 cycles
 Optimization completed.
    -- Stationary point found.
 Normal termination of Gaussian 09 at Mon Jan 27 13:38:20 2020.

 ----------------------------------------------------------------------
 #N Geom=AllCheck Guess=TCheck SCRF=Check GenChk RB3LYP/6-31G(2df,p) Fr
 eq
 ----------------------------------------------------------------------

 Structure from the checkpoint file:  "/scratch/puck/g09_6a858086-1294-491c-8051-e44ba02f22f6/Gau-102222.chk"
 -----
 titel
 -----
 Charge =  0 Multiplicity = 1

                         Standard orientation:
 ---------------------------------------------------------------------
 Center     Atomic      Atomic             Coordinates (Angstroms)
 Number     Number       Type             X           Y           Z
 ---------------------------------------------------------------------
      1          8           0       -3.380996    0.547232   -0.034010
      2          6           0       -2.410454   -0.077694    0.307122
      3          6           0       -1.325688   -0.567613   -0.635723
      4          6           0        0.055642   -0.202938   -0.142282
      5          6           0        0.520137    1.246650   -0.116166
      6          6           0        2.026781    1.155809    0.225647
      7          6           0        2.490660   -0.220957   -0.312111
      8          6           0        1.238240   -1.069795   -0.250817
      9          8           0        0.528322   -0.954931    0.994496
     10          1           0       -2.243254   -0.353164    1.372087
     11          1           0       -1.404003   -1.661720   -0.680625
     12          1           0       -1.517115   -0.160059   -1.632872
     13          1           0        0.357355    1.683949   -1.109160
     14          1           0       -0.037600    1.856913    0.601569
     15          1           0        2.601158    1.984417   -0.194300
     16          1           0        2.154003    1.182159    1.309553
     17          1           0        2.821609   -0.157595   -1.356295
     18          1           0        3.316833   -0.641930    0.268806
     19          1           0        1.200506   -2.052147   -0.716668
 ---------------------------------------------------------------------

 SCF Done:  E(RB3LYP) =  -423.196853643     A.U. after    1 cycles

 The electronic state is 1-A.
 Alpha  occ. eigenvalues --  -19.15313 -19.14126 -10.27316 -10.24839 -10.23894
 Alpha  occ. eigenvalues --  -10.20174 -10.19262 -10.19248 -10.18919  -1.07538
 Alpha  occ. eigenvalues --   -1.04781  -0.81479  -0.78160  -0.71723  -0.66521
 Alpha  occ. eigenvalues --   -0.59091  -0.57622  -0.56190  -0.51840  -0.47713
 Alpha  occ. eigenvalues --   -0.46605  -0.45256  -0.44479  -0.43052  -0.40572
 Alpha  occ. eigenvalues --   -0.38821  -0.37244  -0.36432  -0.35555  -0.34747
 Alpha  occ. eigenvalues --   -0.34544  -0.30007  -0.26790  -0.24885
 Alpha virt. eigenvalues --   -0.02455   0.08742   0.09844   0.10579   0.11146
 Alpha virt. eigenvalues --    0.12219   0.12895   0.14900   0.15161   0.16121
 Alpha virt. eigenvalues --    0.17741   0.18021   0.18467   0.20463   0.20995

 Mulliken charges:
               1
     1  O   -0.240270
     2  C    0.159777
     3  C   -0.374200
     4  C    0.400033
     5  C   -0.277914
     6  C   -0.214939
     7  C   -0.241511
     8  C   -0.008681
     9  O   -0.304057
    10  H    0.096055
    11  H    0.128734
    12  H    0.121921
    13  H    0.107895
    14  H    0.113834
    15  H    0.101706
    16  H    0.123025
    17  H    0.105181
    18  H    0.112693
    19  H    0.090719
 Sum of Mulliken charges =   0.00000

 Dipole moment (field-independent basis, Debye):
    X=              2.6526    Y=             -0.5697    Z=             -1.3139  Tot=              3.0145
 Quadrupole moment (field-independent basis, Debye-Ang):
   XX=            -61.7959   YY=            -51.9971   ZZ=            -53.4478
   XY=              4.1232   XZ=             -1.9326   YZ=              2.1196

  Exact polarizability:  91.090  -4.942  70.606  -0.262   0.337  64.574
 Approx polarizability: 119.723 -13.393 105.193   1.091  -4.059 104.781

                      1                      2                      3
                      A                      A                      A
 Frequencies --     52.3086                67.9602               147.3833
 Red. masses --      5.4806                 3.5605                 2.4497
 Frc consts  --      0.0088                 0.0097                 0.0314
 IR Inten    --      4.6682                 3.6366                 1.8223

                      4                      5                      6
                      A                      A                      A
 Frequencies --    215.2334               270.2984               303.5974
 Red. masses --      1.7791                 2.6627                 2.5503
 Frc consts  --      0.0486                 0.1146                 0.1385
 IR Inten    --      1.4525                 2.9485                 1.5063

                      7                      8                      9
                      A                      A                      A
 Frequencies --    389.7147               445.9110               477.4154
 Red. masses --      3.5014                 3.1444                 3.3714
 Frc consts  --      0.3133                 0.3684                 0.4527
 IR Inten    --      5.2733                 8.4495                12.0081

                     10                     11                     12
                      A                      A                      A
 Frequencies --    617.0868               657.4878               696.0740
 Red. masses --      2.5138                 2.4523                 2.8010
 Frc consts  --      0.5640                 0.6246                 0.7996
 IR Inten    --      2.7456                 3.9363                 7.2883

                     13                     14                     15
                      A                      A                      A
 Frequencies --    809.2181               819.6531               871.6460
 Red. masses --      2.0667                 2.3724                 2.6821
 Frc consts  --      0.7974                 0.9391                 1.2006
 IR Inten    --      4.5484                 1.0934                11.0737

                     16                     17                     18
                      A                      A                      A
 Frequencies --    890.0744               895.8547               943.1493
 Red. masses --      1.8180                 2.8223                 2.0279
 Frc consts  --      0.8486                 1.3345                 1.0628
 IR Inten    --      6.0151                 4.6679                 4.7621

                     19                     20                     21
                      A                      A                      A
 Frequencies --    949.8664              1016.1277              1026.1244
 Red. masses --      2.3883                 1.5548                 2.4595
 Frc consts  --      1.2696                 0.9459                 1.5258
 IR Inten    --     10.8182                 4.2012                 0.9189

                     22                     23                     24
                      A                      A                      A
 Frequencies --   1037.2019              1067.4504              1128.1983
 Red. masses --      1.6496                 2.1964                 2.2962
 Frc consts  --      1.0456                 1.4745                 1.7220
 IR Inten    --      3.0444                39.9303                 5.3629

                     25                     26                     27
                      A                      A                      A
 Frequencies --   1154.0699              1183.6083              1207.8859
 Red. masses --      1.4262                 1.5197                 1.4126
 Frc consts  --      1.1192                 1.2544                 1.2143
 IR Inten    --     11.1414                 5.6083                 1.4884

                     28                     29                     30
                      A                      A                      A
 Frequencies --   1250.7892              1260.2243              1279.6778
 Red. masses --      1.4268                 1.2789                 1.4180
 Frc consts  --      1.3151                 1.1967                 1.3682
 IR Inten    --      3.2595                 2.5245                 1.6755

                     31                     32                     33
                      A                      A                      A
 Frequencies --   1320.8783              1326.4262              1337.9286
 Red. masses --      1.3986                 1.7210                 1.6527
 Frc consts  --      1.4377                 1.7841                 1.7431
 IR Inten    --      5.2381                 3.6686                 9.5589

                     34                     35                     36
                      A                      A                      A
 Frequencies --   1355.4333              1422.7550              1442.2580
 Red. masses --      1.5218                 1.1978                 1.2243
 Frc consts  --      1.6473                 1.4285                 1.5004
 IR Inten    --      1.3017                 6.9756                 4.9998

                     37                     38                     39
                      A                      A                      A
 Frequencies --   1455.7794              1478.3557              1485.8065
 Red. masses --      2.0745                 1.0983                 1.2575
 Frc consts  --      2.5904                 1.4143                 1.6356
 IR Inten    --     14.8734                 1.3585                 0.4673

                     40                     41                     42
                      A                      A                      A
 Frequencies --   1499.6632              1834.1592              2891.8835
 Red. masses --      1.1108                 9.9973                 1.0834
 Frc consts  --      1.4718                19.8157                 5.3384
 IR Inten    --      2.6921               179.6456                73.9811

                     43                     44                     45
                      A                      A                      A
 Frequencies --   3029.7379              3034.4327              3036.1016
 Red. masses --      1.0614                 1.0623                 1.0638
 Frc consts  --      5.7405                 5.7630                 5.7775
 IR Inten    --      6.4724                36.9614                17.1444

                     46                     47                     48
                      A                      A                      A
 Frequencies --   3073.8725              3081.9141              3086.9502
 Red. masses --      1.0761                 1.0925                 1.0911
 Frc consts  --      5.9906                 6.1137                 6.1258
 IR Inten    --     12.2367                18.3828                29.6102

                     49                     50                     51
                      A                      A                      A
 Frequencies --   3100.5416              3123.9368              3139.2873
 Red. masses --      1.1000                 1.1059                 1.0911
 Frc consts  --      6.2302                 6.3586                 6.3352
 IR Inten    --      9.6116                25.8647                26.6704

 - Thermochemistry -
 -------------------
 Temperature   298.150 Kelvin.  Pressure   1.00000 Atm.
 Atom     1 has atomic number  8 and mass  15.99491

 Molecular mass:   126.06808 amu.
 Principal axes and moments of inertia in atomic units:
                           1         2         3
     Eigenvalues --   455.603621786.484531988.89801
           X            0.99983   0.01791  -0.00309
           Y           -0.01774   0.99866   0.04858
           Z            0.00396  -0.04852   0.99881
 This molecule is an asymmetric top.
 Rotational symmetry number  1.
 Warning -- assumption of classical behavior for rotation
           may cause significant error
 Rotational temperatures (Kelvin)      0.19011     0.04848     0.04355
 Rotational constants (GHZ):           3.96121     1.01022     0.90741
 Zero-point vibrational energy     416835.1 (Joules/Mol)
                                   99.62599 (Kcal/Mol)
 Warning -- explicit consideration of  10 degrees of freedom as
           vibrations may cause significant error
 Vibrational temperatures:     75.26    97.78   212.05   309.67   388.90
          (Kelvin)            436.81   560.71   641.57   686.89   887.85
                              945.98  1001.49  1164.28  1179.30  1254.10
                             1280.62  1288.93  1356.98  1366.64  1461.98
                             1476.36  1492.30  1535.82  1623.22  1660.45
                             1702.95  1737.88  1799.60  1813.18  1841.17
                             1900.45  1908.43  1924.98  1950.16  2047.02
                             2075.08  2094.54  2127.02  2137.74  2157.68
                             2638.94  4160.77  4359.11  4365.87  4368.27
                             4422.61  4434.18  4441.43  4460.98  4494.64
                             4516.73

 Zero-point correction=                           0.158764 (Hartree/Particle)
 Thermal correction to Energy=                    0.167236
 Thermal correction to Enthalpy=                  0.168181
 Thermal correction to Gibbs Free Energy=         0.124758
 Sum of electronic and zero-point Energies=           -423.038090
 Sum of electronic and thermal Energies=              -423.029617
 Sum of electronic and thermal Enthalpies=            -423.028673
 Sum of electronic and thermal Free Energies=         -423.072096

                     E (Thermal)             CV                S
                      KCal/Mol        Cal/Mol-Kelvin    Cal/Mol-Kelvin
 Total                  104.942             31.456             91.392
 Electronic               0.000              0.000              0.000
 Translational            0.889              2.981             40.409
 Rotational               0.889              2.981             28.872
 Vibrational            103.165             25.494             22.111
 Vibration     1          0.596              1.977              4.728
 Vibration     2          0.598              1.969              4.212
 Vibration     3          0.617              1.906              2.706
 Vibration     4          0.645              1.818              1.999
 Vibration     5          0.674              1.728              1.594
 Vibration     6          0.695              1.667              1.397
 Vibration     7          0.758              1.492              1.001
 Vibration     8          0.805              1.370              0.808
 Vibration     9          0.834              1.300              0.717
 Vibration    10          0.977              0.996              0.421

 Optimization completed.
    -- Stationary point found.
 Normal termination of Gaussian 09 at Mon Jan 27 14:19:24 2020.
