 Gaussian 09, Revision D.01,
 Gaussian 09:  ES64L-G09RevD.01 24-Apr-2013

 -----------------------------
 # b3lyp 6-31G(2df,p) opt Freq
 -----------------------------

 -----
 titel
 -----
 Symbolic Z-matrix:
 Charge =  0 Multiplicity = 1

 SCF Done:  E(RB3LYP) =  -423.222656285     A.U. after   14 cycles
 Optimization completed.
    -- Stationary point found.
 Normal termination of Gaussian 09 at Tue Jan 28 03:21:10 2020.

 ----------------------------------------------------------------------
 #N Geom=AllCheck Guess=TCheck SCRF=Check GenChk RB3LYP/6-31G(2df,p) Fr
 eq
 ----------------------------------------------------------------------

 Structure from the checkpoint file:  "/scratch/puck/g09_905d1ace-a234-454a-b644-a424b3430331/Gau-46461.chk"
 -----
 titel
 -----
 Charge =  0 Multiplicity = 1

                         Standard orientation:
 ---------------------------------------------------------------------
 Center     Atomic      Atomic             Coordinates (Angstroms)
 Number     Number       Type             X           Y           Z
 ---------------------------------------------------------------------
      1          6           0        2.131667    0.903074   -0.326314
      2          6           0        1.330112   -0.228416    0.315685
      3          6           0        0.792821   -1.323656   -0.661985
      4          6           0       -0.706232   -1.377661   -0.284851
      5          6           0       -1.446242   -0.161024   -0.871598
      6          6           0       -0.860837    0.952662    0.016011
      7          8           0       -1.026486    2.139255   -0.073916
      8          6           0        0.006033    0.184594    1.024556
      9          8           0       -0.697395   -1.058499    1.122505
     10          1           0        2.420607    1.653638    0.416582
     11          1           0        3.047873    0.514971   -0.781929
     12          1           0        1.561488    1.417106   -1.106527
     13          1           0        1.944488   -0.711028    1.081803
     14          1           0        0.943133   -1.056010   -1.712086
     15          1           0        1.276468   -2.287070   -0.488383
     16          1           0       -1.197439   -2.338721   -0.431819
     17          1           0       -1.274852    0.041591   -1.931573
     18          1           0       -2.524764   -0.238566   -0.701791
     19          1           0        0.110125    0.660600    1.997991
 ---------------------------------------------------------------------

 SCF Done:  E(RB3LYP) =  -423.222656285     A.U. after    1 cycles

 The electronic state is 1-A.
 Alpha  occ. eigenvalues --  -19.14895 -19.13594 -10.26987 -10.24341 -10.23600
 Alpha  occ. eigenvalues --  -10.20235 -10.19404 -10.19170 -10.18282  -1.06191
 Alpha  occ. eigenvalues --   -1.04010  -0.81131  -0.77366  -0.73376  -0.69024
 Alpha  occ. eigenvalues --   -0.59328  -0.58332  -0.55079  -0.50834  -0.47565
 Alpha  occ. eigenvalues --   -0.46377  -0.44110  -0.42546  -0.41607  -0.40895
 Alpha  occ. eigenvalues --   -0.40105  -0.38277  -0.36980  -0.35120  -0.34841
 Alpha  occ. eigenvalues --   -0.33422  -0.32115  -0.28241  -0.23197
 Alpha virt. eigenvalues --   -0.01928   0.07800   0.10204   0.10987   0.12822
 Alpha virt. eigenvalues --    0.13715   0.14727   0.15588   0.15946   0.16800
 Alpha virt. eigenvalues --    0.16857   0.18272   0.19057   0.19924   0.21692

 Mulliken charges:
               1
     1  C   -0.416912
     2  C    0.026029
     3  C   -0.250134
     4  C    0.073192
     5  C   -0.340831
     6  C    0.431490
     7  O   -0.325254
     8  C   -0.057139
     9  O   -0.264758
    10  H    0.125357
    11  H    0.119147
    12  H    0.129172
    13  H    0.090685
    14  H    0.103205
    15  H    0.110503
    16  H    0.086740
    17  H    0.126010
    18  H    0.137177
    19  H    0.096321
 Sum of Mulliken charges =   0.00000

 Dipole moment (field-independent basis, Debye):
    X=              1.2494    Y=             -2.0316    Z=             -1.0506  Tot=              2.6062
 Quadrupole moment (field-independent basis, Debye-Ang):
   XX=            -51.5626   YY=            -59.4495   ZZ=            -52.4925
   XY=              2.6263   XZ=              1.9608   YZ=              3.0849

  Exact polarizability:  75.659   0.724  77.701   3.211   2.803  66.632
 Approx polarizability: 102.744  -0.351 119.933   3.132   1.186 104.155

                      1                      2                      3
                      A                      A                      A
 Frequencies --     95.4546               133.2091               220.2994
 Red. masses --      2.9373                 4.3930                 1.0460
 Frc consts  --      0.0158                 0.0459                 0.0299
 IR Inten    --      3.0488                 2.5311                 0.0156

                      4                      5                      6
                      A                      A                      A
 Frequencies --    302.2892               370.0156               408.5486
 Red. masses --      2.5417                 1.8756                 2.8384
 Frc consts  --      0.1368                 0.1513                 0.2791
 IR Inten    --      0.5627                 0.5999                 1.6724

                      7                      8                      9
                      A                      A                      A
 Frequencies --    435.6969               512.3444               559.4945
 Red. masses --      4.4493                 5.5097                 3.8126
 Frc consts  --      0.4976                 0.8521                 0.7032
 IR Inten    --      3.6572                 8.1827                14.8461

                     10                     11                     12
                      A                      A                      A
 Frequencies --    605.2193               659.7990               779.2012
 Red. masses --      2.9564                 4.5652                 3.9406
 Frc consts  --      0.6380                 1.1709                 1.4097
 IR Inten    --      0.8477                 0.9185                10.8977

                     13                     14                     15
                      A                      A                      A
 Frequencies --    805.8234               822.2969               868.0837
 Red. masses --      2.8725                 2.8488                 2.9601
 Frc consts  --      1.0990                 1.1349                 1.3142
 IR Inten    --      6.7060                 6.7918                 0.5049

                     16                     17                     18
                      A                      A                      A
 Frequencies --    899.4967               919.0849               950.7556
 Red. masses --      1.8755                 2.5002                 2.8236
 Frc consts  --      0.8941                 1.2443                 1.5038
 IR Inten    --      6.6553                19.2742                 3.7400

                     19                     20                     21
                      A                      A                      A
 Frequencies --    965.4930               996.0311              1030.0392
 Red. masses --      1.4880                 1.7612                 4.7851
 Frc consts  --      0.8172                 1.0295                 2.9912
 IR Inten    --      1.5776                 3.0362                29.3566

                     22                     23                     24
                      A                      A                      A
 Frequencies --   1053.3352              1093.2322              1114.3399
 Red. masses --      2.2259                 1.2902                 2.4343
 Frc consts  --      1.4551                 0.9085                 1.7810
 IR Inten    --     24.1850                 7.8953                 3.7138

                     25                     26                     27
                      A                      A                      A
 Frequencies --   1136.9065              1149.1757              1197.5262
 Red. masses --      1.9551                 1.7048                 1.5030
 Frc consts  --      1.4889                 1.3265                 1.2700
 IR Inten    --      0.8808                23.5725                 2.3581

                     28                     29                     30
                      A                      A                      A
 Frequencies --   1226.3576              1250.2561              1254.8634
 Red. masses --      1.4289                 1.2866                 1.6816
 Frc consts  --      1.2661                 1.1849                 1.5602
 IR Inten    --      1.4326                 0.7913                 7.2045

                     31                     32                     33
                      A                      A                      A
 Frequencies --   1295.3917              1321.8832              1337.0995
 Red. masses --      1.6728                 1.3294                 1.4672
 Frc consts  --      1.6539                 1.3686                 1.5455
 IR Inten    --     15.7297                 2.9077                 6.1538

                     34                     35                     36
                      A                      A                      A
 Frequencies --   1341.9758              1364.2528              1418.7387
 Red. masses --      1.4736                 1.4994                 1.2301
 Frc consts  --      1.5636                 1.6442                 1.4588
 IR Inten    --      5.3041                 2.4575                 2.8142

                     37                     38                     39
                      A                      A                      A
 Frequencies --   1445.5601              1494.0237              1498.6083
 Red. masses --      1.0992                 1.0547                 1.0837
 Frc consts  --      1.3533                 1.3870                 1.4339
 IR Inten    --      8.2810                 3.8774                 0.4881

                     40                     41                     42
                      A                      A                      A
 Frequencies --   1499.7358              1861.6835              3036.6704
 Red. masses --      1.0457                12.5480                 1.0353
 Frc consts  --      1.3857                25.6234                 5.6249
 IR Inten    --      5.7576               208.7707                18.5902

                     43                     44                     45
                      A                      A                      A
 Frequencies --   3052.7126              3061.1767              3063.3943
 Red. masses --      1.0844                 1.0610                 1.0620
 Frc consts  --      5.9543                 5.8581                 5.8719
 IR Inten    --     10.7034                17.0516                 8.6565

                     46                     47                     48
                      A                      A                      A
 Frequencies --   3103.9957              3107.6132              3111.3736
 Red. masses --      1.1015                 1.1027                 1.1028
 Frc consts  --      6.2530                 6.2742                 6.2900
 IR Inten    --     17.7534                10.0208                30.2761

                     49                     50                     51
                      A                      A                      A
 Frequencies --   3116.9253              3127.9814              3144.2906
 Red. masses --      1.1022                 1.0909                 1.0906
 Frc consts  --      6.3092                 6.2890                 6.3527
 IR Inten    --     13.9955                37.8927                11.9721

 - Thermochemistry -
 -------------------
 Temperature   298.150 Kelvin.  Pressure   1.00000 Atm.
 Atom     1 has atomic number  6 and mass  12.00000

 Molecular mass:   126.06808 amu.
 Principal axes and moments of inertia in atomic units:
                           1         2         3
     Eigenvalues --   845.98030 892.360501271.96345
           X            0.86061   0.50906   0.01480
           Y           -0.50926   0.86005   0.03110
           Z            0.00311  -0.03430   0.99941
 This molecule is an asymmetric top.
 Rotational symmetry number  1.
 Warning -- assumption of classical behavior for rotation
           may cause significant error
 Rotational temperatures (Kelvin)      0.10238     0.09706     0.06809
 Rotational constants (GHZ):           2.13331     2.02244     1.41886
 Zero-point vibrational energy     422399.9 (Joules/Mol)
                                  100.95601 (Kcal/Mol)
 Warning -- explicit consideration of  10 degrees of freedom as
           vibrations may cause significant error
 Vibrational temperatures:    137.34   191.66   316.96   434.93   532.37
          (Kelvin)            587.81   626.87   737.15   804.99   870.77
                              949.30  1121.10  1159.40  1183.10  1248.98
                             1294.17  1322.36  1367.92  1389.13  1433.06
                             1481.99  1515.51  1572.92  1603.28  1635.75
                             1653.41  1722.97  1764.45  1798.84  1805.47
                             1863.78  1901.89  1923.79  1930.80  1962.85
                             2041.25  2079.84  2149.56  2156.16  2157.78
                             2678.54  4369.09  4392.17  4404.35  4407.54
                             4465.95  4471.16  4476.57  4484.55  4500.46
                             4523.93

 Zero-point correction=                           0.160884 (Hartree/Particle)
 Thermal correction to Energy=                    0.168497
 Thermal correction to Enthalpy=                  0.169441
 Thermal correction to Gibbs Free Energy=         0.128840
 Sum of electronic and zero-point Energies=           -423.061773
 Sum of electronic and thermal Energies=              -423.054160
 Sum of electronic and thermal Enthalpies=            -423.053216
 Sum of electronic and thermal Free Energies=         -423.093817

                     E (Thermal)             CV                S
                      KCal/Mol        Cal/Mol-Kelvin    Cal/Mol-Kelvin
 Total                  105.733             30.214             85.452
 Electronic               0.000              0.000              0.000
 Translational            0.889              2.981             40.409
 Rotational               0.889              2.981             28.353
 Vibrational            103.956             24.253             16.690
 Vibration     1          0.603              1.952              3.545
 Vibration     2          0.613              1.920              2.899
 Vibration     3          0.647              1.810              1.957
 Vibration     4          0.694              1.669              1.404
 Vibration     5          0.742              1.534              1.080
 Vibration     6          0.773              1.452              0.932
 Vibration     7          0.796              1.392              0.840
 Vibration     8          0.867              1.223              0.628
 Vibration     9          0.915              1.119              0.525
 Vibration    10          0.964              1.021              0.441

 Optimization completed.
    -- Stationary point found.
 Normal termination of Gaussian 09 at Tue Jan 28 05:18:42 2020.
