 Gaussian 09, Revision D.01,
 Gaussian 09:  ES64L-G09RevD.01 24-Apr-2013

 -----------------------------
 # b3lyp 6-31G(2df,p) opt Freq
 -----------------------------

 -----
 titel
 -----
 Symbolic Z-matrix:
 Charge =  0 Multiplicity = 1

 SCF Done:  E(RB3LYP) =  -423.097329978     A.U. after   14 cycles
 Optimization completed.
    -- Stationary point found.
 Normal termination of Gaussian 09 at Mon Jan 27 23:07:49 2020.

 ----------------------------------------------------------------------
 #N Geom=AllCheck Guess=TCheck SCRF=Check GenChk RB3LYP/6-31G(2df,p) Fr
 eq
 ----------------------------------------------------------------------

 Structure from the checkpoint file:  "/scratch/puck/g09_57fe63d0-2357-44a6-ba33-5053b36f3228/Gau-56578.chk"
 -----
 titel
 -----
 Charge =  0 Multiplicity = 1

                         Standard orientation:
 ---------------------------------------------------------------------
 Center     Atomic      Atomic             Coordinates (Angstroms)
 Number     Number       Type             X           Y           Z
 ---------------------------------------------------------------------
      1          6           0       -2.159493   -1.118595   -0.357984
      2          6           0       -0.943492   -0.237231   -0.603387
      3          6           0       -0.954445    1.159506    0.041191
      4          6           0        0.397600    1.739039   -0.528937
      5          6           0        1.261006    0.567295    0.003727
      6          8           0        1.895979   -0.606534   -0.627327
      7          6           0        1.227421   -1.454418    0.372133
      8          6           0        0.167586   -0.344633    0.463999
      9          8           0       -0.628688    0.508273    1.347584
     10          1           0       -2.993852   -0.813161   -0.998171
     11          1           0       -1.936058   -2.165503   -0.590608
     12          1           0       -2.482064   -1.057173    0.683766
     13          1           0       -0.611867   -0.287072   -1.644140
     14          1           0       -1.830347    1.804538    0.104977
     15          1           0        0.341977    1.853698   -1.613406
     16          1           0        0.699284    2.689888   -0.086417
     17          1           0        1.914929    0.901962    0.816436
     18          1           0        0.929989   -2.421209   -0.042527
     19          1           0        1.852582   -1.585672    1.263590
 ---------------------------------------------------------------------

 SCF Done:  E(RB3LYP) =  -423.097329978     A.U. after    1 cycles

 The electronic state is 1-A.
 Alpha  occ. eigenvalues --  -19.14576 -19.14301 -10.24567 -10.24464 -10.23821
 Alpha  occ. eigenvalues --  -10.22672 -10.19573 -10.19407 -10.17805  -1.05956
 Alpha  occ. eigenvalues --   -1.02336  -0.80111  -0.75575  -0.71914  -0.66970
 Alpha  occ. eigenvalues --   -0.64837  -0.57516  -0.52415  -0.50899  -0.48646
 Alpha  occ. eigenvalues --   -0.47206  -0.45405  -0.43077  -0.41972  -0.39851
 Alpha  occ. eigenvalues --   -0.38504  -0.36915  -0.35550  -0.33938  -0.33826
 Alpha  occ. eigenvalues --   -0.30680  -0.29070  -0.25847  -0.24709
 Alpha virt. eigenvalues --    0.05237   0.09459   0.10123   0.10797   0.10895
 Alpha virt. eigenvalues --    0.12299   0.13579   0.14480   0.15488   0.15796
 Alpha virt. eigenvalues --    0.16599   0.17571   0.18373   0.19935   0.21778

 Mulliken charges:
               1
     1  C   -0.436266
     2  C    0.013155
     3  C    0.043975
     4  C   -0.319488
     5  C    0.133373
     6  O   -0.312295
     7  C   -0.210976
     8  C    0.373254
     9  O   -0.376203
    10  H    0.115569
    11  H    0.115741
    12  H    0.137283
    13  H    0.081203
    14  H    0.086065
    15  H    0.123323
    16  H    0.112192
    17  H    0.086577
    18  H    0.117255
    19  H    0.116262
 Sum of Mulliken charges =   0.00000

 Dipole moment (field-independent basis, Debye):
    X=             -0.8989    Y=              0.1500    Z=             -0.6070  Tot=              1.0949
 Quadrupole moment (field-independent basis, Debye-Ang):
   XX=            -55.4610   YY=            -48.9394   ZZ=            -56.2522
   XY=              0.2286   XZ=              4.7080   YZ=             -2.3862

  Exact polarizability:  78.664  -1.401  82.459   3.693  -1.287  63.161
 Approx polarizability: 109.094  -5.864 117.344  -0.608   0.198 105.353

                      1                      2                      3
                      A                      A                      A
 Frequencies --    180.0517               218.9805               232.7064
 Red. masses --      3.2811                 1.3068                 1.8281
 Frc consts  --      0.0627                 0.0369                 0.0583
 IR Inten    --      1.3893                 0.1294                 0.2964

                      4                      5                      6
                      A                      A                      A
 Frequencies --    293.4558               333.4688               406.7063
 Red. masses --      2.7964                 2.6041                 2.5485
 Frc consts  --      0.1419                 0.1706                 0.2484
 IR Inten    --      7.7010                 6.9461                 4.8699

                      7                      8                      9
                      A                      A                      A
 Frequencies --    425.5877               559.4038               587.6731
 Red. masses --      3.0824                 5.1212                 4.6914
 Frc consts  --      0.3289                 0.9442                 0.9546
 IR Inten    --      5.1478                 4.5282                 4.3476

                     10                     11                     12
                      A                      A                      A
 Frequencies --    665.9548               732.2860               763.1103
 Red. masses --      3.4843                 4.5337                 2.9531
 Frc consts  --      0.9105                 1.4324                 1.0132
 IR Inten    --      3.9538                 4.6801                 9.0825

                     13                     14                     15
                      A                      A                      A
 Frequencies --    793.8006               834.9546               853.2308
 Red. masses --      2.5815                 2.7930                 2.7403
 Frc consts  --      0.9584                 1.1472                 1.1754
 IR Inten    --     23.6456                19.2135                 1.5760

                     16                     17                     18
                      A                      A                      A
 Frequencies --    896.3338               911.8282               949.6824
 Red. masses --      3.6940                 2.8818                 2.5434
 Frc consts  --      1.7486                 1.4117                 1.3515
 IR Inten    --     34.7855                33.7200                 1.1136

                     19                     20                     21
                      A                      A                      A
 Frequencies --    996.7888              1010.0191              1050.9405
 Red. masses --      1.6692                 2.3017                 1.7185
 Frc consts  --      0.9772                 1.3835                 1.1183
 IR Inten    --      9.5140                24.0779                 2.8883

                     22                     23                     24
                      A                      A                      A
 Frequencies --   1072.2314              1083.6141              1105.6505
 Red. masses --      2.1858                 1.6796                 1.6272
 Frc consts  --      1.4806                 1.1620                 1.1720
 IR Inten    --      2.9748                 4.3984                 3.4508

                     25                     26                     27
                      A                      A                      A
 Frequencies --   1128.1796              1151.7057              1169.9801
 Red. masses --      1.6347                 1.6806                 1.7862
 Frc consts  --      1.2259                 1.3134                 1.4406
 IR Inten    --      1.6232                 5.3369                23.6996

                     28                     29                     30
                      A                      A                      A
 Frequencies --   1192.0089              1222.3284              1246.3477
 Red. masses --      1.6716                 1.8729                 1.8726
 Frc consts  --      1.3994                 1.6487                 1.7139
 IR Inten    --      4.4551                 2.8727                14.1405

                     31                     32                     33
                      A                      A                      A
 Frequencies --   1266.7504              1279.6398              1306.5696
 Red. masses --      1.5917                 1.4266                 2.1757
 Frc consts  --      1.5048                 1.3764                 2.1883
 IR Inten    --      2.5405                 1.7529                 4.5535

                     34                     35                     36
                      A                      A                      A
 Frequencies --   1313.2146              1396.5885              1401.3609
 Red. masses --      1.6842                 1.2048                 1.3538
 Frc consts  --      1.7112                 1.3846                 1.5664
 IR Inten    --      1.1261                 8.6808                 1.7967

                     37                     38                     39
                      A                      A                      A
 Frequencies --   1408.8311              1480.5201              1496.8194
 Red. masses --      1.5213                 1.0942                 1.0632
 Frc consts  --      1.7791                 1.4131                 1.4035
 IR Inten    --      1.8133                 2.7247                 4.3823

                     40                     41                     42
                      A                      A                      A
 Frequencies --   1504.8346              1506.7532              3028.9017
 Red. masses --      1.0653                 1.0884                 1.0595
 Frc consts  --      1.4213                 1.4559                 5.7271
 IR Inten    --      2.2291                 2.0886                42.3275

                     43                     44                     45
                      A                      A                      A
 Frequencies --   3035.5913              3041.0924              3071.4771
 Red. masses --      1.0378                 1.0829                 1.0823
 Frc consts  --      5.6344                 5.9005                 6.0159
 IR Inten    --     34.3678                42.8405                14.9108

                     46                     47                     48
                      A                      A                      A
 Frequencies --   3081.7230              3092.9225              3103.2589
 Red. masses --      1.0618                 1.1008                 1.1083
 Frc consts  --      5.9414                 6.2041                 6.2884
 IR Inten    --     23.5102                21.2628                28.7615

                     49                     50                     51
                      A                      A                      A
 Frequencies --   3130.3375              3130.6298              3134.7941
 Red. masses --      1.0999                 1.0931                 1.1053
 Frc consts  --      6.3504                 6.3123                 6.3997
 IR Inten    --     10.5268                33.4801                27.5129

 - Thermochemistry -
 -------------------
 Temperature   298.150 Kelvin.  Pressure   1.00000 Atm.
 Atom     1 has atomic number  6 and mass  12.00000

 Molecular mass:   126.06808 amu.
 Principal axes and moments of inertia in atomic units:
                           1         2         3
     Eigenvalues --   701.20930 966.681791253.76876
           X            0.99656   0.07190   0.04131
           Y           -0.07086   0.99715  -0.02603
           Z           -0.04306   0.02301   0.99881
 This molecule is an asymmetric top.
 Rotational symmetry number  1.
 Warning -- assumption of classical behavior for rotation
           may cause significant error
 Rotational temperatures (Kelvin)      0.12352     0.08960     0.06908
 Rotational constants (GHZ):           2.57376     1.86694     1.43945
 Zero-point vibrational energy     420377.4 (Joules/Mol)
                                  100.47262 (Kcal/Mol)
 Warning -- explicit consideration of   9 degrees of freedom as
           vibrations may cause significant error
 Vibrational temperatures:    259.05   315.06   334.81   422.22   479.79
          (Kelvin)            585.16   612.32   804.86   845.53   958.16
                             1053.59  1097.94  1142.10  1201.31  1227.61
                             1289.62  1311.92  1366.38  1434.15  1453.19
                             1512.07  1542.70  1559.08  1590.78  1623.20
                             1657.05  1683.34  1715.03  1758.66  1793.21
                             1822.57  1841.11  1879.86  1889.42  2009.38
                             2016.24  2026.99  2130.14  2153.59  2165.12
                             2167.88  4357.91  4367.53  4375.45  4419.16
                             4433.91  4450.02  4464.89  4503.85  4504.27
                             4510.26

 Zero-point correction=                           0.160113 (Hartree/Particle)
 Thermal correction to Energy=                    0.167389
 Thermal correction to Enthalpy=                  0.168333
 Thermal correction to Gibbs Free Energy=         0.128874
 Sum of electronic and zero-point Energies=           -422.937217
 Sum of electronic and thermal Energies=              -422.929941
 Sum of electronic and thermal Enthalpies=            -422.928997
 Sum of electronic and thermal Free Energies=         -422.968456

                     E (Thermal)             CV                S
                      KCal/Mol        Cal/Mol-Kelvin    Cal/Mol-Kelvin
 Total                  105.038             29.872             83.048
 Electronic               0.000              0.000              0.000
 Translational            0.889              2.981             40.409
 Rotational               0.889              2.981             28.232
 Vibrational            103.260             23.911             14.408
 Vibration     1          0.629              1.867              2.328
 Vibration     2          0.647              1.812              1.968
 Vibration     3          0.653              1.791              1.858
 Vibration     4          0.688              1.686              1.454
 Vibration     5          0.715              1.609              1.243
 Vibration     6          0.771              1.456              0.938
 Vibration     7          0.787              1.415              0.873
 Vibration     8          0.915              1.119              0.525
 Vibration     9          0.945              1.058              0.471

 Normal termination of Gaussian 09 at Mon Jan 27 23:57:34 2020.
