 Gaussian 09, Revision D.01,
 Gaussian 09:  ES64L-G09RevD.01 24-Apr-2013

 -----------------------------
 # b3lyp 6-31G(2df,p) opt Freq
 -----------------------------

 -----
 titel
 -----
 Symbolic Z-matrix:
 Charge =  0 Multiplicity = 1

 SCF Done:  E(RB3LYP) =  -423.116147597     A.U. after   12 cycles
 Optimization completed.
    -- Stationary point found.
 Normal termination of Gaussian 09 at Tue Jan 28 09:55:39 2020.

 ----------------------------------------------------------------------
 #N Geom=AllCheck Guess=TCheck SCRF=Check GenChk RB3LYP/6-31G(2df,p) Fr
 eq
 ----------------------------------------------------------------------

 Structure from the checkpoint file:  "/scratch/puck/g09_200dd3cf-9f80-4a24-845e-3ae9c128b352/Gau-21448.chk"
 -----
 titel
 -----
 Charge =  0 Multiplicity = 1

                         Standard orientation:
 ---------------------------------------------------------------------
 Center     Atomic      Atomic             Coordinates (Angstroms)
 Number     Number       Type             X           Y           Z
 ---------------------------------------------------------------------
      1          6           0       -2.498419   -0.457886   -0.190188
      2          8           0       -1.429794   -0.464164    0.745173
      3          6           0       -0.185692   -0.354772    0.165638
      4          6           0        0.507827   -1.502906   -0.623944
      5          6           0        1.811166   -0.871682   -0.124223
      6          6           0        1.637391    0.652286   -0.125668
      7          6           0        1.128619   -0.184200    1.031544
      8          6           0        0.220847    0.941732   -0.619664
      9          8           0       -0.364342    2.117784   -0.112092
     10          1           0       -2.418572   -1.293379   -0.899820
     11          1           0       -3.420612   -0.570212    0.383602
     12          1           0       -2.532203    0.486716   -0.746299
     13          1           0        0.331867   -2.472904   -0.150585
     14          1           0        0.328421   -1.570749   -1.703184
     15          1           0        2.800171   -1.310930   -0.130493
     16          1           0        2.489342    1.320056   -0.142741
     17          1           0        1.326760   -0.184997    2.092754
     18          1           0        0.042378    0.961262   -1.700050
     19          1           0       -0.324897    2.070743    0.851192
 ---------------------------------------------------------------------

 SCF Done:  E(RB3LYP) =  -423.116147597     A.U. after    1 cycles

 The electronic state is 1-A.
 Alpha  occ. eigenvalues --  -19.14890 -19.13438 -10.24051 -10.22797 -10.22458
 Alpha  occ. eigenvalues --  -10.19844 -10.19190 -10.19131 -10.18375  -1.04766
 Alpha  occ. eigenvalues --   -1.01563  -0.92316  -0.72141  -0.70566  -0.68323
 Alpha  occ. eigenvalues --   -0.61747  -0.56116  -0.54044  -0.52661  -0.48447
 Alpha  occ. eigenvalues --   -0.46876  -0.45109  -0.43931  -0.42836  -0.40840
 Alpha  occ. eigenvalues --   -0.39557  -0.36188  -0.35335  -0.33408  -0.30815
 Alpha  occ. eigenvalues --   -0.28449  -0.28001  -0.25739  -0.22891
 Alpha virt. eigenvalues --    0.07622   0.09495   0.11030   0.12088   0.13367
 Alpha virt. eigenvalues --    0.14268   0.15073   0.15293   0.15677   0.15837
 Alpha virt. eigenvalues --    0.17384   0.17546   0.19083   0.19881   0.21869

 Mulliken charges:
               1
     1  C   -0.273110
     2  O   -0.294530
     3  C    0.380217
     4  C   -0.307384
     5  C   -0.065827
     6  C   -0.101388
     7  C   -0.185899
     8  C    0.085351
     9  O   -0.446799
    10  H    0.112162
    11  H    0.128681
    12  H    0.133602
    13  H    0.105233
    14  H    0.089018
    15  H    0.092548
    16  H    0.091890
    17  H    0.097210
    18  H    0.076991
    19  H    0.282035
 Sum of Mulliken charges =   0.00000

 Dipole moment (field-independent basis, Debye):
    X=              0.5119    Y=             -1.0050    Z=              0.0023  Tot=              1.1279
 Quadrupole moment (field-independent basis, Debye-Ang):
   XX=            -49.0526   YY=            -56.4560   ZZ=            -52.0340
   XY=              1.0939   XZ=              2.0097   YZ=              3.0282

  Exact polarizability:  82.985  -0.328  73.345   1.589   1.934  66.548
 Approx polarizability: 110.506  -1.472 107.800  -0.801   1.354 108.290

                      1                      2                      3
                      A                      A                      A
 Frequencies --     92.1465               170.5437               183.7167
 Red. masses --      2.8198                 1.3393                 3.2558
 Frc consts  --      0.0141                 0.0230                 0.0647
 IR Inten    --      5.6453                10.5016                 3.4740

                      4                      5                      6
                      A                      A                      A
 Frequencies --    209.4468               243.8106               320.2837
 Red. masses --      1.3999                 2.5039                 2.1290
 Frc consts  --      0.0362                 0.0877                 0.1287
 IR Inten    --     17.3099                21.0088                44.4203

                      7                      8                      9
                      A                      A                      A
 Frequencies --    388.2227               434.0335               447.6697
 Red. masses --      2.7993                 2.8251                 3.6720
 Frc consts  --      0.2486                 0.3136                 0.4336
 IR Inten    --      0.4622                 3.0884                 5.3600

                     10                     11                     12
                      A                      A                      A
 Frequencies --    530.7202               665.2025               720.6162
 Red. masses --      4.5622                 4.2560                 3.3276
 Frc consts  --      0.7571                 1.1096                 1.0181
 IR Inten    --      2.7731                12.0543                 1.7306

                     13                     14                     15
                      A                      A                      A
 Frequencies --    774.3195               811.8451               829.1806
 Red. masses --      1.4596                 1.8953                 2.3819
 Frc consts  --      0.5156                 0.7360                 0.9649
 IR Inten    --      5.8323                14.2905                10.0589

                     16                     17                     18
                      A                      A                      A
 Frequencies --    890.4157               914.3438               943.5251
 Red. masses --      2.3334                 1.6758                 2.0259
 Frc consts  --      1.0900                 0.8254                 1.0626
 IR Inten    --     19.2239                 1.5032                10.2602

                     19                     20                     21
                      A                      A                      A
 Frequencies --    995.4476               999.5587              1015.2214
 Red. masses --      1.8501                 2.1397                 2.3575
 Frc consts  --      1.0801                 1.2595                 1.4316
 IR Inten    --      2.4587                 4.4483                27.6683

                     22                     23                     24
                      A                      A                      A
 Frequencies --   1029.5110              1040.3277              1066.0418
 Red. masses --      1.7203                 1.6966                 5.0452
 Frc consts  --      1.0743                 1.0818                 3.3781
 IR Inten    --      1.8484                 4.5861                43.2689

                     25                     26                     27
                      A                      A                      A
 Frequencies --   1113.0013              1123.6494              1154.1402
 Red. masses --      2.3609                 2.8425                 1.6290
 Frc consts  --      1.7231                 2.1145                 1.2785
 IR Inten    --      7.3827                81.8600                 5.3505

                     28                     29                     30
                      A                      A                      A
 Frequencies --   1173.9087              1179.8528              1206.0663
 Red. masses --      1.6870                 1.2950                 1.5369
 Frc consts  --      1.3697                 1.0621                 1.3171
 IR Inten    --     10.9414                 1.0699                16.6287

                     31                     32                     33
                      A                      A                      A
 Frequencies --   1239.8282              1254.9083              1276.1505
 Red. masses --      1.6556                 1.7934                 1.4216
 Frc consts  --      1.4994                 1.6640                 1.3640
 IR Inten    --      1.0390                16.8637                15.7537

                     34                     35                     36
                      A                      A                      A
 Frequencies --   1295.6233              1338.1933              1353.7163
 Red. masses --      1.7933                 3.6377                 2.8502
 Frc consts  --      1.7737                 3.8381                 3.0774
 IR Inten    --      9.1395               163.1048                24.3545

                     37                     38                     39
                      A                      A                      A
 Frequencies --   1437.0907              1483.1352              1491.2045
 Red. masses --      1.2968                 1.1891                 1.0465
 Frc consts  --      1.5779                 1.5411                 1.3711
 IR Inten    --     90.4020                 1.6749                 4.3243

                     40                     41                     42
                      A                      A                      A
 Frequencies --   1501.8898              1506.8762              3000.4439
 Red. masses --      1.1639                 1.0486                 1.0379
 Frc consts  --      1.5469                 1.4029                 5.5051
 IR Inten    --     12.0118                 6.7837                38.4796

                     43                     44                     45
                      A                      A                      A
 Frequencies --   3030.6770              3055.9292              3067.3176
 Red. masses --      1.0602                 1.0848                 1.0992
 Frc consts  --      5.7376                 5.9689                 6.0932
 IR Inten    --     38.8778                56.1083                34.1991

                     46                     47                     48
                      A                      A                      A
 Frequencies --   3098.6244              3126.0386              3193.6342
 Red. masses --      1.1046                 1.1002                 1.0919
 Frc consts  --      6.2485                 6.3345                 6.5617
 IR Inten    --     24.4738                25.9880                 7.4544

                     49                     50                     51
                      A                      A                      A
 Frequencies --   3201.2816              3232.7442              3781.0293
 Red. masses --      1.0920                 1.0999                 1.0650
 Frc consts  --      6.5935                 6.7723                 8.9709
 IR Inten    --     21.4059                 5.5488                12.1211

 - Thermochemistry -
 -------------------
 Temperature   298.150 Kelvin.  Pressure   1.00000 Atm.
 Atom     1 has atomic number  6 and mass  12.00000

 Molecular mass:   126.06808 amu.
 Principal axes and moments of inertia in atomic units:
                           1         2         3
     Eigenvalues --   699.652871020.377401401.37064
           X            0.99972   0.01272   0.01974
           Y           -0.01334   0.99941   0.03180
           Z           -0.01932  -0.03205   0.99930
 This molecule is an asymmetric top.
 Rotational symmetry number  1.
 Warning -- assumption of classical behavior for rotation
           may cause significant error
 Rotational temperatures (Kelvin)      0.12380     0.08488     0.06181
 Rotational constants (GHZ):           2.57948     1.76870     1.28784
 Zero-point vibrational energy     416498.5 (Joules/Mol)
                                   99.54552 (Kcal/Mol)
 Warning -- explicit consideration of  10 degrees of freedom as
           vibrations may cause significant error
 Vibrational temperatures:    132.58   245.37   264.33   301.35   350.79
          (Kelvin)            460.82   558.57   624.48   644.10   763.59
                              957.08  1036.80  1114.07  1168.06  1193.00
                             1281.11  1315.54  1357.52  1432.23  1438.14
                             1460.68  1481.23  1496.80  1533.79  1601.36
                             1616.68  1660.55  1688.99  1697.54  1735.26
                             1783.83  1805.53  1836.09  1864.11  1925.36
                             1947.69  2067.65  2133.90  2145.51  2160.88
                             2168.06  4316.96  4360.46  4396.79  4413.18
                             4458.22  4497.67  4594.92  4605.92  4651.19
                             5440.05

 Zero-point correction=                           0.158636 (Hartree/Particle)
 Thermal correction to Energy=                    0.166951
 Thermal correction to Enthalpy=                  0.167896
 Thermal correction to Gibbs Free Energy=         0.125993
 Sum of electronic and zero-point Energies=           -422.957512
 Sum of electronic and thermal Energies=              -422.949196
 Sum of electronic and thermal Enthalpies=            -422.948252
 Sum of electronic and thermal Free Energies=         -422.990154

                     E (Thermal)             CV                S
                      KCal/Mol        Cal/Mol-Kelvin    Cal/Mol-Kelvin
 Total                  104.764             32.220             88.191
 Electronic               0.000              0.000              0.000
 Translational            0.889              2.981             40.409
 Rotational               0.889              2.981             28.394
 Vibrational            102.986             26.259             19.388
 Vibration     1          0.602              1.955              3.614
 Vibration     2          0.626              1.879              2.429
 Vibration     3          0.631              1.862              2.290
 Vibration     4          0.642              1.826              2.048
 Vibration     5          0.659              1.773              1.775
 Vibration     6          0.706              1.635              1.309
 Vibration     7          0.756              1.495              1.007
 Vibration     8          0.795              1.396              0.846
 Vibration     9          0.807              1.366              0.803
 Vibration    10          0.886              1.182              0.586

 Optimization completed.
    -- Stationary point found.
 Normal termination of Gaussian 09 at Tue Jan 28 10:41:25 2020.
