 Gaussian 09, Revision D.01,
 Gaussian 09:  ES64L-G09RevD.01 24-Apr-2013

 -----------------------------
 # b3lyp 6-31G(2df,p) opt Freq
 -----------------------------

 -----
 titel
 -----
 Symbolic Z-matrix:
 Charge =  0 Multiplicity = 1

 SCF Done:  E(RB3LYP) =  -423.166350247     A.U. after   14 cycles
 Optimization completed.
    -- Stationary point found.
 Normal termination of Gaussian 09 at Mon Jan 27 17:21:07 2020.

 ----------------------------------------------------------------------
 #N Geom=AllCheck Guess=TCheck SCRF=Check GenChk RB3LYP/6-31G(2df,p) Fr
 eq
 ----------------------------------------------------------------------

 Structure from the checkpoint file:  "/scratch/puck/g09_4719756c-7102-4c6e-abf9-afa81023104d/Gau-169039.chk"
 -----
 titel
 -----
 Charge =  0 Multiplicity = 1

                         Standard orientation:
 ---------------------------------------------------------------------
 Center     Atomic      Atomic             Coordinates (Angstroms)
 Number     Number       Type             X           Y           Z
 ---------------------------------------------------------------------
      1          6           0       -2.233713   -1.475428   -0.322895
      2          6           0       -1.474153   -0.241538    0.038806
      3          6           0       -1.911642    1.228693   -0.094582
      4          6           0       -0.399548    1.627144   -0.209123
      5          6           0       -0.046737    0.136575   -0.067095
      6          6           0        1.169491   -0.591569   -0.560141
      7          6           0        2.392771   -0.292203    0.292100
      8          8           0        3.458627    0.053861   -0.146081
      9          8           0       -0.609373   -0.291443    1.189322
     10          1           0       -2.653828   -1.391790   -1.330265
     11          1           0       -1.587030   -2.356263   -0.282931
     12          1           0       -3.063155   -1.635248    0.375376
     13          1           0       -2.470719    1.432717   -1.011113
     14          1           0       -2.460609    1.622058    0.764112
     15          1           0       -0.145773    2.039325   -1.188796
     16          1           0        0.001833    2.274914    0.573746
     17          1           0        0.982077   -1.671830   -0.492572
     18          1           0        1.396339   -0.337961   -1.599714
     19          1           0        2.228010   -0.425316    1.383810
 ---------------------------------------------------------------------

 SCF Done:  E(RB3LYP) =  -423.166350247     A.U. after    1 cycles

 The electronic state is 1-A.
 Alpha  occ. eigenvalues --  -19.15046 -19.14183 -10.27393 -10.24724 -10.24530
 Alpha  occ. eigenvalues --  -10.20396 -10.19354 -10.19329 -10.19284  -1.07802
 Alpha  occ. eigenvalues --   -1.04853  -0.80735  -0.77848  -0.74659  -0.64579
 Alpha  occ. eigenvalues --   -0.61800  -0.57747  -0.53420  -0.50101  -0.47732
 Alpha  occ. eigenvalues --   -0.46275  -0.45458  -0.44397  -0.43017  -0.41540
 Alpha  occ. eigenvalues --   -0.40164  -0.38183  -0.37965  -0.35507  -0.34506
 Alpha  occ. eigenvalues --   -0.32660  -0.29898  -0.26193  -0.24311
 Alpha virt. eigenvalues --   -0.02526   0.08825   0.08947   0.10036   0.11838
 Alpha virt. eigenvalues --    0.12080   0.12535   0.13964   0.14696   0.15747
 Alpha virt. eigenvalues --    0.17188   0.18240   0.19131   0.19713   0.21090

 Mulliken charges:
               1
     1  C   -0.499242
     2  C    0.341849
     3  C   -0.278486
     4  C   -0.284860
     5  C    0.331616
     6  C   -0.393282
     7  C    0.160372
     8  O   -0.236796
     9  O   -0.326974
    10  H    0.126443
    11  H    0.131224
    12  H    0.135860
    13  H    0.105848
    14  H    0.111134
    15  H    0.110025
    16  H    0.113065
    17  H    0.129813
    18  H    0.124172
    19  H    0.098221
 Sum of Mulliken charges =   0.00000

 Dipole moment (field-independent basis, Debye):
    X=             -2.8870    Y=             -0.5122    Z=             -1.2527  Tot=              3.1885
 Quadrupole moment (field-independent basis, Debye-Ang):
   XX=            -62.4555   YY=            -50.6573   ZZ=            -54.1269
   XY=             -1.3716   XZ=              2.7823   YZ=              0.5974

  Exact polarizability:  94.225   3.554  72.099  -0.639  -0.953  65.012
 Approx polarizability: 128.710   7.526 100.860  -4.152  -5.024 105.390

                      1                      2                      3
                      A                      A                      A
 Frequencies --     50.6937                67.2864               137.5289
 Red. masses --      4.9110                 3.5156                 2.8008
 Frc consts  --      0.0074                 0.0094                 0.0312
 IR Inten    --      3.6812                 3.8892                 2.5381

                      4                      5                      6
                      A                      A                      A
 Frequencies --    183.3214               202.7534               244.2655
 Red. masses --      1.0462                 2.0905                 2.3811
 Frc consts  --      0.0207                 0.0506                 0.0837
 IR Inten    --      0.2057                 0.4832                 1.0701

                      7                      8                      9
                      A                      A                      A
 Frequencies --    323.5807               337.7008               444.7703
 Red. masses --      2.4718                 2.3985                 4.2313
 Frc consts  --      0.1525                 0.1612                 0.4932
 IR Inten    --      5.0576                 2.2564                 7.8645

                     10                     11                     12
                      A                      A                      A
 Frequencies --    498.0409               507.3610               605.9216
 Red. masses --      2.8064                 3.4177                 3.0544
 Frc consts  --      0.4101                 0.5183                 0.6607
 IR Inten    --     10.6442                 7.0247                 8.1675

                     13                     14                     15
                      A                      A                      A
 Frequencies --    711.0849               721.1466               775.8648
 Red. masses --      2.5308                 5.6423                 1.3702
 Frc consts  --      0.7540                 1.7288                 0.4860
 IR Inten    --      0.2011                 5.0367                 1.5868

                     16                     17                     18
                      A                      A                      A
 Frequencies --    831.6820               878.5784               899.7546
 Red. masses --      2.2048                 2.4783                 2.3851
 Frc consts  --      0.8986                 1.1271                 1.1376
 IR Inten    --      1.7101                 7.9348                 8.0015

                     19                     20                     21
                      A                      A                      A
 Frequencies --    936.5651               969.7603               998.1041
 Red. masses --      2.6727                 1.8532                 1.6578
 Frc consts  --      1.3813                 1.0269                 0.9731
 IR Inten    --      0.3397                 2.3279                 1.3813

                     22                     23                     24
                      A                      A                      A
 Frequencies --   1049.7566              1087.0308              1101.3662
 Red. masses --      1.9613                 2.0747                 2.4680
 Frc consts  --      1.2734                 1.4444                 1.7639
 IR Inten    --     30.5307                26.2959                 6.2270

                     25                     26                     27
                      A                      A                      A
 Frequencies --   1159.1951              1183.6642              1205.1714
 Red. masses --      1.6679                 1.8057                 1.6963
 Frc consts  --      1.3205                 1.4906                 1.4516
 IR Inten    --     14.3209                17.9087                13.1943

                     28                     29                     30
                      A                      A                      A
 Frequencies --   1217.9828              1223.0559              1269.3796
 Red. masses --      1.2473                 1.4295                 1.8293
 Frc consts  --      1.0902                 1.2599                 1.7366
 IR Inten    --      0.1375                 3.2350                19.3535

                     31                     32                     33
                      A                      A                      A
 Frequencies --   1288.9473              1318.3063              1408.9338
 Red. masses --      1.5468                 2.4422                 1.3144
 Frc consts  --      1.5141                 2.5008                 1.5374
 IR Inten    --      2.0138                10.4380                 2.5606

                     34                     35                     36
                      A                      A                      A
 Frequencies --   1421.0320              1439.9915              1462.4274
 Red. masses --      1.1890                 1.1246                 1.5283
 Frc consts  --      1.4147                 1.3739                 1.9257
 IR Inten    --      7.8525                 3.4490                 5.1356

                     37                     38                     39
                      A                      A                      A
 Frequencies --   1464.0596              1479.5330              1490.1688
 Red. masses --      1.0903                 1.0702                 1.0692
 Frc consts  --      1.3769                 1.3802                 1.3989
 IR Inten    --      0.1871                 5.6144                 1.6283

                     40                     41                     42
                      A                      A                      A
 Frequencies --   1516.7072              1834.4297              2898.3705
 Red. masses --      2.3677                 9.9853                 1.0838
 Frc consts  --      3.2091                19.7976                 5.3642
 IR Inten    --     14.4748               194.3735                73.2103

                     43                     44                     45
                      A                      A                      A
 Frequencies --   3025.4540              3034.3103              3062.7136
 Red. masses --      1.0621                 1.0362                 1.0563
 Frc consts  --      5.7279                 5.6208                 5.8380
 IR Inten    --      7.3799                20.7802                35.0001

                     46                     47                     48
                      A                      A                      A
 Frequencies --   3069.9424              3096.9842              3100.6767
 Red. masses --      1.0597                 1.0997                 1.0987
 Frc consts  --      5.8842                 6.2145                 6.2233
 IR Inten    --     25.6275                12.2101                 9.3202

                     49                     50                     51
                      A                      A                      A
 Frequencies --   3114.1545              3117.9391              3130.3222
 Red. masses --      1.1089                 1.1013                 1.1080
 Frc consts  --      6.3359                 6.3080                 6.3970
 IR Inten    --      0.9199                15.2257                33.8440

 - Thermochemistry -
 -------------------
 Temperature   298.150 Kelvin.  Pressure   1.00000 Atm.
 Atom     1 has atomic number  6 and mass  12.00000

 Molecular mass:   126.06808 amu.
 Principal axes and moments of inertia in atomic units:
                           1         2         3
     Eigenvalues --   538.449211759.596502014.38711
           X            0.99994   0.00437   0.01004
           Y           -0.00456   0.99981   0.01913
           Z           -0.00995  -0.01917   0.99977
 This molecule is an asymmetric top.
 Rotational symmetry number  1.
 Warning -- assumption of classical behavior for rotation
           may cause significant error
 Rotational temperatures (Kelvin)      0.16086     0.04922     0.04300
 Rotational constants (GHZ):           3.35174     1.02566     0.89593
 Zero-point vibrational energy     410305.8 (Joules/Mol)
                                   98.06544 (Kcal/Mol)
 Warning -- explicit consideration of  12 degrees of freedom as
           vibrations may cause significant error
 Vibrational temperatures:     72.94    96.81   197.87   263.76   291.72
          (Kelvin)            351.44   465.56   485.88   639.92   716.57
                              729.98   871.78  1023.09  1037.57  1116.29
                             1196.60  1264.08  1294.54  1347.51  1395.27
                             1436.05  1510.36  1563.99  1584.62  1667.82
                             1703.03  1733.97  1752.40  1759.70  1826.35
                             1854.51  1896.75  2027.14  2044.55  2071.82
                             2104.10  2106.45  2128.72  2144.02  2182.20
                             2639.33  4170.10  4352.95  4365.69  4406.56
                             4416.96  4455.86  4461.18  4480.57  4486.01
                             4503.83

 Zero-point correction=                           0.156277 (Hartree/Particle)
 Thermal correction to Energy=                    0.165537
 Thermal correction to Enthalpy=                  0.166481
 Thermal correction to Gibbs Free Energy=         0.121458
 Sum of electronic and zero-point Energies=           -423.010073
 Sum of electronic and thermal Energies=              -423.000813
 Sum of electronic and thermal Enthalpies=            -422.999869
 Sum of electronic and thermal Free Energies=         -423.044892

                     E (Thermal)             CV                S
                      KCal/Mol        Cal/Mol-Kelvin    Cal/Mol-Kelvin
 Total                  103.876             33.668             94.760
 Electronic               0.000              0.000              0.000
 Translational            0.889              2.981             40.409
 Rotational               0.889              2.981             29.036
 Vibrational            102.099             27.707             25.315
 Vibration     1          0.595              1.977              4.790
 Vibration     2          0.598              1.970              4.231
 Vibration     3          0.614              1.916              2.838
 Vibration     4          0.631              1.863              2.294
 Vibration     5          0.639              1.836              2.108
 Vibration     6          0.660              1.772              1.772
 Vibration     7          0.708              1.628              1.292
 Vibration     8          0.718              1.600              1.223
 Vibration     9          0.804              1.372              0.812
 Vibration    10          0.854              1.254              0.663
 Vibration    11          0.863              1.234              0.640
 Vibration    12          0.965              1.019              0.440

 Normal termination of Gaussian 09 at Mon Jan 27 18:03:42 2020.
