 Gaussian 09, Revision D.01,
 Gaussian 09:  ES64L-G09RevD.01 24-Apr-2013

 -----------------------------
 # b3lyp 6-31G(2df,p) opt Freq
 -----------------------------

 -----
 titel
 -----
 Symbolic Z-matrix:
 Charge =  0 Multiplicity = 1

 SCF Done:  E(RB3LYP) =  -423.234226080     A.U. after   14 cycles
 Optimization completed.
    -- Stationary point found.
 Normal termination of Gaussian 09 at Mon Jan 27 18:45:47 2020.

 ----------------------------------------------------------------------
 #N Geom=AllCheck Guess=TCheck SCRF=Check GenChk RB3LYP/6-31G(2df,p) Fr
 eq
 ----------------------------------------------------------------------

 Structure from the checkpoint file:  "/scratch/puck/g09_4b8b95c0-b2b9-4a5f-a0c8-8bc3f2d16e0d/Gau-90644.chk"
 -----
 titel
 -----
 Charge =  0 Multiplicity = 1

                         Standard orientation:
 ---------------------------------------------------------------------
 Center     Atomic      Atomic             Coordinates (Angstroms)
 Number     Number       Type             X           Y           Z
 ---------------------------------------------------------------------
      1          6           0        1.821240    1.453650   -0.531711
      2          6           0        0.767903    0.529873    0.061410
      3          6           0        1.311182   -0.461731    1.147777
      4          6           0        1.164431   -1.639578    0.142223
      5          6           0        0.376069   -0.713021   -0.805684
      6          8           0       -1.039319   -0.875588   -0.677878
      7          6           0       -1.623079    0.146553    0.013237
      8          8           0       -2.795346    0.166651    0.246395
      9          6           0       -0.568374    1.189321    0.382793
     10          1           0        2.126297    2.215674    0.193843
     11          1           0        2.719862    0.899360   -0.824165
     12          1           0        1.441015    1.968588   -1.420999
     13          1           0        2.323921   -0.254202    1.500289
     14          1           0        0.656257   -0.547397    2.018670
     15          1           0        2.115939   -1.960115   -0.288927
     16          1           0        0.615687   -2.519803    0.481061
     17          1           0        0.626743   -0.723508   -1.869644
     18          1           0       -0.752940    2.081559   -0.227026
     19          1           0       -0.691694    1.480944    1.428494
 ---------------------------------------------------------------------

 SCF Done:  E(RB3LYP) =  -423.234226080     A.U. after    1 cycles

 The electronic state is 1-A.
 Alpha  occ. eigenvalues --  -19.17832 -19.11858 -10.30127 -10.24564 -10.21140
 Alpha  occ. eigenvalues --  -10.20075 -10.19453 -10.19368 -10.19250  -1.09622
 Alpha  occ. eigenvalues --   -1.01845  -0.86105  -0.77433  -0.72121  -0.68207
 Alpha  occ. eigenvalues --   -0.62846  -0.58644  -0.53438  -0.51560  -0.48423
 Alpha  occ. eigenvalues --   -0.46028  -0.45460  -0.44094  -0.42250  -0.41515
 Alpha  occ. eigenvalues --   -0.40264  -0.37847  -0.37222  -0.35897  -0.34767
 Alpha  occ. eigenvalues --   -0.31645  -0.30479  -0.28430  -0.26252
 Alpha virt. eigenvalues --    0.01646   0.07026   0.08273   0.10307   0.11285
 Alpha virt. eigenvalues --    0.12020   0.13623   0.15024   0.15186   0.16284
 Alpha virt. eigenvalues --    0.17557   0.18438   0.19589   0.20368   0.21404

 Mulliken charges:
               1
     1  C   -0.479229
     2  C    0.329330
     3  C   -0.283153
     4  C   -0.234366
     5  C    0.072533
     6  O   -0.228390
     7  C    0.420735
     8  O   -0.330991
     9  C   -0.438001
    10  H    0.125235
    11  H    0.119030
    12  H    0.120522
    13  H    0.106455
    14  H    0.110584
    15  H    0.110205
    16  H    0.121128
    17  H    0.085606
    18  H    0.134259
    19  H    0.138507
 Sum of Mulliken charges =   0.00000

 Dipole moment (field-independent basis, Debye):
    X=              4.3148    Y=              0.9055    Z=             -0.0167  Tot=              4.4088
 Quadrupole moment (field-independent basis, Debye-Ang):
   XX=            -63.7920   YY=            -51.7409   ZZ=            -51.6064
   XY=             -1.5466   XZ=             -0.0906   YZ=             -0.6470

  Exact polarizability:  84.382  -2.898  73.779  -2.812   0.964  65.420
 Approx polarizability: 121.055  -4.981 104.374  -6.039   4.095  99.936

                      1                      2                      3
                      A                      A                      A
 Frequencies --     75.9692               112.8975               236.8413
 Red. masses --      2.5417                 4.4825                 1.1725
 Frc consts  --      0.0086                 0.0337                 0.0388
 IR Inten    --      2.9279                 0.3199                 0.1597

                      4                      5                      6
                      A                      A                      A
 Frequencies --    253.5044               311.6114               368.6242
 Red. masses --      1.9989                 2.2160                 2.4192
 Frc consts  --      0.0757                 0.1268                 0.1937
 IR Inten    --      0.6442                 0.3800                 0.1406

                      7                      8                      9
                      A                      A                      A
 Frequencies --    374.3710               498.9774               541.6903
 Red. masses --      2.9115                 4.0851                 3.2435
 Frc consts  --      0.2404                 0.5993                 0.5607
 IR Inten    --      1.4050                 3.3581                 3.6175

                     10                     11                     12
                      A                      A                      A
 Frequencies --    579.6992               643.0728               696.8979
 Red. masses --      3.4606                 3.7523                 3.7622
 Frc consts  --      0.6852                 0.9142                 1.0765
 IR Inten    --      3.8208                 1.6079                 4.8854

                     13                     14                     15
                      A                      A                      A
 Frequencies --    742.5754               823.0875               864.8941
 Red. masses --      1.4090                 3.1891                 2.6461
 Frc consts  --      0.4578                 1.2729                 1.1662
 IR Inten    --      2.3072                 6.6856                 1.4620

                     16                     17                     18
                      A                      A                      A
 Frequencies --    881.6091               915.5142               953.9839
 Red. masses --      2.4913                 2.3801                 2.3468
 Frc consts  --      1.1408                 1.1754                 1.2584
 IR Inten    --      7.1791                11.6225                 1.1786

                     19                     20                     21
                      A                      A                      A
 Frequencies --    956.7571               974.6187               999.3112
 Red. masses --      1.8353                 1.6674                 1.9265
 Frc consts  --      0.9898                 0.9332                 1.1335
 IR Inten    --      5.7841                 0.8466                 7.4414

                     22                     23                     24
                      A                      A                      A
 Frequencies --   1053.1801              1116.2623              1135.0321
 Red. masses --      2.8670                 1.6526                 2.8148
 Frc consts  --      1.8736                 1.2133                 2.1365
 IR Inten    --     66.2938                11.4632                90.9256

                     25                     26                     27
                      A                      A                      A
 Frequencies --   1147.1724              1187.6491              1216.6739
 Red. masses --      2.0272                 1.8215                 1.6313
 Frc consts  --      1.5718                 1.5137                 1.4228
 IR Inten    --     54.0908                10.6965                48.1704

                     28                     29                     30
                      A                      A                      A
 Frequencies --   1229.6447              1249.2342              1262.5628
 Red. masses --      1.5084                 1.7954                 1.6950
 Frc consts  --      1.3438                 1.6508                 1.5919
 IR Inten    --      1.4178                 6.3014                36.6199

                     31                     32                     33
                      A                      A                      A
 Frequencies --   1278.9166              1288.9044              1331.7815
 Red. masses --      1.5376                 1.9303                 1.9691
 Frc consts  --      1.4817                 1.8894                 2.0577
 IR Inten    --      1.8340                 3.5122                 7.7533

                     34                     35                     36
                      A                      A                      A
 Frequencies --   1372.7652              1414.4760              1459.5309
 Red. masses --      1.4762                 1.2455                 1.0935
 Frc consts  --      1.6390                 1.4682                 1.3724
 IR Inten    --     11.7696                 1.3444                 5.2620

                     37                     38                     39
                      A                      A                      A
 Frequencies --   1468.6975              1490.4214              1494.7741
 Red. masses --      1.0885                 1.0905                 1.0564
 Frc consts  --      1.3834                 1.4272                 1.3907
 IR Inten    --      2.1380                 6.7929                 3.8361

                     40                     41                     42
                      A                      A                      A
 Frequencies --   1497.5488              1882.0540              3024.2147
 Red. masses --      1.0638                12.9339                 1.0352
 Frc consts  --      1.4056                26.9925                 5.5781
 IR Inten    --      1.0394               402.7697                22.5905

                     43                     44                     45
                      A                      A                      A
 Frequencies --   3047.6601              3063.1575              3067.5044
 Red. masses --      1.0655                 1.0586                 1.0719
 Frc consts  --      5.8312                 5.8521                 5.9424
 IR Inten    --     10.9509                29.8288                21.9578

                     46                     47                     48
                      A                      A                      A
 Frequencies --   3078.9188              3092.6100              3094.5409
 Red. masses --      1.0775                 1.1011                 1.1014
 Frc consts  --      6.0183                 6.2049                 6.2141
 IR Inten    --     30.2878                25.5930                21.2750

                     49                     50                     51
                      A                      A                      A
 Frequencies --   3107.2147              3112.6766              3134.0274
 Red. masses --      1.0979                 1.1068                 1.1070
 Frc consts  --      6.2452                 6.3178                 6.4064
 IR Inten    --      7.1045                 9.6846                24.9217

 - Thermochemistry -
 -------------------
 Temperature   298.150 Kelvin.  Pressure   1.00000 Atm.
 Atom     1 has atomic number  6 and mass  12.00000

 Molecular mass:   126.06808 amu.
 Principal axes and moments of inertia in atomic units:
                           1         2         3
     Eigenvalues --   640.525431217.557911484.10642
           X            0.99998   0.00304  -0.00545
           Y           -0.00320   0.99956  -0.02959
           Z            0.00536   0.02960   0.99955
 This molecule is an asymmetric top.
 Rotational symmetry number  1.
 Warning -- assumption of classical behavior for rotation
           may cause significant error
 Rotational temperatures (Kelvin)      0.13522     0.07114     0.05836
 Rotational constants (GHZ):           2.81759     1.48226     1.21605
 Zero-point vibrational energy     419927.0 (Joules/Mol)
                                  100.36497 (Kcal/Mol)
 Warning -- explicit consideration of  10 degrees of freedom as
           vibrations may cause significant error
 Vibrational temperatures:    109.30   162.43   340.76   364.74   448.34
          (Kelvin)            530.37   538.64   717.92   779.37   834.06
                              925.24  1002.68  1068.40  1184.24  1244.39
                             1268.44  1317.22  1372.57  1376.56  1402.26
                             1437.78  1515.29  1606.05  1633.06  1650.52
                             1708.76  1750.52  1769.18  1797.37  1816.54
                             1840.07  1854.44  1916.13  1975.10  2035.11
                             2099.94  2113.13  2144.38  2150.64  2154.64
                             2707.85  4351.16  4384.90  4407.19  4413.45
                             4429.87  4449.57  4452.35  4470.58  4478.44
                             4509.16

 Zero-point correction=                           0.159942 (Hartree/Particle)
 Thermal correction to Energy=                    0.167930
 Thermal correction to Enthalpy=                  0.168874
 Thermal correction to Gibbs Free Energy=         0.127294
 Sum of electronic and zero-point Energies=           -423.074284
 Sum of electronic and thermal Energies=              -423.066296
 Sum of electronic and thermal Enthalpies=            -423.065352
 Sum of electronic and thermal Free Energies=         -423.106932

                     E (Thermal)             CV                S
                      KCal/Mol        Cal/Mol-Kelvin    Cal/Mol-Kelvin
 Total                  105.377             31.041             87.512
 Electronic               0.000              0.000              0.000
 Translational            0.889              2.981             40.409
 Rotational               0.889              2.981             28.539
 Vibrational            103.600             25.079             18.565
 Vibration     1          0.599              1.965              3.992
 Vibration     2          0.607              1.939              3.218
 Vibration     3          0.656              1.784              1.826
 Vibration     4          0.665              1.757              1.706
 Vibration     5          0.700              1.652              1.354
 Vibration     6          0.741              1.537              1.086
 Vibration     7          0.745              1.525              1.062
 Vibration     8          0.854              1.252              0.661
 Vibration     9          0.897              1.158              0.562
 Vibration    10          0.936              1.075              0.486

 Optimization completed.
    -- Stationary point found.
 Normal termination of Gaussian 09 at Mon Jan 27 19:28:05 2020.
