 Gaussian 09, Revision D.01,
 Gaussian 09:  ES64L-G09RevD.01 24-Apr-2013

 -----------------------------
 # b3lyp 6-31G(2df,p) opt Freq
 -----------------------------

 -----
 titel
 -----
 Symbolic Z-matrix:
 Charge =  0 Multiplicity = 1

 SCF Done:  E(RB3LYP) =  -423.187958576     A.U. after   14 cycles
 Optimization completed.
    -- Stationary point found.
 Normal termination of Gaussian 09 at Tue Jan 28 09:17:19 2020.

 ----------------------------------------------------------------------
 #N Geom=AllCheck Guess=TCheck SCRF=Check GenChk RB3LYP/6-31G(2df,p) Fr
 eq
 ----------------------------------------------------------------------

 Structure from the checkpoint file:  "/scratch/puck/g09_4833bf7d-69c4-41ea-88d3-f3008d29a36f/Gau-17488.chk"
 -----
 titel
 -----
 Charge =  0 Multiplicity = 1

                         Standard orientation:
 ---------------------------------------------------------------------
 Center     Atomic      Atomic             Coordinates (Angstroms)
 Number     Number       Type             X           Y           Z
 ---------------------------------------------------------------------
      1          8           0       -2.688676   -0.388210    0.128586
      2          6           0       -1.746150    0.640837   -0.149509
      3          6           0       -0.366099    0.062603   -0.013334
      4          6           0        0.269382   -0.363067    1.358663
      5          6           0        1.636416   -0.211649    0.608965
      6          6           0        1.529759   -1.333588   -0.448209
      7          6           0        0.042740   -1.130257   -0.911033
      8          6           0        0.904349    0.932915   -0.112651
      9          8           0        1.144309    2.060373   -0.432425
     10          1           0       -3.571673   -0.019440    0.032248
     11          1           0       -1.871531    1.035098   -1.170757
     12          1           0       -1.862927    1.489268    0.542542
     13          1           0        0.119802    0.376402    2.147837
     14          1           0        0.019877   -1.366160    1.711220
     15          1           0        2.582854   -0.065493    1.124913
     16          1           0        2.247354   -1.207438   -1.262997
     17          1           0        1.694369   -2.318615   -0.003430
     18          1           0       -0.038269   -0.888136   -1.974727
     19          1           0       -0.587295   -1.999545   -0.713490
 ---------------------------------------------------------------------

 SCF Done:  E(RB3LYP) =  -423.187958576     A.U. after    1 cycles

 The electronic state is 1-A.
 Alpha  occ. eigenvalues --  -19.13956 -19.13458 -10.26559 -10.23195 -10.20009
 Alpha  occ. eigenvalues --  -10.19814 -10.19733 -10.19346 -10.18971  -1.04491
 Alpha  occ. eigenvalues --   -1.01959  -0.89544  -0.74073  -0.72714  -0.65575
 Alpha  occ. eigenvalues --   -0.62875  -0.56252  -0.52146  -0.49779  -0.48801
 Alpha  occ. eigenvalues --   -0.46384  -0.45579  -0.44166  -0.41915  -0.37887
 Alpha  occ. eigenvalues --   -0.37578  -0.36824  -0.36298  -0.34525  -0.33520
 Alpha  occ. eigenvalues --   -0.32523  -0.31214  -0.27172  -0.23193
 Alpha virt. eigenvalues --   -0.00164   0.06666   0.09131   0.11264   0.12829
 Alpha virt. eigenvalues --    0.13881   0.14509   0.15083   0.15875   0.17201
 Alpha virt. eigenvalues --    0.17709   0.18487   0.20087   0.20791   0.22019

 Mulliken charges:
               1
     1  O   -0.428366
     2  C   -0.192031
     3  C    0.221917
     4  C   -0.274262
     5  C   -0.143191
     6  C   -0.228227
     7  C   -0.256338
     8  C    0.397935
     9  O   -0.334176
    10  H    0.289752
    11  H    0.097767
    12  H    0.094716
    13  H    0.112707
    14  H    0.112626
    15  H    0.082580
    16  H    0.111337
    17  H    0.107151
    18  H    0.105757
    19  H    0.122345
 Sum of Mulliken charges =   0.00000

 Dipole moment (field-independent basis, Debye):
    X=             -1.2209    Y=             -1.4878    Z=              0.4133  Tot=              1.9685
 Quadrupole moment (field-independent basis, Debye-Ang):
   XX=            -47.9017   YY=            -58.9973   ZZ=            -51.9405
   XY=             -7.0482   XZ=              1.7557   YZ=              1.8374

  Exact polarizability:  81.687  -1.194  76.054   0.789  -1.014  67.623
 Approx polarizability: 109.488   3.665 119.915  -0.562  -6.440 102.795

                      1                      2                      3
                      A                      A                      A
 Frequencies --     76.3117               135.6075               166.3747
 Red. masses --      3.6080                 4.9211                 4.3788
 Frc consts  --      0.0124                 0.0533                 0.0714
 IR Inten    --      2.9977                 6.5347                 3.5343

                      4                      5                      6
                      A                      A                      A
 Frequencies --    243.0011               260.9755               314.2066
 Red. masses --      1.6437                 1.2511                 6.0701
 Frc consts  --      0.0572                 0.0502                 0.3531
 IR Inten    --     25.6928                69.2378                 2.6643

                      7                      8                      9
                      A                      A                      A
 Frequencies --    329.2796               429.2348               545.9981
 Red. masses --      1.9877                 2.0430                 3.7210
 Frc consts  --      0.1270                 0.2218                 0.6536
 IR Inten    --     10.8543                 0.8616                 2.0394

                     10                     11                     12
                      A                      A                      A
 Frequencies --    571.8615               684.1250               715.1408
 Red. masses --      4.2825                 5.7195                 3.6449
 Frc consts  --      0.8251                 1.5772                 1.0983
 IR Inten    --     16.4026                 4.6164                 5.0126

                     13                     14                     15
                      A                      A                      A
 Frequencies --    779.8533               815.2027               856.6440
 Red. masses --      2.3822                 3.1654                 1.6632
 Frc consts  --      0.8536                 1.2394                 0.7191
 IR Inten    --      1.8296                 7.2436                 1.1447

                     16                     17                     18
                      A                      A                      A
 Frequencies --    877.4807               905.2547               935.1350
 Red. masses --      2.3917                 2.4724                 2.2725
 Frc consts  --      1.0850                 1.1937                 1.1709
 IR Inten    --      2.5071                 3.0864                 4.0049

                     19                     20                     21
                      A                      A                      A
 Frequencies --    963.5527               986.1182              1016.7268
 Red. masses --      2.3113                 1.4295                 2.0879
 Frc consts  --      1.2643                 0.8190                 1.2716
 IR Inten    --      4.1793                 7.0339                19.3670

                     22                     23                     24
                      A                      A                      A
 Frequencies --   1031.6595              1073.0889              1105.7712
 Red. masses --      1.5106                 5.2911                 1.3601
 Frc consts  --      0.9473                 3.5898                 0.9798
 IR Inten    --      4.3518                38.2720                 9.8441

                     25                     26                     27
                      A                      A                      A
 Frequencies --   1126.5927              1151.4161              1179.3413
 Red. masses --      1.7387                 1.8480                 1.5556
 Frc consts  --      1.3002                 1.4435                 1.2748
 IR Inten    --      0.0714                10.4211                17.6546

                     28                     29                     30
                      A                      A                      A
 Frequencies --   1212.1512              1219.5541              1243.3994
 Red. masses --      1.3398                 1.3899                 1.6250
 Frc consts  --      1.1599                 1.2179                 1.4802
 IR Inten    --      4.0351                 9.1107                20.5559

                     31                     32                     33
                      A                      A                      A
 Frequencies --   1259.2242              1272.2163              1288.6276
 Red. masses --      1.3427                 1.2666                 1.3990
 Frc consts  --      1.2544                 1.2079                 1.3688
 IR Inten    --      5.4818                12.0054                18.6896

                     34                     35                     36
                      A                      A                      A
 Frequencies --   1321.3344              1355.0948              1468.9471
 Red. masses --      1.5070                 2.2763                 1.6233
 Frc consts  --      1.5502                 2.4627                 2.0638
 IR Inten    --      0.5741                 1.2374                12.9100

                     37                     38                     39
                      A                      A                      A
 Frequencies --   1491.5658              1495.2485              1515.0384
 Red. masses --      1.1054                 1.0825                 1.0965
 Frc consts  --      1.4489                 1.4259                 1.4829
 IR Inten    --      1.7393                 0.5683                 1.1098

                     40                     41                     42
                      A                      A                      A
 Frequencies --   1518.8432              1890.0794              2971.0205
 Red. masses --      1.1021                12.4286                 1.0557
 Frc consts  --      1.4979                26.1597                 5.4902
 IR Inten    --      0.5845               299.6116                49.1608

                     43                     44                     45
                      A                      A                      A
 Frequencies --   3000.5096              3056.0685              3064.7310
 Red. masses --      1.1055                 1.0588                 1.0621
 Frc consts  --      5.8639                 5.8265                 5.8776
 IR Inten    --     45.2094                30.3597                41.4974

                     46                     47                     48
                      A                      A                      A
 Frequencies --   3069.1833              3098.8532              3119.0329
 Red. masses --      1.0561                 1.1058                 1.1049
 Frc consts  --      5.8612                 6.2566                 6.3331
 IR Inten    --     13.2861                 5.6452                26.0507

                     49                     50                     51
                      A                      A                      A
 Frequencies --   3135.3039              3147.0613              3827.7202
 Red. masses --      1.1110                 1.0910                 1.0664
 Frc consts  --      6.4346                 6.3665                 9.2055
 IR Inten    --     15.5317                26.2893                20.3164

 - Thermochemistry -
 -------------------
 Temperature   298.150 Kelvin.  Pressure   1.00000 Atm.
 Atom     1 has atomic number  8 and mass  15.99491

 Molecular mass:   126.06808 amu.
 Principal axes and moments of inertia in atomic units:
                           1         2         3
     Eigenvalues --   713.832311216.076351507.40156
           X            0.99736  -0.07225   0.00709
           Y            0.07199   0.99691   0.03150
           Z           -0.00934  -0.03091   0.99948
 This molecule is an asymmetric top.
 Rotational symmetry number  1.
 Warning -- assumption of classical behavior for rotation
           may cause significant error
 Rotational temperatures (Kelvin)      0.12134     0.07122     0.05746
 Rotational constants (GHZ):           2.52824     1.48407     1.19725
 Zero-point vibrational energy     420587.6 (Joules/Mol)
                                  100.52286 (Kcal/Mol)
 Warning -- explicit consideration of  10 degrees of freedom as
           vibrations may cause significant error
 Vibrational temperatures:    109.80   195.11   239.38   349.62   375.49
          (Kelvin)            452.07   473.76   617.57   785.57   822.78
                              984.30  1028.93  1122.03  1172.89  1232.52
                             1262.50  1302.46  1345.45  1386.34  1418.80
                             1462.84  1484.33  1543.93  1590.96  1620.91
                             1656.63  1696.81  1744.01  1754.66  1788.97
                             1811.74  1830.43  1854.05  1901.10  1949.68
                             2113.48  2146.03  2151.33  2179.80  2185.27
                             2719.40  4274.63  4317.06  4397.00  4409.46
                             4415.86  4458.55  4487.59  4511.00  4527.91
                             5507.23

 Zero-point correction=                           0.160193 (Hartree/Particle)
 Thermal correction to Energy=                    0.168493
 Thermal correction to Enthalpy=                  0.169437
 Thermal correction to Gibbs Free Energy=         0.127184
 Sum of electronic and zero-point Energies=           -423.027765
 Sum of electronic and thermal Energies=              -423.019466
 Sum of electronic and thermal Enthalpies=            -423.018521
 Sum of electronic and thermal Free Energies=         -423.060775

                     E (Thermal)             CV                S
                      KCal/Mol        Cal/Mol-Kelvin    Cal/Mol-Kelvin
 Total                  105.731             31.689             88.930
 Electronic               0.000              0.000              0.000
 Translational            0.889              2.981             40.409
 Rotational               0.889              2.981             28.661
 Vibrational            103.953             25.727             19.860
 Vibration     1          0.599              1.965              3.984
 Vibration     2          0.613              1.918              2.865
 Vibration     3          0.624              1.884              2.476
 Vibration     4          0.659              1.774              1.781
 Vibration     5          0.669              1.744              1.655
 Vibration     6          0.702              1.647              1.340
 Vibration     7          0.712              1.617              1.264
 Vibration     8          0.791              1.407              0.861
 Vibration     9          0.901              1.148              0.553
 Vibration    10          0.928              1.092              0.501

 Normal termination of Gaussian 09 at Tue Jan 28 10:05:08 2020.
