 Gaussian 09, Revision D.01,
 Gaussian 09:  ES64L-G09RevD.01 24-Apr-2013

 -----------------------------
 # b3lyp 6-31G(2df,p) opt Freq
 -----------------------------

 -----
 titel
 -----
 Symbolic Z-matrix:
 Charge =  0 Multiplicity = 1

 SCF Done:  E(RB3LYP) =  -423.161174371     A.U. after   14 cycles
 Optimization completed.
    -- Stationary point found.
 Normal termination of Gaussian 09 at Tue Jan 28 09:50:50 2020.

 ----------------------------------------------------------------------
 #N Geom=AllCheck Guess=TCheck SCRF=Check GenChk RB3LYP/6-31G(2df,p) Fr
 eq
 ----------------------------------------------------------------------

 Structure from the checkpoint file:  "/scratch/puck/g09_fa828588-2fb1-48eb-8f1b-a0c966794064/Gau-18785.chk"
 -----
 titel
 -----
 Charge =  0 Multiplicity = 1

                         Standard orientation:
 ---------------------------------------------------------------------
 Center     Atomic      Atomic             Coordinates (Angstroms)
 Number     Number       Type             X           Y           Z
 ---------------------------------------------------------------------
      1          8           0       -2.809053    0.500670    0.095101
      2          6           0       -1.788821   -0.023820   -0.745879
      3          6           0       -0.516955   -0.117975    0.065373
      4          6           0       -0.340343   -1.345789    0.949572
      5          6           0        0.488595   -1.178035   -0.296317
      6          8           0        1.847792   -0.898593   -0.122234
      7          6           0        2.238648    0.439578   -0.404915
      8          6           0        1.339585    1.464483    0.239542
      9          6           0        0.062547    1.185283    0.488650
     10          1           0       -3.576450    0.696119   -0.450654
     11          1           0       -2.061033   -1.022491   -1.124011
     12          1           0       -1.623255    0.628152   -1.617972
     13          1           0        0.182219   -1.213049    1.889297
     14          1           0       -1.135414   -2.084074    0.955908
     15          1           0        0.284676   -1.822794   -1.150770
     16          1           0        3.261538    0.528366   -0.024864
     17          1           0        2.287170    0.607570   -1.495373
     18          1           0        1.775194    2.426207    0.494256
     19          1           0       -0.604095    1.897025    0.965090
 ---------------------------------------------------------------------

 SCF Done:  E(RB3LYP) =  -423.161174371     A.U. after    1 cycles

 The electronic state is 1-A.
 Alpha  occ. eigenvalues --  -19.13860 -19.13666 -10.23247 -10.23137 -10.22993
 Alpha  occ. eigenvalues --  -10.19599 -10.18058 -10.18033 -10.17941  -1.03528
 Alpha  occ. eigenvalues --   -1.01734  -0.85865  -0.78446  -0.69739  -0.67967
 Alpha  occ. eigenvalues --   -0.60738  -0.58202  -0.51788  -0.51284  -0.49891
 Alpha  occ. eigenvalues --   -0.47281  -0.46107  -0.44227  -0.42854  -0.39550
 Alpha  occ. eigenvalues --   -0.39227  -0.37633  -0.34911  -0.33018  -0.32206
 Alpha  occ. eigenvalues --   -0.27485  -0.26941  -0.24882  -0.23304
 Alpha virt. eigenvalues --    0.01627   0.07221   0.10552   0.10879   0.11878
 Alpha virt. eigenvalues --    0.12950   0.15175   0.15906   0.16496   0.17089
 Alpha virt. eigenvalues --    0.18462   0.18891   0.19833   0.21972   0.22937

 Mulliken charges:
               1
     1  O   -0.419168
     2  C   -0.154780
     3  C    0.277805
     4  C   -0.328934
     5  C    0.037922
     6  O   -0.260749
     7  C   -0.122714
     8  C   -0.084025
     9  C   -0.139094
    10  H    0.287949
    11  H    0.082398
    12  H    0.089970
    13  H    0.123061
    14  H    0.111361
    15  H    0.083571
    16  H    0.116349
    17  H    0.099018
    18  H    0.094412
    19  H    0.105647
 Sum of Mulliken charges =   0.00000

 Dipole moment (field-independent basis, Debye):
    X=             -1.0602    Y=              0.8264    Z=             -1.6303  Tot=              2.1131
 Quadrupole moment (field-independent basis, Debye-Ang):
   XX=            -49.0357   YY=            -52.6622   ZZ=            -52.3728
   XY=              3.4525   XZ=              3.9706   YZ=             -0.0439

  Exact polarizability:  93.592   6.709  75.267  -2.970   0.371  63.125
 Approx polarizability: 133.595   7.983 108.936  -7.954  -0.302  96.760

                      1                      2                      3
                      A                      A                      A
 Frequencies --     87.8399               135.8115               166.0542
 Red. masses --      4.1410                 2.5029                 4.1339
 Frc consts  --      0.0188                 0.0272                 0.0672
 IR Inten    --      1.2568                 1.7494                 2.6756

                      4                      5                      6
                      A                      A                      A
 Frequencies --    243.7599               249.6827               301.3094
 Red. masses --      1.5963                 1.6108                 2.3914
 Frc consts  --      0.0559                 0.0592                 0.1279
 IR Inten    --     60.2262                40.3825                 5.7434

                      7                      8                      9
                      A                      A                      A
 Frequencies --    364.1997               429.0727               491.8311
 Red. masses --      4.2388                 2.4733                 2.2084
 Frc consts  --      0.3313                 0.2683                 0.3147
 IR Inten    --      5.1925                 2.0588                 0.1987

                     10                     11                     12
                      A                      A                      A
 Frequencies --    519.2050               592.7474               694.7180
 Red. masses --      5.9816                 4.3959                 3.4681
 Frc consts  --      0.9500                 0.9100                 0.9862
 IR Inten    --      3.1919                 1.3902                 2.3349

                     13                     14                     15
                      A                      A                      A
 Frequencies --    727.9139               800.6938               876.1215
 Red. masses --      1.3710                 2.3188                 2.9207
 Frc consts  --      0.4280                 0.8759                 1.3209
 IR Inten    --     30.3328                22.3657                 2.5979

                     16                     17                     18
                      A                      A                      A
 Frequencies --    915.7800               923.0481               946.1152
 Red. masses --      2.7877                 2.3615                 1.4350
 Frc consts  --      1.3774                 1.1855                 0.7568
 IR Inten    --     11.2149                 3.6951                 9.3976

                     19                     20                     21
                      A                      A                      A
 Frequencies --    971.2331               996.8238              1040.0879
 Red. masses --      2.4716                 1.2735                 1.9016
 Frc consts  --      1.3737                 0.7456                 1.2120
 IR Inten    --      6.8857                 2.6554                 4.1685

                     22                     23                     24
                      A                      A                      A
 Frequencies --   1048.3460              1053.1350              1064.3371
 Red. masses --      1.7897                 2.1334                 2.3740
 Frc consts  --      1.1589                 1.3941                 1.5845
 IR Inten    --     17.0803                46.6716                36.6110

                     25                     26                     27
                      A                      A                      A
 Frequencies --   1077.5801              1116.0363              1176.9623
 Red. masses --      3.0084                 1.7199                 1.5810
 Frc consts  --      2.0582                 1.2622                 1.2904
 IR Inten    --     30.1322                13.5247                38.5112

                     28                     29                     30
                      A                      A                      A
 Frequencies --   1193.3843              1229.2074              1248.7390
 Red. masses --      2.0644                 1.5071                 1.1715
 Frc consts  --      1.7322                 1.3417                 1.0763
 IR Inten    --     32.6418                56.3049                14.9527

                     31                     32                     33
                      A                      A                      A
 Frequencies --   1265.4376              1269.9694              1334.9221
 Red. masses --      1.2310                 1.3597                 1.2938
 Frc consts  --      1.1614                 1.2920                 1.3584
 IR Inten    --      4.7778                10.8251                 2.3219

                     34                     35                     36
                      A                      A                      A
 Frequencies --   1378.5005              1415.6067              1419.5475
 Red. masses --      1.5788                 1.8356                 1.5121
 Frc consts  --      1.7676                 2.1673                 1.7953
 IR Inten    --      2.4160                12.1046                 3.7090

                     37                     38                     39
                      A                      A                      A
 Frequencies --   1459.2962              1477.0218              1496.1804
 Red. masses --      1.4643                 1.4010                 1.1253
 Frc consts  --      1.8372                 1.8008                 1.4841
 IR Inten    --     20.3635                 8.5481                 3.5240

                     40                     41                     42
                      A                      A                      A
 Frequencies --   1516.9290              1713.6882              2948.5226
 Red. masses --      1.0858                 7.0376                 1.0726
 Frc consts  --      1.4721                12.1769                 5.4939
 IR Inten    --      3.6821                 3.0099                60.6208

                     43                     44                     45
                      A                      A                      A
 Frequencies --   2961.9681              2996.1066              3069.6417
 Red. masses --      1.0558                 1.1058                 1.0881
 Frc consts  --      5.4575                 5.8482                 6.0410
 IR Inten    --     55.4499                55.7901                33.4964

                     46                     47                     48
                      A                      A                      A
 Frequencies --   3101.5186              3136.4985              3165.8853
 Red. masses --      1.0877                 1.0550                 1.0842
 Frc consts  --      6.1648                 6.1150                 6.4027
 IR Inten    --     38.4359                11.7882                 4.6779

                     49                     50                     51
                      A                      A                      A
 Frequencies --   3189.0349              3233.0887              3828.0434
 Red. masses --      1.0980                 1.1171                 1.0663
 Frc consts  --      6.5792                 6.8799                 9.2066
 IR Inten    --     18.8021                 5.5513                21.1565

 - Thermochemistry -
 -------------------
 Temperature   298.150 Kelvin.  Pressure   1.00000 Atm.
 Atom     1 has atomic number  8 and mass  15.99491

 Molecular mass:   126.06808 amu.
 Principal axes and moments of inertia in atomic units:
                           1         2         3
     Eigenvalues --   569.425731382.886891681.77996
           X            0.99957   0.02825   0.00725
           Y           -0.02823   0.99960  -0.00259
           Z           -0.00732   0.00238   0.99997
 This molecule is an asymmetric top.
 Rotational symmetry number  1.
 Warning -- assumption of classical behavior for rotation
           may cause significant error
 Rotational temperatures (Kelvin)      0.15211     0.06263     0.05150
 Rotational constants (GHZ):           3.16941     1.30505     1.07311
 Zero-point vibrational energy     419047.0 (Joules/Mol)
                                  100.15463 (Kcal/Mol)
 Warning -- explicit consideration of  11 degrees of freedom as
           vibrations may cause significant error
 Vibrational temperatures:    126.38   195.40   238.91   350.72   359.24
          (Kelvin)            433.52   524.00   617.34   707.63   747.02
                              852.83   999.54  1047.30  1152.02  1260.54
                             1317.60  1328.06  1361.25  1397.39  1434.21
                             1496.45  1508.33  1515.22  1531.34  1550.40
                             1605.73  1693.38  1717.01  1768.55  1796.65
                             1820.68  1827.20  1920.65  1983.35  2036.74
                             2042.41  2099.60  2125.10  2152.67  2182.52
                             2465.61  4242.26  4261.61  4310.72  4416.52
                             4462.39  4512.72  4555.00  4588.30  4651.69
                             5507.69

 Zero-point correction=                           0.159607 (Hartree/Particle)
 Thermal correction to Energy=                    0.168009
 Thermal correction to Enthalpy=                  0.168953
 Thermal correction to Gibbs Free Energy=         0.126632
 Sum of electronic and zero-point Energies=           -423.001568
 Sum of electronic and thermal Energies=              -422.993166
 Sum of electronic and thermal Enthalpies=            -422.992222
 Sum of electronic and thermal Free Energies=         -423.034543

                     E (Thermal)             CV                S
                      KCal/Mol        Cal/Mol-Kelvin    Cal/Mol-Kelvin
 Total                  105.427             32.161             89.072
 Electronic               0.000              0.000              0.000
 Translational            0.889              2.981             40.409
 Rotational               0.889              2.981             28.673
 Vibrational            103.649             26.200             19.991
 Vibration     1          0.601              1.958              3.708
 Vibration     2          0.614              1.918              2.862
 Vibration     3          0.624              1.884              2.480
 Vibration     4          0.659              1.773              1.775
 Vibration     5          0.662              1.763              1.733
 Vibration     6          0.693              1.671              1.410
 Vibration     7          0.738              1.546              1.104
 Vibration     8          0.790              1.407              0.862
 Vibration     9          0.848              1.268              0.679
 Vibration    10          0.874              1.207              0.612
 Vibration    11          0.950              1.047              0.462

 Optimization completed.
    -- Stationary point found.
 Normal termination of Gaussian 09 at Tue Jan 28 10:33:34 2020.
