 Gaussian 09, Revision D.01,
 Gaussian 09:  ES64L-G09RevD.01 24-Apr-2013

 -----------------------------
 # b3lyp 6-31G(2df,p) opt Freq
 -----------------------------

 -----
 titel
 -----
 Symbolic Z-matrix:
 Charge =  0 Multiplicity = 1

 SCF Done:  E(RB3LYP) =  -423.161596111     A.U. after   13 cycles
 Optimization completed.
    -- Stationary point found.
 Normal termination of Gaussian 09 at Mon Jan 27 17:40:51 2020.

 ----------------------------------------------------------------------
 #N Geom=AllCheck Guess=TCheck SCRF=Check GenChk RB3LYP/6-31G(2df,p) Fr
 eq
 ----------------------------------------------------------------------

 Structure from the checkpoint file:  "/scratch/puck/g09_65468025-44f4-4d7a-928b-251bfcf1ba27/Gau-169488.chk"
 -----
 titel
 -----
 Charge =  0 Multiplicity = 1

                         Standard orientation:
 ---------------------------------------------------------------------
 Center     Atomic      Atomic             Coordinates (Angstroms)
 Number     Number       Type             X           Y           Z
 ---------------------------------------------------------------------
      1          8           0       -1.548575    1.472922   -0.593752
      2          6           0       -1.124187    0.319902    0.045059
      3          6           0       -2.004872   -0.877197    0.246570
      4          6           0       -0.754946   -1.006509   -0.601340
      5          6           0        0.466152   -1.131886    0.317293
      6          8           0        1.713812   -0.975382   -0.322281
      7          6           0        1.897031    0.408947   -0.609587
      8          6           0        1.261001    1.158176    0.571641
      9          6           0        0.094466    0.251841    0.980501
     10          1           0       -2.205507    1.905760   -0.037153
     11          1           0       -2.077076   -1.373300    1.213243
     12          1           0       -2.927847   -0.858790   -0.324704
     13          1           0       -0.794734   -1.313558   -1.639274
     14          1           0        0.517838   -2.028925    0.940920
     15          1           0        2.970308    0.584589   -0.717936
     16          1           0        1.403934    0.680346   -1.553962
     17          1           0        1.972784    1.242621    1.397852
     18          1           0        0.927698    2.161677    0.294952
     19          1           0       -0.117170    0.279614    2.053492
 ---------------------------------------------------------------------

 SCF Done:  E(RB3LYP) =  -423.161596111     A.U. after    1 cycles

 The electronic state is 1-A.
 Alpha  occ. eigenvalues --  -19.15173 -19.13212 -10.23961 -10.22853 -10.21913
 Alpha  occ. eigenvalues --  -10.18846 -10.18601 -10.18569 -10.17931  -1.03925
 Alpha  occ. eigenvalues --   -1.02960  -0.88288  -0.76875  -0.71834  -0.62346
 Alpha  occ. eigenvalues --   -0.61684  -0.58516  -0.54105  -0.50481  -0.49700
 Alpha  occ. eigenvalues --   -0.48199  -0.45931  -0.42486  -0.40726  -0.40379
 Alpha  occ. eigenvalues --   -0.39652  -0.35481  -0.34088  -0.33159  -0.32532
 Alpha  occ. eigenvalues --   -0.30858  -0.26156  -0.25596  -0.24256
 Alpha virt. eigenvalues --    0.07389   0.10208   0.11138   0.11703   0.12350
 Alpha virt. eigenvalues --    0.13778   0.14944   0.15373   0.16389   0.16984
 Alpha virt. eigenvalues --    0.18016   0.19501   0.20967   0.21265   0.22781

 Mulliken charges:
               1
     1  O   -0.467444
     2  C    0.402650
     3  C   -0.358036
     4  C   -0.142772
     5  C    0.127975
     6  O   -0.261399
     7  C   -0.092521
     8  C   -0.231962
     9  C   -0.138419
    10  H    0.286108
    11  H    0.102298
    12  H    0.115122
    13  H    0.098809
    14  H    0.076360
    15  H    0.106027
    16  H    0.105295
    17  H    0.101594
    18  H    0.109808
    19  H    0.060507
 Sum of Mulliken charges =   0.00000

 Dipole moment (field-independent basis, Debye):
    X=             -1.5063    Y=              1.0859    Z=              1.2924  Tot=              2.2624
 Quadrupole moment (field-independent basis, Debye-Ang):
   XX=            -50.6831   YY=            -53.1965   ZZ=            -52.8077
   XY=              1.5343   XZ=             -1.1383   YZ=              1.1246

  Exact polarizability:  83.213   4.016  72.816  -1.211  -0.275  66.698
 Approx polarizability: 112.054  -0.041 110.561  -3.051  -0.208 102.662

                      1                      2                      3
                      A                      A                      A
 Frequencies --    121.1708               185.1660               250.7354
 Red. masses --      3.9901                 3.0770                 1.8359
 Frc consts  --      0.0345                 0.0622                 0.0680
 IR Inten    --      1.5542                 4.2248                 8.3780

                      4                      5                      6
                      A                      A                      A
 Frequencies --    277.1387               352.0547               386.5485
 Red. masses --      1.3222                 2.8793                 2.5222
 Frc consts  --      0.0598                 0.2103                 0.2220
 IR Inten    --     74.1571                13.5353                 8.5362

                      7                      8                      9
                      A                      A                      A
 Frequencies --    444.6669               485.9501               554.5806
 Red. masses --      3.3407                 3.4973                 4.4021
 Frc consts  --      0.3892                 0.4866                 0.7977
 IR Inten    --      0.9863                 9.6148                 2.2018

                     10                     11                     12
                      A                      A                      A
 Frequencies --    652.2940               707.0526               828.5395
 Red. masses --      2.3224                 4.2045                 2.4600
 Frc consts  --      0.5822                 1.2384                 0.9950
 IR Inten    --      1.4545                 7.6457                12.1378

                     13                     14                     15
                      A                      A                      A
 Frequencies --    836.0590               839.8113               881.5700
 Red. masses --      2.1974                 1.9585                 3.1254
 Frc consts  --      0.9050                 0.8138                 1.4311
 IR Inten    --      4.4221                 7.6057                 6.3135

                     16                     17                     18
                      A                      A                      A
 Frequencies --    892.5521               930.1345               955.7897
 Red. masses --      2.0388                 2.4072                 2.2126
 Frc consts  --      0.9569                 1.2270                 1.1909
 IR Inten    --      1.0775                11.3638                 3.6457

                     19                     20                     21
                      A                      A                      A
 Frequencies --    961.8454              1000.3649              1025.3612
 Red. masses --      2.3146                 1.5242                 1.6561
 Frc consts  --      1.2617                 0.8987                 1.0259
 IR Inten    --     42.7606                 3.9853                 5.8111

                     22                     23                     24
                      A                      A                      A
 Frequencies --   1043.6757              1063.3517              1082.1322
 Red. masses --      1.8726                 1.8779                 1.6444
 Frc consts  --      1.2018                 1.2511                 1.1345
 IR Inten    --      5.4773                 7.7639                 4.2736

                     25                     26                     27
                      A                      A                      A
 Frequencies --   1089.1471              1130.2954              1175.0622
 Red. masses --      1.7580                 3.6766                 1.7593
 Frc consts  --      1.2287                 2.7674                 1.4313
 IR Inten    --     25.1019                77.0168                21.2884

                     28                     29                     30
                      A                      A                      A
 Frequencies --   1210.8107              1231.6419              1233.8400
 Red. masses --      1.5362                 1.4917                 1.4803
 Frc consts  --      1.3269                 1.3332                 1.3277
 IR Inten    --      5.1878                30.8298                13.4679

                     31                     32                     33
                      A                      A                      A
 Frequencies --   1257.4612              1278.6950              1291.7933
 Red. masses --      1.7297                 1.6958                 1.4763
 Frc consts  --      1.6114                 1.6336                 1.4514
 IR Inten    --     23.4318                 5.8743                32.0677

                     34                     35                     36
                      A                      A                      A
 Frequencies --   1311.1995              1337.6387              1357.5330
 Red. masses --      1.5690                 1.3959                 1.5152
 Frc consts  --      1.5893                 1.4716                 1.6452
 IR Inten    --     35.9708                 8.1591                14.2349

                     37                     38                     39
                      A                      A                      A
 Frequencies --   1394.7336              1399.2154              1479.2525
 Red. masses --      1.5371                 1.7644                 1.0998
 Frc consts  --      1.7617                 2.0352                 1.4179
 IR Inten    --     24.1254                 6.7958                 4.1301

                     40                     41                     42
                      A                      A                      A
 Frequencies --   1494.1073              1520.9263              3003.8232
 Red. masses --      1.4340                 1.0929                 1.0696
 Frc consts  --      1.8861                 1.4896                 5.6860
 IR Inten    --     11.0799                 0.6857                46.4779

                     43                     44                     45
                      A                      A                      A
 Frequencies --   3051.3760              3062.5532              3072.7775
 Red. masses --      1.0749                 1.0737                 1.0868
 Frc consts  --      5.8965                 5.9333                 6.0459
 IR Inten    --      6.2555                46.4112                57.6706

                     46                     47                     48
                      A                      A                      A
 Frequencies --   3094.2298              3095.0166              3112.3981
 Red. masses --      1.0794                 1.0717                 1.1051
 Frc consts  --      6.0887                 6.0486                 6.3073
 IR Inten    --     56.6131                 7.3265                23.4039

                     49                     50                     51
                      A                      A                      A
 Frequencies --   3189.7109              3198.8546              3791.8921
 Red. masses --      1.0994                 1.1056                 1.0661
 Frc consts  --      6.5903                 6.6654                 9.0318
 IR Inten    --      4.1388                12.7266                24.1457

 - Thermochemistry -
 -------------------
 Temperature   298.150 Kelvin.  Pressure   1.00000 Atm.
 Atom     1 has atomic number  8 and mass  15.99491

 Molecular mass:   126.06808 amu.
 Principal axes and moments of inertia in atomic units:
                           1         2         3
     Eigenvalues --   619.701801083.820031361.11523
           X            0.99799   0.06313  -0.00575
           Y           -0.06311   0.99800   0.00284
           Z            0.00592  -0.00248   0.99998
 This molecule is an asymmetric top.
 Rotational symmetry number  1.
 Warning -- assumption of classical behavior for rotation
           may cause significant error
 Rotational temperatures (Kelvin)      0.13977     0.07992     0.06363
 Rotational constants (GHZ):           2.91227     1.66517     1.32593
 Zero-point vibrational energy     422428.5 (Joules/Mol)
                                  100.96283 (Kcal/Mol)
 Warning -- explicit consideration of   9 degrees of freedom as
           vibrations may cause significant error
 Vibrational temperatures:    174.34   266.41   360.75   398.74   506.53
          (Kelvin)            556.16   639.78   699.17   797.92   938.50
                             1017.29  1192.08  1202.90  1208.30  1268.38
                             1284.18  1338.25  1375.17  1383.88  1439.30
                             1475.26  1501.61  1529.92  1556.94  1567.04
                             1626.24  1690.65  1742.08  1772.06  1775.22
                             1809.20  1839.75  1858.60  1886.52  1924.56
                             1953.18  2006.71  2013.16  2128.31  2149.68
                             2188.27  4321.83  4390.24  4406.33  4421.04
                             4451.90  4453.03  4478.04  4589.28  4602.43
                             5455.68

 Zero-point correction=                           0.160895 (Hartree/Particle)
 Thermal correction to Energy=                    0.168376
 Thermal correction to Enthalpy=                  0.169320
 Thermal correction to Gibbs Free Energy=         0.129260
 Sum of electronic and zero-point Energies=           -423.000702
 Sum of electronic and thermal Energies=              -422.993220
 Sum of electronic and thermal Enthalpies=            -422.992276
 Sum of electronic and thermal Free Energies=         -423.032336

                     E (Thermal)             CV                S
                      KCal/Mol        Cal/Mol-Kelvin    Cal/Mol-Kelvin
 Total                  105.657             30.272             84.313
 Electronic               0.000              0.000              0.000
 Translational            0.889              2.981             40.409
 Rotational               0.889              2.981             28.304
 Vibrational            103.880             24.311             15.600
 Vibration     1          0.609              1.932              3.082
 Vibration     2          0.631              1.860              2.276
 Vibration     3          0.663              1.762              1.725
 Vibration     4          0.678              1.716              1.551
 Vibration     5          0.729              1.571              1.157
 Vibration     6          0.755              1.499              1.013
 Vibration     7          0.804              1.373              0.812
 Vibration     8          0.842              1.281              0.694
 Vibration     9          0.910              1.130              0.535

 Optimization completed.
    -- Stationary point found.
 Normal termination of Gaussian 09 at Mon Jan 27 18:26:49 2020.
