 Gaussian 09, Revision D.01,
 Gaussian 09:  ES64L-G09RevD.01 24-Apr-2013

 -----------------------------
 # b3lyp 6-31G(2df,p) opt Freq
 -----------------------------

 -----
 titel
 -----
 Symbolic Z-matrix:
 Charge =  0 Multiplicity = 1

 SCF Done:  E(RB3LYP) =  -423.181379574     A.U. after   12 cycles
 Optimization completed.
    -- Stationary point found.
 Normal termination of Gaussian 09 at Mon Jan 27 18:07:54 2020.

 ----------------------------------------------------------------------
 #N Geom=AllCheck Guess=TCheck SCRF=Check GenChk RB3LYP/6-31G(2df,p) Fr
 eq
 ----------------------------------------------------------------------

 Structure from the checkpoint file:  "/scratch/puck/g09_c1bd8453-54c2-400f-b1bb-f37cdbf55ea9/Gau-53025.chk"
 -----
 titel
 -----
 Charge =  0 Multiplicity = 1

                         Standard orientation:
 ---------------------------------------------------------------------
 Center     Atomic      Atomic             Coordinates (Angstroms)
 Number     Number       Type             X           Y           Z
 ---------------------------------------------------------------------
      1          6           0       -2.413745   -0.139566   -0.050487
      2          6           0       -0.903683   -0.026215    0.023197
      3          6           0       -0.223081   -0.781735    1.192932
      4          6           0        1.188144   -0.949693    0.655562
      5          6           0        1.024754   -0.815106   -0.851321
      6          8           0       -0.335583   -0.629675   -1.157911
      7          6           0        1.665574    0.296216   -0.067005
      8          8           0        0.998306    1.512015    0.135696
      9          6           0       -0.423525    1.430965    0.027760
     10          1           0       -2.705372   -1.188712   -0.147335
     11          1           0       -2.876644    0.269429    0.852423
     12          1           0       -2.802143    0.405252   -0.916055
     13          1           0       -0.271281   -0.204601    2.121389
     14          1           0       -0.698665   -1.753635    1.359817
     15          1           0        1.883399   -1.637072    1.122486
     16          1           0        1.551277   -1.400361   -1.595425
     17          1           0        2.731520    0.466115   -0.169725
     18          1           0       -0.850988    1.986294    0.872511
     19          1           0       -0.749512    1.909372   -0.906188
 ---------------------------------------------------------------------

 SCF Done:  E(RB3LYP) =  -423.181379574     A.U. after    1 cycles

 The electronic state is 1-A.
 Alpha  occ. eigenvalues --  -19.14261 -19.14191 -10.24148 -10.23214 -10.22994
 Alpha  occ. eigenvalues --  -10.22579 -10.18874 -10.18540 -10.18158  -1.06379
 Alpha  occ. eigenvalues --   -1.01777  -0.84131  -0.79622  -0.70544  -0.68453
 Alpha  occ. eigenvalues --   -0.61993  -0.57703  -0.54264  -0.50985  -0.48750
 Alpha  occ. eigenvalues --   -0.47435  -0.45633  -0.42445  -0.41322  -0.40326
 Alpha  occ. eigenvalues --   -0.38966  -0.37777  -0.36813  -0.34926  -0.33836
 Alpha  occ. eigenvalues --   -0.31976  -0.31299  -0.23552  -0.21784
 Alpha virt. eigenvalues --    0.07948   0.09951   0.10877   0.12408   0.13983
 Alpha virt. eigenvalues --    0.14367   0.15191   0.16521   0.16963   0.17627
 Alpha virt. eigenvalues --    0.18141   0.18847   0.19552   0.20721   0.21816

 Mulliken charges:
               1
     1  C   -0.461567
     2  C    0.296723
     3  C   -0.251824
     4  C   -0.161309
     5  C    0.046082
     6  O   -0.286643
     7  C    0.085442
     8  O   -0.277859
     9  C   -0.068923
    10  H    0.128688
    11  H    0.120521
    12  H    0.128037
    13  H    0.108934
    14  H    0.103565
    15  H    0.087555
    16  H    0.101093
    17  H    0.103799
    18  H    0.096991
    19  H    0.100696
 Sum of Mulliken charges =   0.00000

 Dipole moment (field-independent basis, Debye):
    X=             -0.4087    Y=             -0.8326    Z=              0.9461  Tot=              1.3249
 Quadrupole moment (field-independent basis, Debye-Ang):
   XX=            -49.2819   YY=            -54.6009   ZZ=            -54.1629
   XY=             -3.8862   XZ=             -2.0934   YZ=             -0.9931

  Exact polarizability:  82.011  -4.000  70.292  -1.743  -1.156  66.579
 Approx polarizability: 109.800  -2.507 105.153  -0.751   0.735 105.236

                      1                      2                      3
                      A                      A                      A
 Frequencies --    160.3237               199.6893               269.5766
 Red. masses --      2.9743                 1.0559                 2.6584
 Frc consts  --      0.0450                 0.0248                 0.1138
 IR Inten    --      4.9696                 0.4908                 0.5538

                      4                      5                      6
                      A                      A                      A
 Frequencies --    294.2751               392.1799               425.6867
 Red. masses --      2.5140                 2.1763                 3.4839
 Frc consts  --      0.1283                 0.1972                 0.3720
 IR Inten    --      2.0454                 1.1713                 1.5505

                      7                      8                      9
                      A                      A                      A
 Frequencies --    522.0695               539.4814               602.8489
 Red. masses --      3.8328                 3.9336                 4.3386
 Frc consts  --      0.6155                 0.6745                 0.9290
 IR Inten    --      2.2912                 1.6700                 2.6436

                     10                     11                     12
                      A                      A                      A
 Frequencies --    699.4864               710.4520               760.0947
 Red. masses --      5.0079                 5.9203                 2.0243
 Frc consts  --      1.4437                 1.7606                 0.6891
 IR Inten    --     11.3222                 0.5702                15.0570

                     13                     14                     15
                      A                      A                      A
 Frequencies --    775.7318               836.7423               871.8849
 Red. masses --      2.2064                 2.6337                 2.2631
 Frc consts  --      0.7823                 1.0864                 1.0136
 IR Inten    --     31.5252                 8.5852                14.2368

                     16                     17                     18
                      A                      A                      A
 Frequencies --    912.0897               936.4679               958.3535
 Red. masses --      1.9505                 3.3130                 2.2050
 Frc consts  --      0.9560                 1.7118                 1.1932
 IR Inten    --      1.9371                 6.0989                15.4993

                     19                     20                     21
                      A                      A                      A
 Frequencies --   1001.5958              1022.5663              1027.7885
 Red. masses --      1.4058                 2.1312                 1.5788
 Frc consts  --      0.8309                 1.3130                 0.9826
 IR Inten    --      1.7311                14.7789                 7.8327

                     22                     23                     24
                      A                      A                      A
 Frequencies --   1065.2531              1076.4954              1084.5945
 Red. masses --      1.6521                 2.1888                 1.3994
 Frc consts  --      1.1046                 1.4944                 0.9699
 IR Inten    --     29.9071                12.0872                 5.8551

                     25                     26                     27
                      A                      A                      A
 Frequencies --   1124.3132              1152.9587              1175.5334
 Red. masses --      3.4363                 1.7501                 1.8714
 Frc consts  --      2.5593                 1.3707                 1.5237
 IR Inten    --     16.0093                 2.7520                 6.4042

                     28                     29                     30
                      A                      A                      A
 Frequencies --   1196.2624              1221.0160              1263.4495
 Red. masses --      2.2658                 2.3659                 1.3094
 Frc consts  --      1.9104                 2.0782                 1.2315
 IR Inten    --     99.0029                 8.1479                18.7608

                     31                     32                     33
                      A                      A                      A
 Frequencies --   1278.1305              1302.6248              1321.4305
 Red. masses --      2.1311                 1.9325                 1.4913
 Frc consts  --      2.0512                 1.9320                 1.5343
 IR Inten    --     22.6730                 3.0783                 0.9765

                     34                     35                     36
                      A                      A                      A
 Frequencies --   1341.4758              1402.4455              1413.1962
 Red. masses --      1.4435                 1.7289                 1.2829
 Frc consts  --      1.5305                 2.0036                 1.5096
 IR Inten    --     10.2443                 3.9992                 8.5766

                     37                     38                     39
                      A                      A                      A
 Frequencies --   1438.9950              1482.7107              1490.8964
 Red. masses --      2.0095                 1.0674                 1.1112
 Frc consts  --      2.4516                 1.3826                 1.4552
 IR Inten    --     10.1182                 0.9567                 6.0803

                     40                     41                     42
                      A                      A                      A
 Frequencies --   1497.9817              1508.3795              3000.7703
 Red. masses --      1.0612                 1.0869                 1.0574
 Frc consts  --      1.4030                 1.4570                 5.6101
 IR Inten    --      2.7516                 0.8218                62.2199

                     43                     44                     45
                      A                      A                      A
 Frequencies --   3042.7730              3043.0788              3047.7078
 Red. masses --      1.0441                 1.0992                 1.0567
 Frc consts  --      5.6957                 5.9973                 5.7832
 IR Inten    --     10.0894                22.0438                47.5190

                     46                     47                     48
                      A                      A                      A
 Frequencies --   3093.4510              3116.8031              3122.7127
 Red. masses --      1.1057                 1.1016                 1.1019
 Frc consts  --      6.2343                 6.3054                 6.3309
 IR Inten    --     17.5819                17.9411                17.5578

                     49                     50                     51
                      A                      A                      A
 Frequencies --   3172.2597              3177.9119              3190.7329
 Red. masses --      1.0896                 1.0900                 1.0958
 Frc consts  --      6.4605                 6.4857                 6.5729
 IR Inten    --      9.9034                12.8735                30.7749

 - Thermochemistry -
 -------------------
 Temperature   298.150 Kelvin.  Pressure   1.00000 Atm.
 Atom     1 has atomic number  6 and mass  12.00000

 Molecular mass:   126.06808 amu.
 Principal axes and moments of inertia in atomic units:
                           1         2         3
     Eigenvalues --   636.26323 957.557671122.27571
           X            0.99865  -0.05039  -0.01285
           Y            0.04966   0.99741  -0.05200
           Z            0.01544   0.05129   0.99856
 This molecule is an asymmetric top.
 Rotational symmetry number  1.
 Warning -- assumption of classical behavior for rotation
           may cause significant error
 Rotational temperatures (Kelvin)      0.13613     0.09045     0.07718
 Rotational constants (GHZ):           2.83647     1.88473     1.60811
 Zero-point vibrational energy     423273.1 (Joules/Mol)
                                  101.16469 (Kcal/Mol)
 Warning -- explicit consideration of   9 degrees of freedom as
           vibrations may cause significant error
 Vibrational temperatures:    230.67   287.31   387.86   423.40   564.26
          (Kelvin)            612.47   751.14   776.19   867.36  1006.40
                             1022.18  1093.61  1116.10  1203.88  1254.45
                             1312.29  1347.37  1378.86  1441.07  1471.24
                             1478.76  1532.66  1548.83  1560.49  1617.63
                             1658.85  1691.33  1721.15  1756.77  1817.82
                             1838.94  1874.18  1901.24  1930.08  2017.80
                             2033.27  2070.39  2133.29  2145.06  2155.26
                             2170.22  4317.43  4377.87  4378.31  4384.97
                             4450.78  4484.38  4492.88  4564.17  4572.30
                             4590.75

 Zero-point correction=                           0.161216 (Hartree/Particle)
 Thermal correction to Energy=                    0.168333
 Thermal correction to Enthalpy=                  0.169277
 Thermal correction to Gibbs Free Energy=         0.130153
 Sum of electronic and zero-point Energies=           -423.020163
 Sum of electronic and thermal Energies=              -423.013047
 Sum of electronic and thermal Enthalpies=            -423.012103
 Sum of electronic and thermal Free Energies=         -423.051226

                     E (Thermal)             CV                S
                      KCal/Mol        Cal/Mol-Kelvin    Cal/Mol-Kelvin
 Total                  105.630             29.384             82.342
 Electronic               0.000              0.000              0.000
 Translational            0.889              2.981             40.409
 Rotational               0.889              2.981             28.016
 Vibrational            103.853             23.422             13.918
 Vibration     1          0.622              1.891              2.546
 Vibration     2          0.638              1.840              2.136
 Vibration     3          0.674              1.729              1.599
 Vibration     4          0.689              1.684              1.449
 Vibration     5          0.760              1.487              0.992
 Vibration     6          0.788              1.414              0.873
 Vibration     7          0.877              1.201              0.605
 Vibration     8          0.895              1.163              0.566
 Vibration     9          0.961              1.026              0.445

 Normal termination of Gaussian 09 at Mon Jan 27 18:54:56 2020.
