 Gaussian 09, Revision D.01,
 Gaussian 09:  ES64L-G09RevD.01 24-Apr-2013

 -----------------------------
 # b3lyp 6-31G(2df,p) opt Freq
 -----------------------------

 -----
 titel
 -----
 Symbolic Z-matrix:
 Charge =  0 Multiplicity = 1

 SCF Done:  E(RB3LYP) =  -423.159185834     A.U. after   14 cycles
 Optimization completed.
    -- Stationary point found.
 Normal termination of Gaussian 09 at Tue Jan 28 14:24:38 2020.

 ----------------------------------------------------------------------
 #N Geom=AllCheck Guess=TCheck SCRF=Check GenChk RB3LYP/6-31G(2df,p) Fr
 eq
 ----------------------------------------------------------------------

 Structure from the checkpoint file:  "/scratch/puck/g09_3183e633-2d89-4c4d-9ada-24d8306d188b/Gau-164030.chk"
 -----
 titel
 -----
 Charge =  0 Multiplicity = 1

                         Standard orientation:
 ---------------------------------------------------------------------
 Center     Atomic      Atomic             Coordinates (Angstroms)
 Number     Number       Type             X           Y           Z
 ---------------------------------------------------------------------
      1          8           0        4.444183    0.846626    0.246410
      2          6           0        3.527805   -0.082039   -0.305886
      3          6           0        2.091651    0.151724    0.164569
      4          6           0        1.116421   -0.906965   -0.388345
      5          6           0       -0.263648   -0.685208    0.027347
      6          6           0       -1.390462   -0.480892    0.400455
      7          6           0       -2.770730   -0.222831    0.785009
      8          6           0       -3.649009    0.133049   -0.416529
      9          8           0       -4.512035    0.967175   -0.388789
     10          1           0        4.197371    1.724331   -0.062261
     11          1           0        3.567145   -0.079466   -1.408134
     12          1           0        3.874443   -1.068664    0.022587
     13          1           0        2.066741    0.144531    1.259017
     14          1           0        1.756818    1.147331   -0.153908
     15          1           0        1.168457   -0.914964   -1.485584
     16          1           0        1.441177   -1.905226   -0.065368
     17          1           0       -3.212996   -1.121648    1.242560
     18          1           0       -2.857736    0.582846    1.521417
     19          1           0       -3.430770   -0.460500   -1.331007
 ---------------------------------------------------------------------

 SCF Done:  E(RB3LYP) =  -423.159185834     A.U. after    1 cycles

 The electronic state is 1-A.
 Alpha  occ. eigenvalues --  -19.14850 -19.13878 -10.28173 -10.23297 -10.22144
 Alpha  occ. eigenvalues --  -10.21611 -10.19339 -10.18460 -10.18182  -1.05641
 Alpha  occ. eigenvalues --   -1.02025  -0.81606  -0.79401  -0.72945  -0.67718
 Alpha  occ. eigenvalues --   -0.61405  -0.59212  -0.51940  -0.50676  -0.48060
 Alpha  occ. eigenvalues --   -0.47221  -0.45417  -0.44684  -0.43573  -0.42374
 Alpha  occ. eigenvalues --   -0.41568  -0.37957  -0.37464  -0.36268  -0.32890
 Alpha  occ. eigenvalues --   -0.28177  -0.27651  -0.25726  -0.24795
 Alpha virt. eigenvalues --   -0.02867   0.04363   0.05232   0.07325   0.09254
 Alpha virt. eigenvalues --    0.11546   0.12571   0.13359   0.13695   0.15525
 Alpha virt. eigenvalues --    0.17472   0.18096   0.19146   0.20086   0.21423

 Mulliken charges:
               1
     1  O   -0.418002
     2  C   -0.057005
     3  C   -0.190304
     4  C   -0.357088
     5  C    0.037573
     6  C    0.091914
     7  C   -0.413662
     8  C    0.172029
     9  O   -0.230900
    10  H    0.282123
    11  H    0.086879
    12  H    0.113364
    13  H    0.121055
    14  H    0.101030
    15  H    0.130218
    16  H    0.132440
    17  H    0.153321
    18  H    0.153081
    19  H    0.091931
 Sum of Mulliken charges =   0.00000

 Dipole moment (field-independent basis, Debye):
    X=              1.0448    Y=             -1.1144    Z=             -0.5354  Tot=              1.6187
 Quadrupole moment (field-independent basis, Debye-Ang):
   XX=            -71.9619   YY=            -50.8720   ZZ=            -52.1803
   XY=              7.9544   XZ=             -6.7403   YZ=             -0.2678

  Exact polarizability: 117.433  -6.984  66.362  -5.574   2.185  65.008
 Approx polarizability: 151.874 -17.150 101.220 -12.118   3.354  96.824

                      1                      2                      3
                      A                      A                      A
 Frequencies --     14.5491                49.0893                69.7091
 Red. masses --      4.1448                 3.4914                 2.7462
 Frc consts  --      0.0005                 0.0050                 0.0079
 IR Inten    --      2.1649                 5.3051                 1.0703

                      4                      5                      6
                      A                      A                      A
 Frequencies --     83.8202               122.0035               135.4923
 Red. masses --      2.7800                 3.0349                 2.5876
 Frc consts  --      0.0115                 0.0266                 0.0280
 IR Inten    --      2.2349                 5.5227                 1.4737

                      7                      8                      9
                      A                      A                      A
 Frequencies --    221.6646               260.0687               306.7421
 Red. masses --      3.0239                 3.8347                 1.1506
 Frc consts  --      0.0875                 0.1528                 0.0638
 IR Inten    --     11.2654                 3.3753               111.3630

                     10                     11                     12
                      A                      A                      A
 Frequencies --    337.8043               391.4808               458.7766
 Red. masses --      3.7791                 4.9655                 3.9521
 Frc consts  --      0.2541                 0.4484                 0.4901
 IR Inten    --      5.0088                11.8136                20.4798

                     13                     14                     15
                      A                      A                      A
 Frequencies --    497.0850               535.3022               720.7154
 Red. masses --      5.3095                 4.8232                 1.6999
 Frc consts  --      0.7730                 0.8143                 0.5202
 IR Inten    --      0.6717                 3.1882                 1.1210

                     16                     17                     18
                      A                      A                      A
 Frequencies --    751.3441               823.5777               853.4547
 Red. masses --      1.1003                 3.0250                 1.2470
 Frc consts  --      0.3660                 1.2089                 0.5351
 IR Inten    --      2.2814                 1.3801                 2.0945

                     19                     20                     21
                      A                      A                      A
 Frequencies --   1016.4646              1033.6164              1036.7185
 Red. masses --      3.3575                 3.2540                 3.5507
 Frc consts  --      2.0439                 2.0483                 2.2484
 IR Inten    --     11.0065                44.6418                23.2886

                     22                     23                     24
                      A                      A                      A
 Frequencies --   1044.0964              1080.4476              1101.0953
 Red. masses --      1.8733                 3.1242                 1.9581
 Frc consts  --      1.2032                 2.1488                 1.3988
 IR Inten    --      3.2890               104.0895                 4.3605

                     25                     26                     27
                      A                      A                      A
 Frequencies --   1161.4698              1165.4566              1212.6541
 Red. masses --      1.2338                 2.3262                 1.1888
 Frc consts  --      0.9806                 1.8616                 1.0300
 IR Inten    --      8.9873                 1.3340                 3.7369

                     28                     29                     30
                      A                      A                      A
 Frequencies --   1263.8842              1292.7188              1294.2423
 Red. masses --      1.2950                 1.6153                 1.2335
 Frc consts  --      1.2188                 1.5904                 1.2174
 IR Inten    --      3.0424                11.3217                 7.3671

                     31                     32                     33
                      A                      A                      A
 Frequencies --   1316.9110              1367.2974              1399.3526
 Red. masses --      1.0878                 1.4669                 1.2993
 Frc consts  --      1.1115                 1.6157                 1.4990
 IR Inten    --      5.4302                 8.7762                 7.0539

                     34                     35                     36
                      A                      A                      A
 Frequencies --   1415.2182              1425.8012              1442.4785
 Red. masses --      1.1693                 1.2849                 1.0992
 Frc consts  --      1.3798                 1.5389                 1.3475
 IR Inten    --      8.2978                50.0687                 6.5007

                     37                     38                     39
                      A                      A                      A
 Frequencies --   1473.6966              1492.8520              1515.5486
 Red. masses --      1.0839                 1.0841                 1.0943
 Frc consts  --      1.3869                 1.4235                 1.4809
 IR Inten    --      2.4327                 1.5242                 0.4884

                     40                     41                     42
                      A                      A                      A
 Frequencies --   1840.9552              2369.0622              2898.9047
 Red. masses --     10.2800                11.8432                 1.0849
 Frc consts  --     20.5272                39.1628                 5.3715
 IR Inten    --    210.0582                 2.8801                82.6631

                     43                     44                     45
                      A                      A                      A
 Frequencies --   2965.3309              2998.5111              3011.1674
 Red. masses --      1.0707                 1.0672                 1.0580
 Frc consts  --      5.5469                 5.6534                 5.6522
 IR Inten    --     57.3915                16.5355                19.3752

                     46                     47                     48
                      A                      A                      A
 Frequencies --   3028.5929              3040.4930              3060.6957
 Red. masses --      1.0708                 1.0945                 1.0873
 Frc consts  --      5.7871                 5.9613                 6.0013
 IR Inten    --     16.4130                10.3639                27.1335

                     49                     50                     51
                      A                      A                      A
 Frequencies --   3078.0450              3091.9532              3815.0608
 Red. masses --      1.0912                 1.1021                 1.0661
 Frc consts  --      6.0915                 6.2076                 9.1426
 IR Inten    --      5.3591                41.4151                17.2883

 - Thermochemistry -
 -------------------
 Temperature   298.150 Kelvin.  Pressure   1.00000 Atm.
 Atom     1 has atomic number  8 and mass  15.99491

 Molecular mass:   126.06808 amu.
 Principal axes and moments of inertia in atomic units:
                           1         2         3
     Eigenvalues --   311.305024464.974904566.02403
           X            0.99997   0.00439  -0.00684
           Y           -0.00402   0.99851   0.05438
           Z            0.00707  -0.05435   0.99850
 This molecule is an asymmetric top.
 Rotational symmetry number  1.
 Rotational temperatures (Kelvin)      0.27823     0.01940     0.01897
 Rotational constants (GHZ):           5.79734     0.40420     0.39525
 Zero-point vibrational energy     409024.0 (Joules/Mol)
                                   97.75908 (Kcal/Mol)
 Warning -- explicit consideration of  14 degrees of freedom as
           vibrations may cause significant error
 Vibrational temperatures:     20.93    70.63   100.30   120.60   175.54
          (Kelvin)            194.94   318.93   374.18   441.33   486.02
                              563.25   660.08   715.19   770.18  1036.95
                             1081.02  1184.94  1227.93  1462.46  1487.14
                             1491.60  1502.22  1554.52  1584.23  1671.09
                             1676.83  1744.74  1818.45  1859.93  1862.12
                             1894.74  1967.23  2013.35  2036.18  2051.41
                             2075.40  2120.32  2147.88  2180.53  2648.72
                             3408.55  4170.87  4266.44  4314.18  4332.39
                             4357.46  4374.59  4403.65  4428.61  4448.63
                             5489.01

 Zero-point correction=                           0.155789 (Hartree/Particle)
 Thermal correction to Energy=                    0.166748
 Thermal correction to Enthalpy=                  0.167693
 Thermal correction to Gibbs Free Energy=         0.116573
 Sum of electronic and zero-point Energies=           -423.003397
 Sum of electronic and thermal Energies=              -422.992437
 Sum of electronic and thermal Enthalpies=            -422.991493
 Sum of electronic and thermal Free Energies=         -423.042613

                     E (Thermal)             CV                S
                      KCal/Mol        Cal/Mol-Kelvin    Cal/Mol-Kelvin
 Total                  104.636             36.463            107.591
 Electronic               0.000              0.000              0.000
 Translational            0.889              2.981             40.409
 Rotational               0.889              2.981             30.230
 Vibrational            102.859             30.501             36.953
 Vibration     1          0.593              1.986              7.266
 Vibration     2          0.595              1.978              4.854
 Vibration     3          0.598              1.969              4.162
 Vibration     4          0.601              1.960              3.799
 Vibration     5          0.610              1.931              3.068
 Vibration     6          0.613              1.918              2.867
 Vibration     7          0.648              1.808              1.945
 Vibration     8          0.668              1.746              1.661
 Vibration     9          0.697              1.661              1.380
 Vibration    10          0.718              1.600              1.223
 Vibration    11          0.759              1.488              0.994
 Vibration    12          0.817              1.341              0.770
 Vibration    13          0.853              1.256              0.665
 Vibration    14          0.890              1.172              0.575

 Optimization completed on the basis of negligible forces.
    -- Stationary point found.
 Normal termination of Gaussian 09 at Tue Jan 28 14:56:37 2020.
