 Gaussian 09, Revision D.01,
 Gaussian 09:  ES64L-G09RevD.01 24-Apr-2013

 -----------------------------
 # b3lyp 6-31G(2df,p) opt Freq
 -----------------------------

 -----
 titel
 -----
 Symbolic Z-matrix:
 Charge =  0 Multiplicity = 1

 SCF Done:  E(RB3LYP) =  -423.098229543     A.U. after   13 cycles
 Optimization completed.
    -- Stationary point found.
 Normal termination of Gaussian 09 at Mon Jan 27 22:04:47 2020.

 ----------------------------------------------------------------------
 #N Geom=AllCheck Guess=TCheck SCRF=Check GenChk RB3LYP/6-31G(2df,p) Fr
 eq
 ----------------------------------------------------------------------

 Structure from the checkpoint file:  "/scratch/puck/g09_9ff7df39-cb00-451c-a463-d54891dc6c63/Gau-15113.chk"
 -----
 titel
 -----
 Charge =  0 Multiplicity = 1

                         Standard orientation:
 ---------------------------------------------------------------------
 Center     Atomic      Atomic             Coordinates (Angstroms)
 Number     Number       Type             X           Y           Z
 ---------------------------------------------------------------------
      1          6           0        2.470261   -0.062981    0.130924
      2          6           0        0.971158   -0.026742    0.145696
      3          6           0        0.013098    1.125417    0.476635
      4          8           0        0.107257    2.200928   -0.434841
      5          6           0       -0.977391   -0.012967    0.143243
      6          6           0       -2.477259   -0.035650    0.124847
      7          6           0       -0.011960   -1.075835    0.762831
      8          8           0       -0.016797   -1.942966   -0.411270
      9          6           0       -0.005813   -0.584179   -0.946142
     10          1           0        2.883899    0.148500    1.123049
     11          1           0        2.819384   -1.052237   -0.182169
     12          1           0        2.870096    0.681475   -0.564859
     13          1           0        0.017378    1.476536    1.519273
     14          1           0       -0.586689    2.835219   -0.230880
     15          1           0       -2.894549    0.178690    1.115156
     16          1           0       -2.874372    0.707667   -0.575558
     17          1           0       -2.834802   -1.021653   -0.189454
     18          1           0       -0.014453   -1.534066    1.752192
     19          1           0       -0.002132   -0.446206   -2.026063
 ---------------------------------------------------------------------

 SCF Done:  E(RB3LYP) =  -423.098229543     A.U. after    1 cycles

 The electronic state is 1-A.
 Alpha  occ. eigenvalues --  -19.14061 -19.12479 -10.24117 -10.23845 -10.23377
 Alpha  occ. eigenvalues --  -10.19988 -10.19925 -10.18186 -10.17628  -1.05774
 Alpha  occ. eigenvalues --   -1.02125  -0.85977  -0.74793  -0.71052  -0.65132
 Alpha  occ. eigenvalues --   -0.63735  -0.57068  -0.52244  -0.51426  -0.47443
 Alpha  occ. eigenvalues --   -0.45508  -0.44252  -0.42386  -0.41653  -0.40043
 Alpha  occ. eigenvalues --   -0.38998  -0.37553  -0.36675  -0.33015  -0.31002
 Alpha  occ. eigenvalues --   -0.29478  -0.28659  -0.26354  -0.22623
 Alpha virt. eigenvalues --    0.06961   0.09592   0.11511   0.11862   0.12126
 Alpha virt. eigenvalues --    0.12995   0.13319   0.14820   0.15418   0.16618
 Alpha virt. eigenvalues --    0.16826   0.17310   0.18568   0.21205   0.22012

 Mulliken charges:
               1
     1  C   -0.533745
     2  C    0.295946
     3  C   -0.001769
     4  O   -0.441908
     5  C    0.268565
     6  C   -0.536295
     7  C   -0.012392
     8  O   -0.334391
     9  C    0.003997
    10  H    0.118512
    11  H    0.134063
    12  H    0.133788
    13  H    0.059309
    14  H    0.285268
    15  H    0.118471
    16  H    0.119859
    17  H    0.139350
    18  H    0.087241
    19  H    0.096129
 Sum of Mulliken charges =   0.00000

 Dipole moment (field-independent basis, Debye):
    X=             -0.9770    Y=              1.8450    Z=              1.3217  Tot=              2.4709
 Quadrupole moment (field-independent basis, Debye-Ang):
   XX=            -51.0437   YY=            -56.3524   ZZ=            -50.8864
   XY=             -3.3729   XZ=              0.2502   YZ=             -0.2371

  Exact polarizability:  83.646  -1.333  74.162   0.005  -0.704  68.767
 Approx polarizability: 108.240  -1.434 112.612  -0.644  -1.305 109.749

                      1                      2                      3
                      A                      A                      A
 Frequencies --    170.1875               189.6918               194.8174
 Red. masses --      3.1657                 2.8704                 2.4209
 Frc consts  --      0.0540                 0.0609                 0.0541
 IR Inten    --      0.4244                 2.3754                 0.8824

                      4                      5                      6
                      A                      A                      A
 Frequencies --    221.4267               225.1464               244.5212
 Red. masses --      1.1979                 1.1161                 1.8399
 Frc consts  --      0.0346                 0.0333                 0.0648
 IR Inten    --      0.1822                 1.4008                11.8015

                      7                      8                      9
                      A                      A                      A
 Frequencies --    266.4305               296.5806               396.8166
 Red. masses --      1.2692                 3.8853                 2.7023
 Frc consts  --      0.0531                 0.2014                 0.2507
 IR Inten    --     94.4732                 6.0836                 2.9721

                     10                     11                     12
                      A                      A                      A
 Frequencies --    559.5897               587.6589               603.4404
 Red. masses --      5.8892                 3.8714                 3.0212
 Frc consts  --      1.0865                 0.7877                 0.6482
 IR Inten    --      4.6409                 2.7098                 1.7310

                     13                     14                     15
                      A                      A                      A
 Frequencies --    722.4600               749.3902               790.5662
 Red. masses --      2.7892                 3.3451                 3.5629
 Frc consts  --      0.8578                 1.1068                 1.3120
 IR Inten    --      3.3263                 1.8413                 5.0773

                     16                     17                     18
                      A                      A                      A
 Frequencies --    832.7696               848.7521               880.7517
 Red. masses --      4.2726                 2.2658                 2.3274
 Frc consts  --      1.7458                 0.9617                 1.0637
 IR Inten    --      3.5901                 2.0171                13.4221

                     19                     20                     21
                      A                      A                      A
 Frequencies --    902.5920               934.4100              1009.0646
 Red. masses --      3.1081                 2.4475                 1.3130
 Frc consts  --      1.4919                 1.2591                 0.7877
 IR Inten    --     50.5692                 3.6162                 0.4534

                     22                     23                     24
                      A                      A                      A
 Frequencies --   1064.5970              1077.9063              1096.1634
 Red. masses --      1.5314                 3.1216                 1.4536
 Frc consts  --      1.0226                 2.1369                 1.0291
 IR Inten    --      0.6260                10.7418                13.9202

                     25                     26                     27
                      A                      A                      A
 Frequencies --   1110.2260              1139.3834              1154.9663
 Red. masses --      4.9505                 2.0167                 2.1775
 Frc consts  --      3.5952                 1.5425                 1.7114
 IR Inten    --    100.3588                 1.1107                 0.8207

                     28                     29                     30
                      A                      A                      A
 Frequencies --   1167.2751              1170.5541              1233.7373
 Red. masses --      1.4540                 1.5548                 2.1333
 Frc consts  --      1.1673                 1.2552                 1.9132
 IR Inten    --      2.8487                 2.4308                40.2677

                     31                     32                     33
                      A                      A                      A
 Frequencies --   1259.2021              1288.3052              1343.0715
 Red. masses --      1.6921                 2.0381                 1.9678
 Frc consts  --      1.5807                 1.9931                 2.0914
 IR Inten    --     34.8732                 4.5811                24.4410

                     34                     35                     36
                      A                      A                      A
 Frequencies --   1374.7617              1403.5584              1409.0827
 Red. masses --      1.6773                 1.3565                 1.5216
 Frc consts  --      1.8678                 1.5744                 1.7800
 IR Inten    --      3.2658                 5.4880                 2.4489

                     37                     38                     39
                      A                      A                      A
 Frequencies --   1463.1878              1488.0698              1489.7837
 Red. masses --      2.4712                 1.0459                 1.0489
 Frc consts  --      3.1171                 1.3646                 1.3716
 IR Inten    --      1.2859                 2.1798                 4.2929

                     40                     41                     42
                      A                      A                      A
 Frequencies --   1491.0777              1493.6944              2992.3814
 Red. masses --      1.0471                 1.0631                 1.0842
 Frc consts  --      1.3716                 1.3975                 5.7201
 IR Inten    --      5.3619                 9.6819                67.0911

                     43                     44                     45
                      A                      A                      A
 Frequencies --   3025.9443              3031.7497              3088.9341
 Red. masses --      1.0351                 1.0349                 1.1008
 Frc consts  --      5.5840                 5.6047                 6.1883
 IR Inten    --     34.0939                24.6134                20.3000

                     46                     47                     48
                      A                      A                      A
 Frequencies --   3097.6257              3101.6283              3107.8826
 Red. masses --      1.1004                 1.1004                 1.1013
 Frc consts  --      6.2212                 6.2372                 6.2671
 IR Inten    --     16.9072                12.3280                13.0241

                     49                     50                     51
                      A                      A                      A
 Frequencies --   3114.5769              3135.6455              3823.2935
 Red. masses --      1.0910                 1.0936                 1.0663
 Frc consts  --      6.2357                 6.3355                 9.1831
 IR Inten    --     50.2046                19.6413                24.1470

 - Thermochemistry -
 -------------------
 Temperature   298.150 Kelvin.  Pressure   1.00000 Atm.
 Atom     1 has atomic number  6 and mass  12.00000

 Molecular mass:   126.06808 amu.
 Principal axes and moments of inertia in atomic units:
                           1         2         3
     Eigenvalues --   810.49952 927.644641453.09116
           X            0.99841  -0.05635   0.00112
           Y            0.05635   0.99841  -0.00143
           Z           -0.00103   0.00149   1.00000
 This molecule is an asymmetric top.
 Rotational symmetry number  1.
 Warning -- assumption of classical behavior for rotation
           may cause significant error
 Rotational temperatures (Kelvin)      0.10686     0.09337     0.05961
 Rotational constants (GHZ):           2.22670     1.94551     1.24200
 Zero-point vibrational energy     411906.1 (Joules/Mol)
                                   98.44793 (Kcal/Mol)
 Warning -- explicit consideration of  12 degrees of freedom as
           vibrations may cause significant error
 Vibrational temperatures:    244.86   272.92   280.30   318.58   323.94
          (Kelvin)            351.81   383.33   426.71   570.93   805.12
                              845.51   868.22  1039.46  1078.20  1137.45
                             1198.17  1221.16  1267.20  1298.63  1344.41
                             1451.82  1531.72  1550.86  1577.13  1597.37
                             1639.32  1661.74  1679.45  1684.16  1775.07
                             1811.71  1853.58  1932.38  1977.97  2019.40
                             2027.35  2105.20  2141.00  2143.46  2145.33
                             2149.09  4305.36  4353.65  4362.01  4444.28
                             4456.79  4462.55  4471.54  4481.18  4511.49
                             5500.86

 Zero-point correction=                           0.156887 (Hartree/Particle)
 Thermal correction to Energy=                    0.165619
 Thermal correction to Enthalpy=                  0.166563
 Thermal correction to Gibbs Free Energy=         0.124210
 Sum of electronic and zero-point Energies=           -422.941343
 Sum of electronic and thermal Energies=              -422.932610
 Sum of electronic and thermal Enthalpies=            -422.931666
 Sum of electronic and thermal Free Energies=         -422.974020

                     E (Thermal)             CV                S
                      KCal/Mol        Cal/Mol-Kelvin    Cal/Mol-Kelvin
 Total                  103.928             33.682             89.140
 Electronic               0.000              0.000              0.000
 Translational            0.889              2.981             40.409
 Rotational               0.889              2.981             28.482
 Vibrational            102.150             27.721             20.250
 Vibration     1          0.625              1.879              2.433
 Vibration     2          0.633              1.854              2.231
 Vibration     3          0.635              1.847              2.182
 Vibration     4          0.648              1.808              1.947
 Vibration     5          0.650              1.803              1.917
 Vibration     6          0.660              1.772              1.770
 Vibration     7          0.672              1.735              1.619
 Vibration     8          0.690              1.680              1.436
 Vibration     9          0.763              1.477              0.974
 Vibration    10          0.915              1.119              0.525
 Vibration    11          0.945              1.058              0.471
 Vibration    12          0.962              1.025              0.444

 Normal termination of Gaussian 09 at Mon Jan 27 22:55:19 2020.
