 Gaussian 09, Revision D.01,
 Gaussian 09:  ES64L-G09RevD.01 24-Apr-2013

 -----------------------------
 # b3lyp 6-31G(2df,p) opt Freq
 -----------------------------

 -----
 titel
 -----
 Symbolic Z-matrix:
 Charge =  0 Multiplicity = 1

 SCF Done:  E(RB3LYP) =  -423.150996778     A.U. after   13 cycles
 Optimization completed.
    -- Stationary point found.
 Normal termination of Gaussian 09 at Mon Jan 27 11:19:00 2020.

 ----------------------------------------------------------------------
 #N Geom=AllCheck Guess=TCheck SCRF=Check GenChk RB3LYP/6-31G(2df,p) Fr
 eq
 ----------------------------------------------------------------------

 Structure from the checkpoint file:  "/scratch/puck/g09_d1b8c20b-9153-4be7-b5f2-7d00036d47e2/Gau-32436.chk"
 -----
 titel
 -----
 Charge =  0 Multiplicity = 1

                         Standard orientation:
 ---------------------------------------------------------------------
 Center     Atomic      Atomic             Coordinates (Angstroms)
 Number     Number       Type             X           Y           Z
 ---------------------------------------------------------------------
      1          6           0       -2.133771   -0.897564    0.452654
      2          6           0       -1.669132    0.155350   -0.508517
      3          8           0       -1.213503    1.353053    0.049234
      4          6           0        0.171885    1.571731   -0.203184
      5          6           0        0.994450    0.565743    0.602664
      6          8           0        2.265444    0.261947   -0.013076
      7          6           0        1.801761   -1.046170   -0.410812
      8          6           0        0.502691   -0.896571    0.414757
      9          6           0       -0.824235   -1.080789   -0.286333
     10          1           0       -2.088109   -0.633086    1.503926
     11          1           0       -2.973094   -1.525591    0.174904
     12          1           0       -2.187211    0.281193   -1.458444
     13          1           0        0.404312    1.463474   -1.272207
     14          1           0        0.384239    2.602217    0.092238
     15          1           0        1.119496    0.900712    1.637953
     16          1           0        1.645923   -1.113586   -1.496589
     17          1           0        2.492896   -1.837492   -0.100906
     18          1           0        0.550774   -1.468067    1.345017
     19          1           0       -0.826646   -1.820152   -1.082532
 ---------------------------------------------------------------------

 SCF Done:  E(RB3LYP) =  -423.150996778     A.U. after    1 cycles

 The electronic state is 1-A.
 Alpha  occ. eigenvalues --  -19.14650 -19.13218 -10.23640 -10.23198 -10.23136
 Alpha  occ. eigenvalues --  -10.22589 -10.19785 -10.19735 -10.18745  -1.04722
 Alpha  occ. eigenvalues --   -1.03283  -0.85583  -0.76224  -0.72316  -0.64923
 Alpha  occ. eigenvalues --   -0.60643  -0.59510  -0.52908  -0.52072  -0.50268
 Alpha  occ. eigenvalues --   -0.49756  -0.45325  -0.44156  -0.42305  -0.40789
 Alpha  occ. eigenvalues --   -0.39850  -0.36994  -0.35844  -0.33897  -0.31377
 Alpha  occ. eigenvalues --   -0.29354  -0.27461  -0.26397  -0.23709
 Alpha virt. eigenvalues --    0.07166   0.08505   0.09268   0.10507   0.12661
 Alpha virt. eigenvalues --    0.13630   0.13945   0.15203   0.15959   0.16877
 Alpha virt. eigenvalues --    0.17326   0.19068   0.20177   0.20905   0.23398

 Mulliken charges:
               1
     1  C   -0.321571
     2  C    0.107482
     3  O   -0.252945
     4  C   -0.104982
     5  C    0.108454
     6  O   -0.292043
     7  C   -0.094728
     8  C   -0.064520
     9  C   -0.079773
    10  H    0.121544
    11  H    0.112572
    12  H    0.088216
    13  H    0.098558
    14  H    0.111935
    15  H    0.081030
    16  H    0.096853
    17  H    0.105963
    18  H    0.086679
    19  H    0.091277
 Sum of Mulliken charges =   0.00000

 Dipole moment (field-independent basis, Debye):
    X=             -0.7320    Y=             -1.6323    Z=             -0.3320  Tot=              1.8195
 Quadrupole moment (field-independent basis, Debye-Ang):
   XX=            -58.5305   YY=            -52.1491   ZZ=            -50.7744
   XY=              0.8011   XZ=              1.3525   YZ=              0.5049

  Exact polarizability:  80.806   1.211  74.317  -0.515   1.279  66.159
 Approx polarizability: 109.449   0.657 107.458  -2.199   3.083 101.333

                      1                      2                      3
                      A                      A                      A
 Frequencies --     92.0310               185.4289               240.7257
 Red. masses --      3.1408                 2.7680                 2.7111
 Frc consts  --      0.0157                 0.0561                 0.0926
 IR Inten    --      1.2693                 2.4795                 6.2691

                      4                      5                      6
                      A                      A                      A
 Frequencies --    346.8294               374.7602               450.9382
 Red. masses --      3.0072                 3.0735                 4.4208
 Frc consts  --      0.2131                 0.2543                 0.5296
 IR Inten    --      0.5632                 7.5430                 2.5118

                      7                      8                      9
                      A                      A                      A
 Frequencies --    472.3307               486.1088               698.7250
 Red. masses --      3.6294                 4.3880                 2.3099
 Frc consts  --      0.4771                 0.6109                 0.6644
 IR Inten    --      0.3515                 1.1148                 3.0498

                     10                     11                     12
                      A                      A                      A
 Frequencies --    726.5093               796.2066               818.5154
 Red. masses --      2.3009                 2.7277                 2.4106
 Frc consts  --      0.7155                 1.0188                 0.9515
 IR Inten    --      0.4067                13.6221                 3.2661

                     13                     14                     15
                      A                      A                      A
 Frequencies --    829.8069               895.2516               941.5500
 Red. masses --      1.7368                 2.2343                 1.4783
 Frc consts  --      0.7046                 1.0551                 0.7721
 IR Inten    --     13.3016                 2.4281                 0.5745

                     16                     17                     18
                      A                      A                      A
 Frequencies --    956.9294               986.0312              1017.5503
 Red. masses --      2.9434                 2.8580                 2.3287
 Frc consts  --      1.5880                 1.6372                 1.4206
 IR Inten    --     11.3780                13.7916                 6.0802

                     19                     20                     21
                      A                      A                      A
 Frequencies --   1025.8045              1040.0655              1055.9491
 Red. masses --      6.3587                 3.1730                 1.4308
 Frc consts  --      3.9423                 2.0223                 0.9400
 IR Inten    --     87.9226                41.0788                 6.0069

                     22                     23                     24
                      A                      A                      A
 Frequencies --   1084.8200              1091.5753              1118.3932
 Red. masses --      2.1401                 2.4357                 1.5021
 Frc consts  --      1.4839                 1.7099                 1.1069
 IR Inten    --     10.7289                10.5673                 0.9455

                     25                     26                     27
                      A                      A                      A
 Frequencies --   1132.9918              1162.9705              1171.9583
 Red. masses --      2.0154                 1.3558                 1.6388
 Frc consts  --      1.5243                 1.0804                 1.3262
 IR Inten    --      2.6961                 2.5810                 4.1397

                     28                     29                     30
                      A                      A                      A
 Frequencies --   1179.1523              1230.0986              1248.7869
 Red. masses --      1.6672                 1.6125                 1.7425
 Frc consts  --      1.3657                 1.4376                 1.6010
 IR Inten    --     34.7736                12.5694                10.8409

                     31                     32                     33
                      A                      A                      A
 Frequencies --   1269.9341              1282.2418              1328.2320
 Red. masses --      1.2525                 1.2946                 1.2706
 Frc consts  --      1.1901                 1.2541                 1.3207
 IR Inten    --      5.5244                 9.9376                 4.5778

                     34                     35                     36
                      A                      A                      A
 Frequencies --   1343.2669              1367.7945              1384.1719
 Red. masses --      1.2693                 1.5240                 1.4377
 Frc consts  --      1.3494                 1.6799                 1.6230
 IR Inten    --      5.2441                 4.8938                13.7721

                     37                     38                     39
                      A                      A                      A
 Frequencies --   1391.1866              1409.4277              1479.1836
 Red. masses --      1.6355                 1.6390                 1.3353
 Frc consts  --      1.8649                 1.9183                 1.7214
 IR Inten    --      0.7718                 2.9493                 7.1016

                     40                     41                     42
                      A                      A                      A
 Frequencies --   1500.6025              1523.8133              3002.0745
 Red. masses --      1.0997                 1.1008                 1.0629
 Frc consts  --      1.4590                 1.5060                 5.6438
 IR Inten    --      3.8612                 1.7089                44.8626

                     43                     44                     45
                      A                      A                      A
 Frequencies --   3007.8590              3044.2433              3057.0520
 Red. masses --      1.0660                 1.0861                 1.0973
 Frc consts  --      5.6825                 5.9303                 6.0420
 IR Inten    --     54.0196                25.8972                17.7926

                     46                     47                     48
                      A                      A                      A
 Frequencies --   3075.3832              3101.4584              3107.0277
 Red. masses --      1.0925                 1.0976                 1.0880
 Frc consts  --      6.0877                 6.2206                 6.1882
 IR Inten    --     66.0053                42.9640                31.1183

                     49                     50                     51
                      A                      A                      A
 Frequencies --   3132.3281              3142.8891              3222.0111
 Red. masses --      1.0550                 1.0891                 1.1169
 Frc consts  --      6.0988                 6.3385                 6.8318
 IR Inten    --     10.7075                15.8913                 9.1288

 - Thermochemistry -
 -------------------
 Temperature   298.150 Kelvin.  Pressure   1.00000 Atm.
 Atom     1 has atomic number  6 and mass  12.00000

 Molecular mass:   126.06808 amu.
 Principal axes and moments of inertia in atomic units:
                           1         2         3
     Eigenvalues --   581.733511126.214401496.56637
           X            0.99990   0.01403  -0.00072
           Y           -0.01403   0.99990   0.00083
           Z            0.00073  -0.00082   1.00000
 This molecule is an asymmetric top.
 Rotational symmetry number  1.
 Warning -- assumption of classical behavior for rotation
           may cause significant error
 Rotational temperatures (Kelvin)      0.14889     0.07691     0.05788
 Rotational constants (GHZ):           3.10235     1.60248     1.20592
 Zero-point vibrational energy     424859.6 (Joules/Mol)
                                  101.54388 (Kcal/Mol)
 Warning -- explicit consideration of   8 degrees of freedom as
           vibrations may cause significant error
 Vibrational temperatures:    132.41   266.79   346.35   499.01   539.20
          (Kelvin)            648.80   679.58   699.40  1005.31  1045.28
                             1145.56  1177.66  1193.91  1288.07  1354.68
                             1376.81  1418.68  1464.03  1475.90  1496.42
                             1519.27  1560.81  1570.53  1609.12  1630.12
                             1673.25  1686.18  1696.54  1769.84  1796.72
                             1827.15  1844.86  1911.03  1932.66  1967.95
                             1991.51  2001.60  2027.85  2128.21  2159.03
                             2192.42  4319.31  4327.63  4379.98  4398.41
                             4424.78  4462.30  4470.31  4506.72  4521.91
                             4635.75

 Zero-point correction=                           0.161820 (Hartree/Particle)
 Thermal correction to Energy=                    0.168952
 Thermal correction to Enthalpy=                  0.169897
 Thermal correction to Gibbs Free Energy=         0.130191
 Sum of electronic and zero-point Energies=           -422.989176
 Sum of electronic and thermal Energies=              -422.982044
 Sum of electronic and thermal Enthalpies=            -422.981100
 Sum of electronic and thermal Free Energies=         -423.020806

                     E (Thermal)             CV                S
                      KCal/Mol        Cal/Mol-Kelvin    Cal/Mol-Kelvin
 Total                  106.019             28.620             83.567
 Electronic               0.000              0.000              0.000
 Translational            0.889              2.981             40.409
 Rotational               0.889              2.981             28.374
 Vibrational            104.242             22.659             14.785
 Vibration     1          0.602              1.955              3.616
 Vibration     2          0.632              1.860              2.273
 Vibration     3          0.658              1.778              1.798
 Vibration     4          0.725              1.582              1.181
 Vibration     5          0.746              1.524              1.060
 Vibration     6          0.810              1.359              0.793
 Vibration     7          0.829              1.311              0.731
 Vibration     8          0.842              1.281              0.694

 Optimization completed.
    -- Stationary point found.
 Normal termination of Gaussian 09 at Mon Jan 27 12:06:08 2020.
