 Gaussian 09, Revision D.01,
 Gaussian 09:  ES64L-G09RevD.01 24-Apr-2013

 -----------------------------
 # b3lyp 6-31G(2df,p) opt Freq
 -----------------------------

 -----
 titel
 -----
 Symbolic Z-matrix:
 Charge =  0 Multiplicity = 1

 SCF Done:  E(RB3LYP) =  -423.161116961     A.U. after   14 cycles
 Optimization completed.
    -- Stationary point found.
 Normal termination of Gaussian 09 at Mon Jan 27 22:13:21 2020.

 ----------------------------------------------------------------------
 #N Geom=AllCheck Guess=TCheck SCRF=Check GenChk RB3LYP/6-31G(2df,p) Fr
 eq
 ----------------------------------------------------------------------

 Structure from the checkpoint file:  "/scratch/puck/g09_e41e15b5-1518-4f16-878f-4b110ccde969/Gau-28693.chk"
 -----
 titel
 -----
 Charge =  0 Multiplicity = 1

                         Standard orientation:
 ---------------------------------------------------------------------
 Center     Atomic      Atomic             Coordinates (Angstroms)
 Number     Number       Type             X           Y           Z
 ---------------------------------------------------------------------
      1          6           0        2.645597   -1.193094   -0.127893
      2          6           0        1.349664   -0.713630    0.491442
      3          6           0        0.139637   -0.618997   -0.418475
      4          6           0       -1.111242   -0.288726    0.418469
      5          6           0       -0.398225    1.036264    0.891913
      6          6           0        0.837324    0.641624    0.080543
      7          8           0        1.584791    1.537887   -0.661385
      8          6           0       -2.336088   -0.007865   -0.408487
      9          8           0       -3.420495   -0.499227   -0.227396
     10          1           0        2.681435   -2.286508   -0.163273
     11          1           0        2.760849   -0.813740   -1.146644
     12          1           0        3.510303   -0.852747    0.453342
     13          1           0        1.187634   -1.042262    1.518764
     14          1           0        0.139218   -1.074749   -1.401714
     15          1           0       -1.362899   -1.008076    1.202182
     16          1           0       -0.883665    1.924769    0.477765
     17          1           0       -0.278901    1.163207    1.972446
     18          1           0        2.336735    1.825938   -0.131505
     19          1           0       -2.165085    0.721438   -1.236183
 ---------------------------------------------------------------------

 SCF Done:  E(RB3LYP) =  -423.161116961     A.U. after    1 cycles

 The electronic state is 1-A.
 Alpha  occ. eigenvalues --  -19.15851 -19.13540 -10.26631 -10.24841 -10.20238
 Alpha  occ. eigenvalues --  -10.20192 -10.20085 -10.19858 -10.18692  -1.04472
 Alpha  occ. eigenvalues --   -1.04214  -0.90209  -0.77612  -0.70303  -0.67698
 Alpha  occ. eigenvalues --   -0.59675  -0.58046  -0.55330  -0.51815  -0.49353
 Alpha  occ. eigenvalues --   -0.45558  -0.45109  -0.43850  -0.41432  -0.39921
 Alpha  occ. eigenvalues --   -0.39465  -0.38378  -0.38000  -0.36614  -0.33643
 Alpha  occ. eigenvalues --   -0.31712  -0.27251  -0.26107  -0.24246
 Alpha virt. eigenvalues --   -0.02009   0.06447   0.09987   0.10559   0.11511
 Alpha virt. eigenvalues --    0.11918   0.13358   0.13929   0.15216   0.16500
 Alpha virt. eigenvalues --    0.16552   0.17455   0.18790   0.20815   0.22662

 Mulliken charges:
               1
     1  C   -0.432660
     2  C   -0.075994
     3  C   -0.136110
     4  C   -0.083122
     5  C   -0.333258
     6  C    0.398251
     7  O   -0.458676
     8  C    0.155184
     9  O   -0.257728
    10  H    0.124420
    11  H    0.133346
    12  H    0.114156
    13  H    0.078196
    14  H    0.099418
    15  H    0.088552
    16  H    0.118342
    17  H    0.102808
    18  H    0.288991
    19  H    0.075885
 Sum of Mulliken charges =   0.00000

 Dipole moment (field-independent basis, Debye):
    X=              3.5695    Y=              0.6209    Z=              1.0982  Tot=              3.7859
 Quadrupole moment (field-independent basis, Debye-Ang):
   XX=            -61.9285   YY=            -52.6163   ZZ=            -52.6928
   XY=             -2.0289   XZ=              1.7243   YZ=              2.2631

  Exact polarizability:  95.624   0.504  71.381   1.149  -0.580  65.573
 Approx polarizability: 127.438   9.003 108.383   1.862  -2.484 101.636

                      1                      2                      3
                      A                      A                      A
 Frequencies --     73.2802                97.0289               173.7939
 Red. masses --      5.0684                 4.7588                 1.1932
 Frc consts  --      0.0160                 0.0264                 0.0212
 IR Inten    --      4.3539                 1.6076                11.5177

                      4                      5                      6
                      A                      A                      A
 Frequencies --    201.7573               224.5259               246.7883
 Red. masses --      2.0799                 1.9898                 1.3114
 Frc consts  --      0.0499                 0.0591                 0.0471
 IR Inten    --      4.5400                 1.0415                94.7026

                      7                      8                      9
                      A                      A                      A
 Frequencies --    325.1981               361.9930               383.2451
 Red. masses --      2.2723                 3.2352                 3.0556
 Frc consts  --      0.1416                 0.2498                 0.2644
 IR Inten    --      0.8376                 4.4749                 5.6529

                     10                     11                     12
                      A                      A                      A
 Frequencies --    404.9849               420.3421               542.1055
 Red. masses --      4.2125                 2.8505                 3.4223
 Frc consts  --      0.4071                 0.2967                 0.5926
 IR Inten    --      6.2602                 3.2813                 9.3772

                     13                     14                     15
                      A                      A                      A
 Frequencies --    678.5308               739.3587               812.9280
 Red. masses --      3.9943                 2.8122                 2.9558
 Frc consts  --      1.0835                 0.9058                 1.1509
 IR Inten    --      2.0332                 4.3386                 3.8634

                     16                     17                     18
                      A                      A                      A
 Frequencies --    848.2764               917.3982               935.6576
 Red. masses --      2.1322                 1.7186                 1.8443
 Frc consts  --      0.9040                 0.8522                 0.9513
 IR Inten    --     18.1817                14.9446                 3.6380

                     19                     20                     21
                      A                      A                      A
 Frequencies --    976.1995               987.1574              1018.5281
 Red. masses --      2.0662                 1.5284                 1.9908
 Frc consts  --      1.1601                 0.8775                 1.2168
 IR Inten    --      5.1269                 1.3807                19.7051

                     22                     23                     24
                      A                      A                      A
 Frequencies --   1047.0711              1065.2824              1102.4242
 Red. masses --      1.9403                 1.7396                 2.2428
 Frc consts  --      1.2534                 1.1632                 1.6060
 IR Inten    --     28.4745                 3.6720                11.1946

                     25                     26                     27
                      A                      A                      A
 Frequencies --   1122.7862              1145.0692              1172.8176
 Red. masses --      1.7339                 1.7261                 2.0211
 Frc consts  --      1.2879                 1.3334                 1.6379
 IR Inten    --      1.2077                 0.2882                29.9476

                     28                     29                     30
                      A                      A                      A
 Frequencies --   1204.9590              1225.3569              1231.1025
 Red. masses --      1.6463                 1.3540                 1.5367
 Frc consts  --      1.4083                 1.1978                 1.3723
 IR Inten    --      4.3260                16.2312                25.0898

                     31                     32                     33
                      A                      A                      A
 Frequencies --   1259.4465              1284.3203              1319.3295
 Red. masses --      1.6685                 1.5419                 1.4639
 Frc consts  --      1.5593                 1.4985                 1.5013
 IR Inten    --      4.2911                60.8399                30.9981

                     34                     35                     36
                      A                      A                      A
 Frequencies --   1373.0819              1418.4168              1428.2354
 Red. masses --      1.8096                 1.3432                 1.3743
 Frc consts  --      2.0102                 1.5922                 1.6517
 IR Inten    --      9.6359                 1.1703                 7.4644

                     37                     38                     39
                      A                      A                      A
 Frequencies --   1439.3010              1486.4330              1494.8111
 Red. masses --      2.0137                 1.1541                 1.0507
 Frc consts  --      2.4579                 1.5024                 1.3832
 IR Inten    --     17.2941                 1.3609                 3.7868

                     40                     41                     42
                      A                      A                      A
 Frequencies --   1507.2978              1830.7831              2849.1360
 Red. masses --      1.1239                10.2251                 1.0816
 Frc consts  --      1.5045                20.1925                 5.1728
 IR Inten    --      9.8571               224.7174                89.5152

                     43                     44                     45
                      A                      A                      A
 Frequencies --   3032.6337              3045.4201              3079.1925
 Red. masses --      1.0377                 1.0583                 1.0869
 Frc consts  --      5.6231                 5.7829                 6.0715
 IR Inten    --     36.8263                35.3747                16.0473

                     46                     47                     48
                      A                      A                      A
 Frequencies --   3088.1475              3092.0292              3102.9993
 Red. masses --      1.0893                 1.0984                 1.1063
 Frc consts  --      6.1209                 6.1870                 6.2763
 IR Inten    --     13.1402                23.7070                22.3569

                     49                     50                     51
                      A                      A                      A
 Frequencies --   3121.4429              3183.5553              3789.1148
 Red. masses --      1.1000                 1.0924                 1.0662
 Frc consts  --      6.3146                 6.5231                 9.0193
 IR Inten    --     23.0797                 7.8693                23.2380

 - Thermochemistry -
 -------------------
 Temperature   298.150 Kelvin.  Pressure   1.00000 Atm.
 Atom     1 has atomic number  6 and mass  12.00000

 Molecular mass:   126.06808 amu.
 Principal axes and moments of inertia in atomic units:
                           1         2         3
     Eigenvalues --   524.199101804.503542045.05523
           X            0.99955  -0.02978  -0.00191
           Y            0.02982   0.99924   0.02511
           Z            0.00116  -0.02515   0.99968
 This molecule is an asymmetric top.
 Rotational symmetry number  1.
 Warning -- assumption of classical behavior for rotation
           may cause significant error
 Rotational temperatures (Kelvin)      0.16523     0.04800     0.04235
 Rotational constants (GHZ):           3.44285     1.00013     0.88249
 Zero-point vibrational energy     412179.8 (Joules/Mol)
                                   98.51333 (Kcal/Mol)
 Warning -- explicit consideration of  12 degrees of freedom as
           vibrations may cause significant error
 Vibrational temperatures:    105.43   139.60   250.05   290.28   323.04
          (Kelvin)            355.07   467.89   520.83   551.40   582.68
                              604.78   779.97   976.25  1063.77  1169.62
                             1220.48  1319.93  1346.20  1404.53  1420.30
                             1465.43  1506.50  1532.70  1586.14  1615.44
                             1647.50  1687.42  1733.67  1763.01  1771.28
                             1812.06  1847.85  1898.22  1975.56  2040.78
                             2054.91  2070.83  2138.64  2150.70  2168.66
                             2634.09  4099.27  4363.28  4381.67  4430.27
                             4443.15  4448.73  4464.52  4491.05  4580.42
                             5451.68

 Zero-point correction=                           0.156991 (Hartree/Particle)
 Thermal correction to Energy=                    0.166223
 Thermal correction to Enthalpy=                  0.167167
 Thermal correction to Gibbs Free Energy=         0.122876
 Sum of electronic and zero-point Energies=           -423.004126
 Sum of electronic and thermal Energies=              -422.994894
 Sum of electronic and thermal Enthalpies=            -422.993950
 Sum of electronic and thermal Free Energies=         -423.038241

                     E (Thermal)             CV                S
                      KCal/Mol        Cal/Mol-Kelvin    Cal/Mol-Kelvin
 Total                  104.306             34.142             93.218
 Electronic               0.000              0.000              0.000
 Translational            0.889              2.981             40.409
 Rotational               0.889              2.981             29.049
 Vibrational            102.529             28.180             23.760
 Vibration     1          0.599              1.967              4.063
 Vibration     2          0.603              1.951              3.513
 Vibration     3          0.627              1.875              2.394
 Vibration     4          0.639              1.837              2.117
 Vibration     5          0.649              1.804              1.922
 Vibration     6          0.661              1.768              1.753
 Vibration     7          0.709              1.625              1.284
 Vibration     8          0.736              1.551              1.114
 Vibration     9          0.752              1.506              1.026
 Vibration    10          0.770              1.459              0.945
 Vibration    11          0.783              1.426              0.891
 Vibration    12          0.897              1.157              0.561

 Normal termination of Gaussian 09 at Tue Jan 28 00:16:58 2020.
