 Gaussian 09, Revision D.01,
 Gaussian 09:  ES64L-G09RevD.01 24-Apr-2013

 -----------------------------
 # b3lyp 6-31G(2df,p) opt Freq
 -----------------------------

 -----
 titel
 -----
 Symbolic Z-matrix:
 Charge =  0 Multiplicity = 1

 SCF Done:  E(RB3LYP) =  -423.143187360     A.U. after   13 cycles
 Optimization completed.
    -- Stationary point found.
 Normal termination of Gaussian 09 at Mon Jan 27 18:10:44 2020.

 ----------------------------------------------------------------------
 #N Geom=AllCheck Guess=TCheck SCRF=Check GenChk RB3LYP/6-31G(2df,p) Fr
 eq
 ----------------------------------------------------------------------

 Structure from the checkpoint file:  "/scratch/puck/g09_ea4043de-7c48-41ee-8327-d10dce8e2b36/Gau-68702.chk"
 -----
 titel
 -----
 Charge =  0 Multiplicity = 1

                         Standard orientation:
 ---------------------------------------------------------------------
 Center     Atomic      Atomic             Coordinates (Angstroms)
 Number     Number       Type             X           Y           Z
 ---------------------------------------------------------------------
      1          8           0       -1.395845    1.707186   -0.089980
      2          6           0       -0.996043    0.385583   -0.007768
      3          6           0       -1.855229   -0.908289   -0.006777
      4          6           0       -0.373575   -1.374931    0.000989
      5          6           0       -0.080499   -0.278550    1.075539
      6          6           0        1.349902    0.229272    1.182684
      7          8           0        2.089886   -0.034805    0.004329
      8          6           0        1.350103    0.235562   -1.174585
      9          6           0       -0.081317   -0.271965   -1.071517
     10          1           0       -1.925502    1.918604    0.686538
     11          1           0       -2.434094   -1.116575    0.898572
     12          1           0       -2.428084   -1.114582   -0.915060
     13          1           0       -0.012109   -2.400014    0.001390
     14          1           0       -0.546333   -0.429840    2.055694
     15          1           0        1.342132    1.310629    1.409500
     16          1           0        1.886245   -0.274739    1.993467
     17          1           0        1.345182    1.316318   -1.398477
     18          1           0        1.884609   -0.269695   -1.985520
     19          1           0       -0.544432   -0.419250   -2.052288
 ---------------------------------------------------------------------

 SCF Done:  E(RB3LYP) =  -423.143187360     A.U. after    1 cycles

 The electronic state is 1-A.
 Alpha  occ. eigenvalues --  -19.14979 -19.13152 -10.24527 -10.22165 -10.21992
 Alpha  occ. eigenvalues --  -10.20255 -10.19040 -10.19036 -10.18580  -1.03753
 Alpha  occ. eigenvalues --   -1.02596  -0.90751  -0.75086  -0.69897  -0.63574
 Alpha  occ. eigenvalues --   -0.62141  -0.61044  -0.53701  -0.50028  -0.48846
 Alpha  occ. eigenvalues --   -0.47385  -0.45264  -0.43768  -0.41490  -0.39714
 Alpha  occ. eigenvalues --   -0.38388  -0.36052  -0.34889  -0.32864  -0.31297
 Alpha  occ. eigenvalues --   -0.30159  -0.28746  -0.26026  -0.24113
 Alpha virt. eigenvalues --    0.07470   0.09992   0.11660   0.12855   0.13325
 Alpha virt. eigenvalues --    0.13979   0.14628   0.16015   0.16584   0.16993
 Alpha virt. eigenvalues --    0.17791   0.18269   0.18738   0.19364   0.22498

 Mulliken charges:
               1
     1  O   -0.477890
     2  C    0.387898
     3  C   -0.301208
     4  C   -0.069169
     5  C   -0.080899
     6  C   -0.114065
     7  O   -0.249234
     8  C   -0.120947
     9  C   -0.041813
    10  H    0.282941
    11  H    0.083847
    12  H    0.093271
    13  H    0.084853
    14  H    0.057684
    15  H    0.087998
    16  H    0.105772
    17  H    0.097992
    18  H    0.105949
    19  H    0.067018
 Sum of Mulliken charges =   0.00000

 Dipole moment (field-independent basis, Debye):
    X=             -1.6724    Y=             -0.3030    Z=              1.0669  Tot=              2.0067
 Quadrupole moment (field-independent basis, Debye-Ang):
   XX=            -55.9302   YY=            -53.8550   ZZ=            -49.2153
   XY=             -0.3194   XZ=             -2.5992   YZ=              2.6506

  Exact polarizability:  78.006   2.308  69.923  -0.989   0.997  76.575
 Approx polarizability: 108.102  -1.124 107.792  -1.418   0.541 113.852

                      1                      2                      3
                      A                      A                      A
 Frequencies --    170.9075               196.7483               243.7527
 Red. masses --      4.6958                 2.4707                 1.3733
 Frc consts  --      0.0808                 0.0563                 0.0481
 IR Inten    --      0.7505                 1.5187                57.0777

                      4                      5                      6
                      A                      A                      A
 Frequencies --    274.2119               397.7814               403.3704
 Red. masses --      1.7566                 2.5528                 3.1246
 Frc consts  --      0.0778                 0.2380                 0.2995
 IR Inten    --     47.3397                 3.6960                 1.1088

                      7                      8                      9
                      A                      A                      A
 Frequencies --    446.0624               520.5956               607.6999
 Red. masses --      2.5174                 5.3964                 4.2752
 Frc consts  --      0.2951                 0.8617                 0.9302
 IR Inten    --      3.6122                 7.9963                 0.3844

                     10                     11                     12
                      A                      A                      A
 Frequencies --    648.4292               765.6744               775.3995
 Red. masses --      4.2577                 3.3990                 3.3370
 Frc consts  --      1.0547                 1.1741                 1.1821
 IR Inten    --      6.6834                 3.9017                 5.1952

                     13                     14                     15
                      A                      A                      A
 Frequencies --    806.0978               864.1037               873.0083
 Red. masses --      3.3170                 2.2757                 3.5878
 Frc consts  --      1.2699                 1.0011                 1.6111
 IR Inten    --      3.5382                 3.0992                16.0179

                     16                     17                     18
                      A                      A                      A
 Frequencies --    929.0184               963.9516               976.5392
 Red. masses --      3.2453                 1.8295                 1.2187
 Frc consts  --      1.6502                 1.0016                 0.6847
 IR Inten    --      0.4710                10.9520                 3.5147

                     19                     20                     21
                      A                      A                      A
 Frequencies --   1002.9664              1016.2281              1066.3558
 Red. masses --      1.2306                 3.2524                 1.6684
 Frc consts  --      0.7294                 1.9789                 1.1178
 IR Inten    --      0.9821                 2.4610                22.1021

                     22                     23                     24
                      A                      A                      A
 Frequencies --   1073.8294              1092.7142              1104.0864
 Red. masses --      1.6901                 1.6170                 2.0654
 Frc consts  --      1.1482                 1.1376                 1.4834
 IR Inten    --     14.7426                11.4236                15.4336

                     25                     26                     27
                      A                      A                      A
 Frequencies --   1127.3568              1143.4054              1173.0824
 Red. masses --      1.5842                 1.6724                 4.0047
 Frc consts  --      1.1863                 1.2882                 3.2469
 IR Inten    --     20.6933                 1.3437                56.0567

                     28                     29                     30
                      A                      A                      A
 Frequencies --   1194.0901              1210.8287              1218.2267
 Red. masses --      1.6220                 1.6148                 1.7874
 Frc consts  --      1.3626                 1.3948                 1.5629
 IR Inten    --     13.5098                 3.7027                 2.5681

                     31                     32                     33
                      A                      A                      A
 Frequencies --   1264.5148              1290.0133              1312.1994
 Red. masses --      1.1624                 2.3838                 1.3905
 Frc consts  --      1.0951                 2.3373                 1.4106
 IR Inten    --     13.5594               147.8537                61.6587

                     34                     35                     36
                      A                      A                      A
 Frequencies --   1342.0812              1349.2226              1382.7756
 Red. masses --      1.6363                 1.7211                 1.2995
 Frc consts  --      1.7365                 1.8460                 1.4640
 IR Inten    --      0.9075                 3.3230                 2.5276

                     37                     38                     39
                      A                      A                      A
 Frequencies --   1409.6608              1438.3846              1498.0340
 Red. masses --      1.8097                 1.4555                 1.0790
 Frc consts  --      2.1188                 1.7742                 1.4266
 IR Inten    --     13.7957                 8.0036                 0.0088

                     40                     41                     42
                      A                      A                      A
 Frequencies --   1508.9826              1520.1524              2945.8322
 Red. masses --      1.0978                 1.2257                 1.0715
 Frc consts  --      1.4728                 1.6688                 5.4784
 IR Inten    --      1.6605                 8.1569                63.6574

                     43                     44                     45
                      A                      A                      A
 Frequencies --   2961.3297              3041.3922              3046.8833
 Red. masses --      1.0711                 1.0619                 1.0784
 Frc consts  --      5.5344                 5.7871                 5.8984
 IR Inten    --     69.9631                24.2237                58.3129

                     46                     47                     48
                      A                      A                      A
 Frequencies --   3058.8144              3067.0259              3073.3213
 Red. masses --      1.0871                 1.0891                 1.0901
 Frc consts  --      5.9925                 6.0359                 6.0662
 IR Inten    --     26.9783                69.1784                30.2405

                     49                     50                     51
                      A                      A                      A
 Frequencies --   3111.4192              3151.3139              3805.4758
 Red. masses --      1.1104                 1.0930                 1.0657
 Frc consts  --      6.3335                 6.3950                 9.0933
 IR Inten    --     38.0090                28.2835                27.2096

 - Thermochemistry -
 -------------------
 Temperature   298.150 Kelvin.  Pressure   1.00000 Atm.
 Atom     1 has atomic number  8 and mass  15.99491

 Molecular mass:   126.06808 amu.
 Principal axes and moments of inertia in atomic units:
                           1         2         3
     Eigenvalues --   655.816071109.303121167.96740
           X            0.99927   0.03762  -0.00630
           Y           -0.03704   0.99644   0.07568
           Z            0.00913  -0.07539   0.99711
 This molecule is an asymmetric top.
 Rotational symmetry number  1.
 Warning -- assumption of classical behavior for rotation
           may cause significant error
 Rotational temperatures (Kelvin)      0.13207     0.07808     0.07416
 Rotational constants (GHZ):           2.75190     1.62691     1.54520
 Zero-point vibrational energy     423868.9 (Joules/Mol)
                                  101.30711 (Kcal/Mol)
 Warning -- explicit consideration of   9 degrees of freedom as
           vibrations may cause significant error
 Vibrational temperatures:    245.90   283.08   350.71   394.53   572.32
          (Kelvin)            580.36   641.78   749.02   874.34   932.94
                             1101.63  1115.63  1159.79  1243.25  1256.06
                             1336.65  1386.91  1405.02  1443.04  1462.12
                             1534.25  1545.00  1572.17  1588.53  1622.01
                             1645.10  1687.80  1718.03  1742.11  1752.75
                             1819.35  1856.04  1887.96  1930.95  1941.23
                             1989.50  2028.18  2069.51  2155.33  2171.09
                             2187.16  4238.39  4260.69  4375.88  4383.78
                             4400.95  4412.76  4421.82  4476.63  4534.03
                             5475.22

 Zero-point correction=                           0.161443 (Hartree/Particle)
 Thermal correction to Energy=                    0.168665
 Thermal correction to Enthalpy=                  0.169609
 Thermal correction to Gibbs Free Energy=         0.130183
 Sum of electronic and zero-point Energies=           -422.981744
 Sum of electronic and thermal Energies=              -422.974523
 Sum of electronic and thermal Enthalpies=            -422.973578
 Sum of electronic and thermal Free Energies=         -423.013005

                     E (Thermal)             CV                S
                      KCal/Mol        Cal/Mol-Kelvin    Cal/Mol-Kelvin
 Total                  105.839             29.529             82.979
 Electronic               0.000              0.000              0.000
 Translational            0.889              2.981             40.409
 Rotational               0.889              2.981             28.232
 Vibrational            104.061             23.567             14.339
 Vibration     1          0.626              1.878              2.425
 Vibration     2          0.636              1.844              2.163
 Vibration     3          0.659              1.773              1.775
 Vibration     4          0.677              1.721              1.570
 Vibration     5          0.764              1.475              0.971
 Vibration     6          0.769              1.463              0.950
 Vibration     7          0.805              1.370              0.808
 Vibration     8          0.876              1.204              0.609
 Vibration     9          0.966              1.016              0.437

 Optimization completed.
    -- Stationary point found.
 Normal termination of Gaussian 09 at Mon Jan 27 19:00:43 2020.
