 Gaussian 09, Revision D.01,
 Gaussian 09:  ES64L-G09RevD.01 24-Apr-2013

 -----------------------------
 # b3lyp 6-31G(2df,p) opt Freq
 -----------------------------

 -----
 titel
 -----
 Symbolic Z-matrix:
 Charge =  0 Multiplicity = 1

 SCF Done:  E(RB3LYP) =  -423.136122197     A.U. after   13 cycles
 Optimization completed.
    -- Stationary point found.
 Normal termination of Gaussian 09 at Mon Jan 27 17:13:48 2020.

 ----------------------------------------------------------------------
 #N Geom=AllCheck Guess=TCheck SCRF=Check GenChk RB3LYP/6-31G(2df,p) Fr
 eq
 ----------------------------------------------------------------------

 Structure from the checkpoint file:  "/scratch/puck/g09_1c78508a-2c72-408c-8662-01b3ff92efc6/Gau-112276.chk"
 -----
 titel
 -----
 Charge =  0 Multiplicity = 1

                         Standard orientation:
 ---------------------------------------------------------------------
 Center     Atomic      Atomic             Coordinates (Angstroms)
 Number     Number       Type             X           Y           Z
 ---------------------------------------------------------------------
      1          6           0       -2.558568   -0.524889   -0.481008
      2          6           0       -1.161119   -0.442179    0.038157
      3          6           0       -0.041129   -1.502072   -0.055973
      4          6           0        0.965654   -0.333071    0.022541
      5          6           0        2.345803   -0.241339    0.487644
      6          8           0        2.017209   -0.187077   -0.914611
      7          6           0       -0.181366    0.669167    0.108361
      8          6           0       -0.193243    2.097886   -0.318361
      9          8           0       -0.929115    0.262078    1.273382
     10          1           0       -3.055786    0.445875   -0.405413
     11          1           0       -2.565138   -0.844488   -1.527927
     12          1           0       -3.143971   -1.249717    0.096077
     13          1           0       -0.026243   -2.242122    0.747638
     14          1           0        0.014353   -1.997994   -1.029105
     15          1           0        2.718498    0.688373    0.915044
     16          1           0        2.869731   -1.141923    0.804037
     17          1           0       -1.216371    2.477317   -0.383914
     18          1           0        0.352525    2.721541    0.398701
     19          1           0        0.291456    2.202101   -1.293469
 ---------------------------------------------------------------------

 SCF Done:  E(RB3LYP) =  -423.136122197     A.U. after    1 cycles

 The electronic state is 1-A.
 Alpha  occ. eigenvalues --  -19.15261 -19.14543 -10.24333 -10.24143 -10.23767
 Alpha  occ. eigenvalues --  -10.23247 -10.18887 -10.18881 -10.18715  -1.07993
 Alpha  occ. eigenvalues --   -1.06417  -0.79291  -0.75064  -0.73461  -0.66517
 Alpha  occ. eigenvalues --   -0.62568  -0.58182  -0.52122  -0.50211  -0.48820
 Alpha  occ. eigenvalues --   -0.45630  -0.44304  -0.43881  -0.41759  -0.40708
 Alpha  occ. eigenvalues --   -0.40312  -0.39130  -0.36627  -0.35493  -0.33381
 Alpha  occ. eigenvalues --   -0.31663  -0.28832  -0.26277  -0.24269
 Alpha virt. eigenvalues --    0.08263   0.08970   0.09531   0.11177   0.11595
 Alpha virt. eigenvalues --    0.13293   0.14132   0.14615   0.15084   0.15865
 Alpha virt. eigenvalues --    0.16519   0.18188   0.18717   0.19580   0.22094

 Mulliken charges:
               1
     1  C   -0.501227
     2  C    0.343611
     3  C   -0.393464
     4  C    0.416152
     5  C   -0.266249
     6  O   -0.277498
     7  C    0.255902
     8  C   -0.518418
     9  O   -0.325197
    10  H    0.133229
    11  H    0.127284
    12  H    0.133173
    13  H    0.110583
    14  H    0.119402
    15  H    0.117113
    16  H    0.119286
    17  H    0.132302
    18  H    0.132778
    19  H    0.141238
 Sum of Mulliken charges =   0.00000

 Dipole moment (field-independent basis, Debye):
    X=             -0.6033    Y=             -0.1356    Z=             -0.3179  Tot=              0.6953
 Quadrupole moment (field-independent basis, Debye-Ang):
   XX=            -51.7770   YY=            -49.4938   ZZ=            -56.8260
   XY=              0.8471   XZ=              6.2324   YZ=             -0.7979

  Exact polarizability:  89.079   3.283  78.191   4.532   0.458  61.488
 Approx polarizability: 117.037   6.254 108.181   0.288   2.398 104.023

                      1                      2                      3
                      A                      A                      A
 Frequencies --    100.7872               160.9741               185.6839
 Red. masses --      3.2119                 1.0814                 1.6021
 Frc consts  --      0.0192                 0.0165                 0.0325
 IR Inten    --      2.6856                 0.2326                 0.4679

                      4                      5                      6
                      A                      A                      A
 Frequencies --    190.3003               207.3308               234.2263
 Red. masses --      1.3307                 3.2116                 2.6614
 Frc consts  --      0.0284                 0.0813                 0.0860
 IR Inten    --      0.0711                 1.9698                 3.4193

                      7                      8                      9
                      A                      A                      A
 Frequencies --    332.0676               363.9592               447.1575
 Red. masses --      2.5963                 2.6992                 3.2634
 Frc consts  --      0.1687                 0.2107                 0.3844
 IR Inten    --      2.8025                 5.5355                 8.1733

                     10                     11                     12
                      A                      A                      A
 Frequencies --    470.2743               493.3347               572.2075
 Red. masses --      3.5638                 3.7476                 4.0340
 Frc consts  --      0.4644                 0.5374                 0.7782
 IR Inten    --      0.1634                 3.7646                 3.4810

                     13                     14                     15
                      A                      A                      A
 Frequencies --    643.2824               705.3448               767.8094
 Red. masses --      3.8337                 3.1441                 3.7261
 Frc consts  --      0.9347                 0.9216                 1.2942
 IR Inten    --      3.8138                 1.6623                 7.4249

                     16                     17                     18
                      A                      A                      A
 Frequencies --    834.5992               857.3703               889.4072
 Red. masses --      2.6750                 3.1565                 1.7583
 Frc consts  --      1.0978                 1.3671                 0.8195
 IR Inten    --     27.0037                 8.5314                 5.1760

                     19                     20                     21
                      A                      A                      A
 Frequencies --    920.0399               954.3862               991.5526
 Red. masses --      3.5351                 1.9330                 1.7534
 Frc consts  --      1.7631                 1.0374                 1.0157
 IR Inten    --     13.0292                16.9652                 8.5446

                     22                     23                     24
                      A                      A                      A
 Frequencies --   1082.8641              1091.4684              1104.8574
 Red. masses --      1.7774                 1.5679                 2.0078
 Frc consts  --      1.2280                 1.1005                 1.4441
 IR Inten    --      1.9570                10.6668                16.8022

                     25                     26                     27
                      A                      A                      A
 Frequencies --   1121.9106              1146.5448              1156.2622
 Red. masses --      1.3207                 1.8974                 1.9015
 Frc consts  --      0.9794                 1.4696                 1.4978
 IR Inten    --      4.3180                 5.7483                10.1401

                     28                     29                     30
                      A                      A                      A
 Frequencies --   1172.6269              1203.1701              1226.3313
 Red. masses --      1.5721                 1.6063                 2.8624
 Frc consts  --      1.2736                 1.3700                 2.5363
 IR Inten    --      3.2163                 8.5992                35.5014

                     31                     32                     33
                      A                      A                      A
 Frequencies --   1305.3459              1404.5348              1413.0167
 Red. masses --      3.1532                 1.2936                 1.4015
 Frc consts  --      3.1656                 1.5035                 1.6487
 IR Inten    --      3.5880                 4.8592                 1.1321

                     34                     35                     36
                      A                      A                      A
 Frequencies --   1431.8852              1456.3813              1473.6169
 Red. masses --      2.1337                 1.2666                 1.0556
 Frc consts  --      2.5775                 1.5829                 1.3506
 IR Inten    --     14.2838                 3.2056                 3.4834

                     37                     38                     39
                      A                      A                      A
 Frequencies --   1477.4321              1488.1982              1495.0770
 Red. masses --      1.1076                 1.0529                 1.0851
 Frc consts  --      1.4245                 1.3739                 1.4291
 IR Inten    --      1.6993                 2.4441                 7.1542

                     40                     41                     42
                      A                      A                      A
 Frequencies --   1517.6197              1546.0126              3034.1885
 Red. masses --      1.9640                 2.4681                 1.0363
 Frc consts  --      2.6651                 3.4756                 5.6214
 IR Inten    --     12.9610                12.0804                25.7530

                     43                     44                     45
                      A                      A                      A
 Frequencies --   3037.1201              3061.7226              3084.7902
 Red. masses --      1.0369                 1.0575                 1.0506
 Frc consts  --      5.6351                 5.8407                 5.8901
 IR Inten    --     15.5629                20.7757                22.7000

                     46                     47                     48
                      A                      A                      A
 Frequencies --   3096.7012              3100.8410              3119.6931
 Red. masses --      1.0996                 1.0979                 1.1016
 Frc consts  --      6.2126                 6.2198                 6.3170
 IR Inten    --     12.4854                14.4083                12.1411

                     49                     50                     51
                      A                      A                      A
 Frequencies --   3122.0996              3125.2246              3171.7167
 Red. masses --      1.1079                 1.1019                 1.1194
 Frc consts  --      6.3626                 6.3408                 6.6348
 IR Inten    --     13.2108                13.6393                18.6401

 - Thermochemistry -
 -------------------
 Temperature   298.150 Kelvin.  Pressure   1.00000 Atm.
 Atom     1 has atomic number  6 and mass  12.00000

 Molecular mass:   126.06808 amu.
 Principal axes and moments of inertia in atomic units:
                           1         2         3
     Eigenvalues --   643.060861246.439341506.96990
           X            0.99911   0.01246   0.04039
           Y           -0.01160   0.99971  -0.02130
           Z           -0.04064   0.02081   0.99896
 This molecule is an asymmetric top.
 Rotational symmetry number  1.
 Warning -- assumption of classical behavior for rotation
           may cause significant error
 Rotational temperatures (Kelvin)      0.13469     0.06949     0.05748
 Rotational constants (GHZ):           2.80649     1.44792     1.19760
 Zero-point vibrational energy     410267.4 (Joules/Mol)
                                   98.05626 (Kcal/Mol)
 Warning -- explicit consideration of  12 degrees of freedom as
           vibrations may cause significant error
 Vibrational temperatures:    145.01   231.61   267.16   273.80   298.30
          (Kelvin)            337.00   477.77   523.66   643.36   676.62
                              709.80   823.28   925.54  1014.83  1104.71
                             1200.80  1233.56  1279.66  1323.73  1373.15
                             1426.62  1558.00  1570.38  1589.64  1614.18
                             1649.62  1663.60  1687.15  1731.09  1764.42
                             1878.10  2020.81  2033.01  2060.16  2095.41
                             2120.20  2125.69  2141.18  2151.08  2183.51
                             2224.36  4365.52  4369.73  4405.13  4438.32
                             4455.46  4461.41  4488.54  4492.00  4496.50
                             4563.39

 Zero-point correction=                           0.156263 (Hartree/Particle)
 Thermal correction to Energy=                    0.165232
 Thermal correction to Enthalpy=                  0.166176
 Thermal correction to Gibbs Free Energy=         0.123020
 Sum of electronic and zero-point Energies=           -422.979860
 Sum of electronic and thermal Energies=              -422.970890
 Sum of electronic and thermal Enthalpies=            -422.969946
 Sum of electronic and thermal Free Energies=         -423.013103

                     E (Thermal)             CV                S
                      KCal/Mol        Cal/Mol-Kelvin    Cal/Mol-Kelvin
 Total                  103.685             33.953             90.830
 Electronic               0.000              0.000              0.000
 Translational            0.889              2.981             40.409
 Rotational               0.889              2.981             28.581
 Vibrational            101.907             27.991             21.841
 Vibration     1          0.604              1.948              3.439
 Vibration     2          0.622              1.890              2.538
 Vibration     3          0.632              1.859              2.270
 Vibration     4          0.634              1.853              2.225
 Vibration     5          0.641              1.829              2.067
 Vibration     6          0.654              1.788              1.846
 Vibration     7          0.714              1.611              1.250
 Vibration     8          0.737              1.546              1.105
 Vibration     9          0.806              1.367              0.804
 Vibration    10          0.827              1.316              0.737
 Vibration    11          0.849              1.265              0.675
 Vibration    12          0.928              1.091              0.500

 Normal termination of Gaussian 09 at Mon Jan 27 17:54:17 2020.
