 Gaussian 09, Revision D.01,
 Gaussian 09:  ES64L-G09RevD.01 24-Apr-2013

 -----------------------------
 # b3lyp 6-31G(2df,p) opt Freq
 -----------------------------

 -----
 titel
 -----
 Symbolic Z-matrix:
 Charge =  0 Multiplicity = 1

 SCF Done:  E(RB3LYP) =  -423.232405526     A.U. after   14 cycles
 Optimization completed.
    -- Stationary point found.
 Normal termination of Gaussian 09 at Mon Jan 27 17:22:31 2020.

 ----------------------------------------------------------------------
 #N Geom=AllCheck Guess=TCheck SCRF=Check GenChk RB3LYP/6-31G(2df,p) Fr
 eq
 ----------------------------------------------------------------------

 Structure from the checkpoint file:  "/scratch/puck/g09_8af09f37-9ca4-4303-ab1e-d89435f153cf/Gau-179565.chk"
 -----
 titel
 -----
 Charge =  0 Multiplicity = 1

                         Standard orientation:
 ---------------------------------------------------------------------
 Center     Atomic      Atomic             Coordinates (Angstroms)
 Number     Number       Type             X           Y           Z
 ---------------------------------------------------------------------
      1          6           0        1.845736   -1.471597   -0.522794
      2          6           0        0.682353   -0.749390    0.113680
      3          6           0        0.876152    0.041936    1.402129
      4          6           0        0.525974    0.755417    0.124538
      5          6           0        1.401249    1.769464   -0.551790
      6          8           0       -0.858477    1.073185   -0.003646
      7          6           0       -1.623409   -0.052715   -0.104336
      8          8           0       -2.815825   -0.009670   -0.176269
      9          6           0       -0.718701   -1.286387   -0.104318
     10          1           0        1.975094   -2.466395   -0.081846
     11          1           0        1.691384   -1.602882   -1.599878
     12          1           0        2.784714   -0.928438   -0.382523
     13          1           0        0.119507   -0.010991    2.179220
     14          1           0        1.893492    0.139532    1.767210
     15          1           0        1.269656    2.755619   -0.095702
     16          1           0        2.454170    1.492256   -0.459509
     17          1           0        1.154543    1.850281   -1.615065
     18          1           0       -1.065365   -1.989780    0.658422
     19          1           0       -0.818900   -1.787685   -1.073659
 ---------------------------------------------------------------------

 SCF Done:  E(RB3LYP) =  -423.232405526     A.U. after    1 cycles

 The electronic state is 1-A.
 Alpha  occ. eigenvalues --  -19.17975 -19.11990 -10.30244 -10.25623 -10.21439
 Alpha  occ. eigenvalues --  -10.20454 -10.19678 -10.19481 -10.19307  -1.10033
 Alpha  occ. eigenvalues --   -1.02162  -0.87709  -0.77477  -0.72298  -0.72022
 Alpha  occ. eigenvalues --   -0.62204  -0.58530  -0.54032  -0.50295  -0.48124
 Alpha  occ. eigenvalues --   -0.45484  -0.44429  -0.43058  -0.42794  -0.42414
 Alpha  occ. eigenvalues --   -0.40355  -0.39864  -0.39032  -0.37451  -0.36470
 Alpha  occ. eigenvalues --   -0.32835  -0.28849  -0.26462  -0.26253
 Alpha virt. eigenvalues --    0.01296   0.07170   0.09625   0.10601   0.11655
 Alpha virt. eigenvalues --    0.13054   0.13675   0.14773   0.15835   0.16688
 Alpha virt. eigenvalues --    0.17712   0.18007   0.18787   0.20115   0.22084

 Mulliken charges:
               1
     1  C   -0.482276
     2  C    0.265077
     3  C   -0.387427
     4  C    0.392576
     5  C   -0.468708
     6  O   -0.249506
     7  C    0.411366
     8  O   -0.330851
     9  C   -0.436149
    10  H    0.127873
    11  H    0.122689
    12  H    0.120999
    13  H    0.123154
    14  H    0.117711
    15  H    0.138999
    16  H    0.124168
    17  H    0.131320
    18  H    0.141336
    19  H    0.137650
 Sum of Mulliken charges =   0.00000

 Dipole moment (field-independent basis, Debye):
    X=              4.1983    Y=             -1.2568    Z=              0.0995  Tot=              4.3835
 Quadrupole moment (field-independent basis, Debye-Ang):
   XX=            -62.5603   YY=            -52.0848   ZZ=            -51.2073
   XY=              2.6725   XZ=             -0.8208   YZ=              0.0303

  Exact polarizability:  85.013   2.560  75.418   1.246   0.899  65.648
 Approx polarizability: 121.607   3.592 108.124   4.098   1.677  99.192

                      1                      2                      3
                      A                      A                      A
 Frequencies --    110.5429               183.6644               190.6235
 Red. masses --      4.3653                 1.6054                 1.6692
 Frc consts  --      0.0314                 0.0319                 0.0357
 IR Inten    --      2.2846                 0.9336                 0.4257

                      4                      5                      6
                      A                      A                      A
 Frequencies --    205.2545               228.4128               304.4908
 Red. masses --      1.1898                 1.6164                 2.8541
 Frc consts  --      0.0295                 0.0497                 0.1559
 IR Inten    --      0.2221                 0.1002                 1.2029

                      7                      8                      9
                      A                      A                      A
 Frequencies --    354.5158               416.8790               465.8623
 Red. masses --      2.6327                 2.2952                 3.1269
 Frc consts  --      0.1950                 0.2350                 0.3998
 IR Inten    --      0.1348                 0.2166                 1.0707

                     10                     11                     12
                      A                      A                      A
 Frequencies --    503.7602               553.1349               582.1140
 Red. masses --      3.6063                 2.9457                 3.3120
 Frc consts  --      0.5392                 0.5310                 0.6612
 IR Inten    --      3.1351                 3.9032                 4.4538

                     13                     14                     15
                      A                      A                      A
 Frequencies --    610.5018               725.4724               748.6564
 Red. masses --      5.0495                 3.8912                 3.3054
 Frc consts  --      1.1088                 1.2066                 1.0915
 IR Inten    --      6.2277                 1.5560                 3.1229

                     16                     17                     18
                      A                      A                      A
 Frequencies --    847.5538               903.5952               918.4056
 Red. masses --      3.6962                 2.4941                 1.3541
 Frc consts  --      1.5644                 1.1998                 0.6729
 IR Inten    --     14.0902                 4.7848                 5.0077

                     19                     20                     21
                      A                      A                      A
 Frequencies --    945.9573               977.6274               994.7554
 Red. masses --      1.5219                 2.0187                 2.0187
 Frc consts  --      0.8024                 1.1368                 1.1769
 IR Inten    --      2.2754                16.8865                15.8595

                     22                     23                     24
                      A                      A                      A
 Frequencies --   1008.6845              1048.2510              1100.5314
 Red. masses --      1.8437                 1.3282                 1.6307
 Frc consts  --      1.1052                 0.8599                 1.1637
 IR Inten    --     19.9645                14.1853                 6.6686

                     25                     26                     27
                      A                      A                      A
 Frequencies --   1109.6211              1150.9958              1188.5342
 Red. masses --      2.0383                 2.8992                 1.6969
 Frc consts  --      1.4786                 2.2629                 1.4123
 IR Inten    --     32.1347               100.3909                71.9029

                     28                     29                     30
                      A                      A                      A
 Frequencies --   1232.2224              1237.0254              1258.6628
 Red. masses --      1.9320                 3.3861                 2.5683
 Frc consts  --      1.7283                 3.0528                 2.3973
 IR Inten    --     17.4597                36.0571                59.2553

                     31                     32                     33
                      A                      A                      A
 Frequencies --   1346.0039              1395.7344              1417.8921
 Red. masses --      2.5836                 1.6729                 1.3400
 Frc consts  --      2.7578                 1.9201                 1.5873
 IR Inten    --      7.7087                 2.4856                 1.0498

                     34                     35                     36
                      A                      A                      A
 Frequencies --   1429.2438              1460.5129              1476.9199
 Red. masses --      1.5117                 1.1073                 1.0522
 Frc consts  --      1.8194                 1.3917                 1.3523
 IR Inten    --      8.0270                 4.1780                 2.8499

                     37                     38                     39
                      A                      A                      A
 Frequencies --   1488.0637              1493.1220              1495.8900
 Red. masses --      1.1991                 1.1099                 1.0593
 Frc consts  --      1.5644                 1.4579                 1.3965
 IR Inten    --      3.7545                 9.4844                 2.0106

                     40                     41                     42
                      A                      A                      A
 Frequencies --   1512.3134              1884.5451              3027.5423
 Red. masses --      1.2333                12.9706                 1.0364
 Frc consts  --      1.6619                27.1407                 5.5968
 IR Inten    --      7.4172               396.2551                27.8031

                     43                     44                     45
                      A                      A                      A
 Frequencies --   3042.4369              3051.2868              3087.0502
 Red. masses --      1.0359                 1.0619                 1.1011
 Frc consts  --      5.6495                 5.8252                 6.1825
 IR Inten    --     20.0111                12.2626                19.2858

                     46                     47                     48
                      A                      A                      A
 Frequencies --   3094.3886              3105.7628              3107.6128
 Red. masses --      1.1006                 1.0998                 1.1018
 Frc consts  --      6.2090                 6.2504                 6.2691
 IR Inten    --      7.7091                16.7365                17.1683

                     49                     50                     51
                      A                      A                      A
 Frequencies --   3122.2432              3127.0859              3212.3383
 Red. masses --      1.0588                 1.0959                 1.1171
 Frc consts  --      6.0812                 6.3138                 6.7920
 IR Inten    --      4.9032                19.5228                 6.3220

 - Thermochemistry -
 -------------------
 Temperature   298.150 Kelvin.  Pressure   1.00000 Atm.
 Atom     1 has atomic number  6 and mass  12.00000

 Molecular mass:   126.06808 amu.
 Principal axes and moments of inertia in atomic units:
                           1         2         3
     Eigenvalues --   686.494591192.303221545.31344
           X            0.99972   0.01921  -0.01372
           Y           -0.01921   0.99982  -0.00008
           Z            0.01371   0.00034   0.99991
 This molecule is an asymmetric top.
 Rotational symmetry number  1.
 Warning -- assumption of classical behavior for rotation
           may cause significant error
 Rotational temperatures (Kelvin)      0.12617     0.07264     0.05605
 Rotational constants (GHZ):           2.62892     1.51366     1.16788
 Zero-point vibrational energy     415608.4 (Joules/Mol)
                                   99.33279 (Kcal/Mol)
 Warning -- explicit consideration of  13 degrees of freedom as
           vibrations may cause significant error
 Vibrational temperatures:    159.05   264.25   274.26   295.32   328.63
          (Kelvin)            438.09   510.07   599.80   670.27   724.80
                              795.84   837.53   878.37  1043.79  1077.15
                             1219.44  1300.07  1321.38  1361.02  1406.59
                             1431.23  1451.27  1508.20  1583.42  1596.50
                             1656.02  1710.03  1772.89  1779.80  1810.93
                             1936.60  2008.15  2040.03  2056.36  2101.35
                             2124.96  2140.99  2148.27  2152.25  2175.88
                             2711.44  4355.95  4377.38  4390.12  4441.57
                             4452.13  4468.49  4471.16  4492.21  4499.17
                             4621.83

 Zero-point correction=                           0.158297 (Hartree/Particle)
 Thermal correction to Energy=                    0.166872
 Thermal correction to Enthalpy=                  0.167817
 Thermal correction to Gibbs Free Energy=         0.125532
 Sum of electronic and zero-point Energies=           -423.074109
 Sum of electronic and thermal Energies=              -423.065533
 Sum of electronic and thermal Enthalpies=            -423.064589
 Sum of electronic and thermal Free Energies=         -423.106874

                     E (Thermal)             CV                S
                      KCal/Mol        Cal/Mol-Kelvin    Cal/Mol-Kelvin
 Total                  104.714             33.138             88.996
 Electronic               0.000              0.000              0.000
 Translational            0.889              2.981             40.409
 Rotational               0.889              2.981             28.627
 Vibrational            102.937             27.176             19.961
 Vibration     1          0.606              1.941              3.259
 Vibration     2          0.631              1.862              2.291
 Vibration     3          0.634              1.853              2.222
 Vibration     4          0.640              1.832              2.085
 Vibration     5          0.651              1.798              1.891
 Vibration     6          0.695              1.665              1.392
 Vibration     7          0.730              1.566              1.146
 Vibration     8          0.780              1.434              0.903
 Vibration     9          0.823              1.326              0.749
 Vibration    10          0.859              1.242              0.649
 Vibration    11          0.909              1.133              0.538
 Vibration    12          0.939              1.070              0.481
 Vibration    13          0.970              1.010              0.432

 Optimization completed.
    -- Stationary point found.
 Normal termination of Gaussian 09 at Mon Jan 27 18:05:35 2020.
