 Gaussian 09, Revision D.01,
 Gaussian 09:  ES64L-G09RevD.01 24-Apr-2013

 -----------------------------
 # b3lyp 6-31G(2df,p) opt Freq
 -----------------------------

 -----
 titel
 -----
 Symbolic Z-matrix:
 Charge =  0 Multiplicity = 1

 SCF Done:  E(RB3LYP) =  -423.200043752     A.U. after   14 cycles
 Optimization completed.
    -- Stationary point found.
 Normal termination of Gaussian 09 at Mon Jan 27 13:07:26 2020.

 ----------------------------------------------------------------------
 #N Geom=AllCheck Guess=TCheck SCRF=Check GenChk RB3LYP/6-31G(2df,p) Fr
 eq
 ----------------------------------------------------------------------

 Structure from the checkpoint file:  "/scratch/puck/g09_8678d557-3a0e-468e-8a5b-aa6ecabf9cf9/Gau-27362.chk"
 -----
 titel
 -----
 Charge =  0 Multiplicity = 1

                         Standard orientation:
 ---------------------------------------------------------------------
 Center     Atomic      Atomic             Coordinates (Angstroms)
 Number     Number       Type             X           Y           Z
 ---------------------------------------------------------------------
      1          8           0       -2.721040   -0.000007   -0.485964
      2          6           0       -1.646046    0.000000    0.070684
      3          6           0       -0.957990    1.318121    0.422608
      4          6           0        0.392162    1.527236   -0.305718
      5          6           0        1.517975    0.735171    0.327415
      6          8           0        2.398245    0.000006   -0.527811
      7          6           0        1.517981   -0.735173    0.327403
      8          6           0        0.392163   -1.527240   -0.305722
      9          6           0       -0.957981   -1.318113    0.422619
     10          1           0       -1.659248    2.112862    0.158448
     11          1           0       -0.792340    1.360939    1.507635
     12          1           0        0.301518    1.251878   -1.360656
     13          1           0        0.641063    2.592981   -0.282845
     14          1           0        2.025373    1.234843    1.154639
     15          1           0        2.025384   -1.234851    1.154621
     16          1           0        0.301512   -1.251893   -1.360662
     17          1           0        0.641059   -2.592986   -0.282838
     18          1           0       -1.659241   -2.112860    0.158484
     19          1           0       -0.792309   -1.360914    1.507644
 ---------------------------------------------------------------------

 SCF Done:  E(RB3LYP) =  -423.200043752     A.U. after    1 cycles

 The electronic state is 1-A.
 Alpha  occ. eigenvalues --  -19.15428 -19.12938 -10.27018 -10.24257 -10.24225
 Alpha  occ. eigenvalues --  -10.20176 -10.20176 -10.19827 -10.19827  -1.07505
 Alpha  occ. eigenvalues --   -1.03987  -0.81498  -0.78532  -0.70702  -0.67451
 Alpha  occ. eigenvalues --   -0.63333  -0.56539  -0.54686  -0.50627  -0.48384
 Alpha  occ. eigenvalues --   -0.47755  -0.45132  -0.42875  -0.42015  -0.41085
 Alpha  occ. eigenvalues --   -0.40156  -0.38629  -0.37824  -0.35185  -0.34908
 Alpha  occ. eigenvalues --   -0.34160  -0.29606  -0.27056  -0.24283
 Alpha virt. eigenvalues --   -0.01658   0.08016   0.09088   0.09219   0.10223
 Alpha virt. eigenvalues --    0.12376   0.13050   0.15092   0.15776   0.16783
 Alpha virt. eigenvalues --    0.17374   0.18576   0.18912   0.19424   0.21157

 Mulliken charges:
               1
     1  O   -0.297896
     2  C    0.382960
     3  C   -0.289125
     4  C   -0.255761
     5  C    0.062817
     6  O   -0.256731
     7  C    0.062821
     8  C   -0.255763
     9  C   -0.289124
    10  H    0.123322
    11  H    0.110741
    12  H    0.126727
    13  H    0.114135
    14  H    0.092977
    15  H    0.092976
    16  H    0.126727
    17  H    0.114135
    18  H    0.123322
    19  H    0.110740
 Sum of Mulliken charges =   0.00000

 Dipole moment (field-independent basis, Debye):
    X=              1.0774    Y=              0.0000    Z=              2.1247  Tot=              2.3822
 Quadrupole moment (field-independent basis, Debye-Ang):
   XX=            -67.9260   YY=            -48.1569   ZZ=            -52.1768
   XY=             -0.0001   XZ=              0.3266   YZ=              0.0000

  Exact polarizability:  81.251   0.000  80.644   3.965   0.000  61.894
 Approx polarizability: 118.401   0.000 111.989   6.313   0.000 101.172

                      1                      2                      3
                      A                      A                      A
 Frequencies --     65.7628               153.4013               212.4523
 Red. masses --      6.3735                 2.3132                 2.7755
 Frc consts  --      0.0162                 0.0321                 0.0738
 IR Inten    --      4.8677                 0.5487                 1.9683

                      4                      5                      6
                      A                      A                      A
 Frequencies --    267.7697               310.2870               393.6679
 Red. masses --      3.1092                 4.2448                 4.4853
 Frc consts  --      0.1313                 0.2408                 0.4095
 IR Inten    --      1.0039                 1.5091                 7.3543

                      7                      8                      9
                      A                      A                      A
 Frequencies --    397.0241               482.2617               507.2570
 Red. masses --      1.9054                 3.4408                 3.3044
 Frc consts  --      0.1770                 0.4715                 0.5009
 IR Inten    --      0.7240                11.6764                 7.3892

                     10                     11                     12
                      A                      A                      A
 Frequencies --    567.4550               681.6086               739.8034
 Red. masses --      2.0081                 4.0448                 2.3157
 Frc consts  --      0.3810                 1.1072                 0.7467
 IR Inten    --      0.3247                 0.9108                 3.3156

                     13                     14                     15
                      A                      A                      A
 Frequencies --    790.9099               795.1176               858.7566
 Red. masses --      2.9823                 2.5799                 2.1153
 Frc consts  --      1.0992                 0.9610                 0.9191
 IR Inten    --      0.9839                22.1790                 5.9408

                     16                     17                     18
                      A                      A                      A
 Frequencies --    929.6288               935.2833               942.1745
 Red. masses --      2.3925                 3.2697                 1.8359
 Frc consts  --      1.2182                 1.6852                 0.9602
 IR Inten    --     13.7849                20.4117                 2.5515

                     19                     20                     21
                      A                      A                      A
 Frequencies --   1002.5968              1031.6254              1045.4281
 Red. masses --      1.7594                 3.1252                 1.9640
 Frc consts  --      1.0420                 1.9596                 1.2647
 IR Inten    --      2.1600                13.2553                 0.3737

                     22                     23                     24
                      A                      A                      A
 Frequencies --   1082.1326              1106.1627              1125.9720
 Red. masses --      2.3227                 1.3799                 1.6543
 Frc consts  --      1.6025                 0.9948                 1.2357
 IR Inten    --      5.6497                17.3041                 5.0811

                     25                     26                     27
                      A                      A                      A
 Frequencies --   1170.6981              1200.8460              1201.9362
 Red. masses --      1.7428                 1.2996                 1.4747
 Frc consts  --      1.4073                 1.1042                 1.2552
 IR Inten    --     16.3594                 0.0879                 8.7724

                     28                     29                     30
                      A                      A                      A
 Frequencies --   1236.3452              1276.8701              1305.6838
 Red. masses --      1.2206                 1.4167                 1.2808
 Frc consts  --      1.0992                 1.3609                 1.2865
 IR Inten    --      6.0800                 8.9153                 1.8143

                     31                     32                     33
                      A                      A                      A
 Frequencies --   1321.4252              1336.2953              1355.6041
 Red. masses --      1.4169                 1.4292                 1.4822
 Frc consts  --      1.4577                 1.5036                 1.6049
 IR Inten    --      1.8469                 3.0169                17.2881

                     34                     35                     36
                      A                      A                      A
 Frequencies --   1365.3096              1401.5012              1468.1652
 Red. masses --      1.3818                 1.3745                 1.0975
 Frc consts  --      1.5176                 1.5907                 1.3938
 IR Inten    --      1.4586                 3.5669                 6.3456

                     37                     38                     39
                      A                      A                      A
 Frequencies --   1472.6746              1488.3602              1493.4411
 Red. masses --      1.3476                 1.0886                 1.9948
 Frc consts  --      1.7220                 1.4208                 2.6214
 IR Inten    --      2.2583                 3.6463                14.8376

                     40                     41                     42
                      A                      A                      A
 Frequencies --   1505.9616              1802.0041              3021.1141
 Red. masses --      1.0955                10.7779                 1.0662
 Frc consts  --      1.4639                20.6204                 5.7337
 IR Inten    --     11.7894               169.5515                 1.6448

                     43                     44                     45
                      A                      A                      A
 Frequencies --   3027.1818              3050.3138              3053.3398
 Red. masses --      1.0661                 1.0609                 1.0627
 Frc consts  --      5.7558                 5.8156                 5.8372
 IR Inten    --     22.1161                19.4286                14.1658

                     46                     47                     48
                      A                      A                      A
 Frequencies --   3079.5609              3089.5980              3097.8479
 Red. masses --      1.0880                 1.0929                 1.0993
 Frc consts  --      6.0796                 6.1466                 6.2159
 IR Inten    --      1.7403                11.7305                31.8269

                     49                     50                     51
                      A                      A                      A
 Frequencies --   3107.9308              3108.1567              3110.0507
 Red. masses --      1.0993                 1.0956                 1.0964
 Frc consts  --      6.2560                 6.2358                 6.2482
 IR Inten    --     48.7183                17.7527                11.8689

 - Thermochemistry -
 -------------------
 Temperature   298.150 Kelvin.  Pressure   1.00000 Atm.
 Atom     1 has atomic number  8 and mass  15.99491

 Molecular mass:   126.06808 amu.
 Principal axes and moments of inertia in atomic units:
                           1         2         3
     Eigenvalues --   613.254701316.319431725.56845
           X            1.00000   0.00000   0.00191
           Y            0.00000   1.00000   0.00000
           Z           -0.00191   0.00000   1.00000
 This molecule is an asymmetric top.
 Rotational symmetry number  1.
 Warning -- assumption of classical behavior for rotation
           may cause significant error
 Rotational temperatures (Kelvin)      0.14124     0.06580     0.05019
 Rotational constants (GHZ):           2.94289     1.37105     1.04588
 Zero-point vibrational energy     422118.8 (Joules/Mol)
                                  100.88882 (Kcal/Mol)
 Warning -- explicit consideration of  10 degrees of freedom as
           vibrations may cause significant error
 Vibrational temperatures:     94.62   220.71   305.67   385.26   446.43
          (Kelvin)            566.40   571.23   693.87   729.83   816.44
                              980.68  1064.41  1137.94  1144.00  1235.56
                             1337.53  1345.66  1355.58  1442.51  1484.28
                             1504.14  1556.95  1591.52  1620.02  1684.37
                             1727.75  1729.32  1778.82  1837.13  1878.59
                             1901.23  1922.63  1950.41  1964.37  2016.45
                             2112.36  2118.85  2141.42  2148.73  2166.74
                             2592.68  4346.70  4355.43  4388.72  4393.07
                             4430.80  4445.24  4457.11  4471.61  4471.94
                             4474.66

 Zero-point correction=                           0.160777 (Hartree/Particle)
 Thermal correction to Energy=                    0.168642
 Thermal correction to Enthalpy=                  0.169586
 Thermal correction to Gibbs Free Energy=         0.128144
 Sum of electronic and zero-point Energies=           -423.039267
 Sum of electronic and thermal Energies=              -423.031402
 Sum of electronic and thermal Enthalpies=            -423.030458
 Sum of electronic and thermal Free Energies=         -423.071900

                     E (Thermal)             CV                S
                      KCal/Mol        Cal/Mol-Kelvin    Cal/Mol-Kelvin
 Total                  105.824             30.522             87.222
 Electronic               0.000              0.000              0.000
 Translational            0.889              2.981             40.409
 Rotational               0.889              2.981             28.723
 Vibrational            104.047             24.560             18.091
 Vibration     1          0.597              1.971              4.276
 Vibration     2          0.619              1.899              2.630
 Vibration     3          0.643              1.822              2.023
 Vibration     4          0.673              1.732              1.611
 Vibration     5          0.699              1.654              1.361
 Vibration     6          0.761              1.484              0.986
 Vibration     7          0.764              1.477              0.974
 Vibration     8          0.838              1.289              0.704
 Vibration     9          0.862              1.234              0.640
 Vibration    10          0.923              1.102              0.509

 Normal termination of Gaussian 09 at Mon Jan 27 14:29:28 2020.
