 Gaussian 09, Revision D.01,
 Gaussian 09:  ES64L-G09RevD.01 24-Apr-2013

 -----------------------------
 # b3lyp 6-31G(2df,p) opt Freq
 -----------------------------

 -----
 titel
 -----
 Symbolic Z-matrix:
 Charge =  0 Multiplicity = 1

 SCF Done:  E(RB3LYP) =  -423.127003109     A.U. after   13 cycles
 Optimization completed.
    -- Stationary point found.
 Normal termination of Gaussian 09 at Mon Jan 27 22:12:53 2020.

 ----------------------------------------------------------------------
 #N Geom=AllCheck Guess=TCheck SCRF=Check GenChk RB3LYP/6-31G(2df,p) Fr
 eq
 ----------------------------------------------------------------------

 Structure from the checkpoint file:  "/scratch/puck/g09_78e81ca8-6daa-4733-a13f-277d9711dbcd/Gau-29017.chk"
 -----
 titel
 -----
 Charge =  0 Multiplicity = 1

                         Standard orientation:
 ---------------------------------------------------------------------
 Center     Atomic      Atomic             Coordinates (Angstroms)
 Number     Number       Type             X           Y           Z
 ---------------------------------------------------------------------
      1          6           0       -3.056086   -0.603466    0.121427
      2          6           0       -1.696552   -0.245307   -0.446580
      3          8           0       -1.406544    1.169619   -0.286818
      4          6           0       -0.260116    0.903095    0.537121
      5          6           0        1.038550    0.801334   -0.242919
      6          6           0        1.965554   -0.174892    0.426975
      7          8           0        3.272749   -0.299215   -0.052801
      8          6           0        0.833479   -0.734113   -0.386925
      9          6           0       -0.466109   -0.647992    0.397218
     10          1           0       -3.112923   -0.354762    1.185836
     11          1           0       -3.841744   -0.049575   -0.401507
     12          1           0       -3.251012   -1.675192    0.002050
     13          1           0       -1.633945   -0.539068   -1.503165
     14          1           0       -0.277563    1.480605    1.466283
     15          1           0        1.401641    1.527669   -0.962065
     16          1           0        1.974544   -0.284822    1.509373
     17          1           0        3.270654   -0.140602   -1.002887
     18          1           0        1.023917   -1.378670   -1.239348
     19          1           0       -0.635523   -1.340769    1.224475
 ---------------------------------------------------------------------

 SCF Done:  E(RB3LYP) =  -423.127003109     A.U. after    1 cycles

 The electronic state is 1-A.
 Alpha  occ. eigenvalues --  -19.14836 -19.12954 -10.24283 -10.23770 -10.23475
 Alpha  occ. eigenvalues --  -10.19630 -10.19605 -10.19247 -10.17723  -1.04088
 Alpha  occ. eigenvalues --   -1.03284  -0.88117  -0.75970  -0.70741  -0.66078
 Alpha  occ. eigenvalues --   -0.61351  -0.59166  -0.52407  -0.51734  -0.50679
 Alpha  occ. eigenvalues --   -0.48814  -0.45213  -0.43336  -0.40685  -0.39087
 Alpha  occ. eigenvalues --   -0.38390  -0.37939  -0.36439  -0.35180  -0.31740
 Alpha  occ. eigenvalues --   -0.30300  -0.26628  -0.25783  -0.23274
 Alpha virt. eigenvalues --    0.07061   0.08268   0.09931   0.10452   0.11613
 Alpha virt. eigenvalues --    0.13034   0.14288   0.14820   0.15417   0.16377
 Alpha virt. eigenvalues --    0.17002   0.17860   0.18476   0.21296   0.22651

 Mulliken charges:
               1
     1  C   -0.403771
     2  C    0.151396
     3  O   -0.310915
     4  C    0.104894
     5  C   -0.142222
     6  C    0.133994
     7  O   -0.440081
     8  C   -0.129333
     9  C   -0.120226
    10  H    0.120150
    11  H    0.127411
    12  H    0.114045
    13  H    0.074432
    14  H    0.078790
    15  H    0.092516
    16  H    0.103384
    17  H    0.285332
    18  H    0.086097
    19  H    0.074107
 Sum of Mulliken charges =   0.00000

 Dipole moment (field-independent basis, Debye):
    X=             -0.3688    Y=             -1.0684    Z=             -0.5719  Tot=              1.2667
 Quadrupole moment (field-independent basis, Debye-Ang):
   XX=            -57.8560   YY=            -55.0021   ZZ=            -49.5448
   XY=              4.4273   XZ=             -4.5226   YZ=              1.2154

  Exact polarizability:  92.792   2.956  67.101  -0.927   1.501  66.343
 Approx polarizability: 115.919   1.405 108.792   1.095   1.767 102.685

                      1                      2                      3
                      A                      A                      A
 Frequencies --    112.5756               168.9867               195.6242
 Red. masses --      3.0699                 3.5400                 1.2385
 Frc consts  --      0.0229                 0.0596                 0.0279
 IR Inten    --      1.1002                10.8767                60.9654

                      4                      5                      6
                      A                      A                      A
 Frequencies --    214.4422               250.2402               299.4991
 Red. masses --      1.7626                 1.3924                 3.0288
 Frc consts  --      0.0478                 0.0514                 0.1601
 IR Inten    --     16.0317                 4.1095                 1.8877

                      7                      8                      9
                      A                      A                      A
 Frequencies --    357.7922               412.1494               463.4050
 Red. masses --      3.3403                 4.5533                 3.2536
 Frc consts  --      0.2519                 0.4557                 0.4117
 IR Inten    --      6.1209                 1.6397                 1.5150

                     10                     11                     12
                      A                      A                      A
 Frequencies --    479.1525               727.1030               767.8076
 Red. masses --      3.9086                 3.5504                 1.9558
 Frc consts  --      0.5287                 1.1059                 0.6793
 IR Inten    --      2.9510                 2.7893                 7.1777

                     13                     14                     15
                      A                      A                      A
 Frequencies --    834.2368               844.2612               886.6067
 Red. masses --      2.2416                 2.6926                 2.1992
 Frc consts  --      0.9191                 1.1308                 1.0185
 IR Inten    --     10.9864                 4.0460                 3.4949

                     16                     17                     18
                      A                      A                      A
 Frequencies --    901.2996               929.9753               949.1302
 Red. masses --      1.7589                 2.7958                 2.6544
 Frc consts  --      0.8418                 1.4246                 1.4088
 IR Inten    --     29.0278                 4.9469                25.9740

                     19                     20                     21
                      A                      A                      A
 Frequencies --    984.0947              1015.0952              1032.2261
 Red. masses --      1.9503                 2.2564                 2.5801
 Frc consts  --      1.1128                 1.3699                 1.6197
 IR Inten    --     12.4403                62.0206                45.6794

                     22                     23                     24
                      A                      A                      A
 Frequencies --   1049.1266              1079.7320              1093.3646
 Red. masses --      1.7388                 1.9928                 1.9834
 Frc consts  --      1.1276                 1.3688                 1.3970
 IR Inten    --      5.8363                20.8706                27.5419

                     25                     26                     27
                      A                      A                      A
 Frequencies --   1106.7368              1121.3631              1129.2298
 Red. masses --      1.3983                 2.1067                 1.9231
 Frc consts  --      1.0091                 1.5608                 1.4448
 IR Inten    --      4.2461                47.4780                25.4287

                     28                     29                     30
                      A                      A                      A
 Frequencies --   1147.4775              1196.1035              1217.5185
 Red. masses --      2.3971                 1.9599                 1.5530
 Frc consts  --      1.8596                 1.6520                 1.3564
 IR Inten    --      6.1010                23.2023                 2.4930

                     31                     32                     33
                      A                      A                      A
 Frequencies --   1226.9003              1266.3873              1290.1930
 Red. masses --      1.4317                 1.5877                 1.5738
 Frc consts  --      1.2697                 1.5002                 1.5435
 IR Inten    --      4.0012                 9.4815                 0.2681

                     34                     35                     36
                      A                      A                      A
 Frequencies --   1300.7688              1340.4233              1352.9586
 Red. masses --      1.3729                 1.6142                 1.7452
 Frc consts  --      1.3687                 1.7088                 1.8822
 IR Inten    --     11.8077                15.8615                 5.6207

                     37                     38                     39
                      A                      A                      A
 Frequencies --   1389.3425              1405.3245              1451.3529
 Red. masses --      1.3876                 1.3625                 1.7356
 Frc consts  --      1.5781                 1.5854                 2.1540
 IR Inten    --      4.9652                 9.7997               110.8905

                     40                     41                     42
                      A                      A                      A
 Frequencies --   1483.2230              1493.0158              3009.9641
 Red. masses --      1.0555                 1.0498                 1.0847
 Frc consts  --      1.3682                 1.3787                 5.7899
 IR Inten    --      3.3072                 2.3957                45.3880

                     43                     44                     45
                      A                      A                      A
 Frequencies --   3031.9368              3060.4973              3084.3994
 Red. masses --      1.0353                 1.0867                 1.0890
 Frc consts  --      5.6073                 5.9971                 6.1041
 IR Inten    --     16.4357                50.2088                38.3935

                     46                     47                     48
                      A                      A                      A
 Frequencies --   3104.6820              3113.2329              3129.2288
 Red. masses --      1.1008                 1.1022                 1.0894
 Frc consts  --      6.2514                 6.2938                 6.2849
 IR Inten    --     22.6092                25.2746                23.1775

                     49                     50                     51
                      A                      A                      A
 Frequencies --   3157.6086              3174.4912              3810.7770
 Red. masses --      1.0893                 1.0950                 1.0658
 Frc consts  --      6.3992                 6.5016                 9.1187
 IR Inten    --     18.9240                14.5427                20.2880

 - Thermochemistry -
 -------------------
 Temperature   298.150 Kelvin.  Pressure   1.00000 Atm.
 Atom     1 has atomic number  6 and mass  12.00000

 Molecular mass:   126.06808 amu.
 Principal axes and moments of inertia in atomic units:
                           1         2         3
     Eigenvalues --   344.514431800.134251949.98539
           X            0.99978   0.01933  -0.00808
           Y           -0.01917   0.99963   0.01918
           Z            0.00845  -0.01903   0.99978
 This molecule is an asymmetric top.
 Rotational symmetry number  1.
 Rotational temperatures (Kelvin)      0.25141     0.04812     0.04442
 Rotational constants (GHZ):           5.23851     1.00256     0.92552
 Zero-point vibrational energy     416558.0 (Joules/Mol)
                                   99.55976 (Kcal/Mol)
 Warning -- explicit consideration of  10 degrees of freedom as
           vibrations may cause significant error
 Vibrational temperatures:    161.97   243.13   281.46   308.53   360.04
          (Kelvin)            430.91   514.78   592.99   666.74   689.39
                             1046.14  1104.70  1200.28  1214.70  1275.63
                             1296.77  1338.03  1365.58  1415.89  1460.49
                             1485.14  1509.46  1553.49  1573.11  1592.35
                             1613.39  1624.71  1650.96  1720.92  1751.74
                             1765.23  1822.05  1856.30  1871.51  1928.57
                             1946.60  1998.95  2021.95  2088.17  2134.02
                             2148.11  4330.66  4362.28  4403.37  4437.76
                             4466.94  4479.24  4502.26  4543.09  4567.38
                             5482.85

 Zero-point correction=                           0.158659 (Hartree/Particle)
 Thermal correction to Energy=                    0.166911
 Thermal correction to Enthalpy=                  0.167856
 Thermal correction to Gibbs Free Energy=         0.126078
 Sum of electronic and zero-point Energies=           -422.968345
 Sum of electronic and thermal Energies=              -422.960092
 Sum of electronic and thermal Enthalpies=            -422.959148
 Sum of electronic and thermal Free Energies=         -423.000925

                     E (Thermal)             CV                S
                      KCal/Mol        Cal/Mol-Kelvin    Cal/Mol-Kelvin
 Total                  104.738             31.899             87.928
 Electronic               0.000              0.000              0.000
 Translational            0.889              2.981             40.409
 Rotational               0.889              2.981             28.582
 Vibrational            102.961             25.937             18.937
 Vibration     1          0.607              1.939              3.224
 Vibration     2          0.625              1.881              2.447
 Vibration     3          0.636              1.846              2.174
 Vibration     4          0.644              1.819              2.006
 Vibration     5          0.663              1.762              1.729
 Vibration     6          0.692              1.675              1.420
 Vibration     7          0.733              1.559              1.132
 Vibration     8          0.776              1.444              0.919
 Vibration     9          0.821              1.331              0.756
 Vibration    10          0.836              1.296              0.712

 Optimization completed.
    -- Stationary point found.
 Normal termination of Gaussian 09 at Tue Jan 28 00:24:20 2020.
