 Gaussian 09, Revision D.01,
 Gaussian 09:  ES64L-G09RevD.01 24-Apr-2013

 -----------------------------
 # b3lyp 6-31G(2df,p) opt Freq
 -----------------------------

 -----
 titel
 -----
 Symbolic Z-matrix:
 Charge =  0 Multiplicity = 1

 SCF Done:  E(RB3LYP) =  -423.230288945     A.U. after   14 cycles
 Optimization completed.
    -- Stationary point found.
 Normal termination of Gaussian 09 at Mon Jan 27 22:13:22 2020.

 ----------------------------------------------------------------------
 #N Geom=AllCheck Guess=TCheck SCRF=Check GenChk RB3LYP/6-31G(2df,p) Fr
 eq
 ----------------------------------------------------------------------

 Structure from the checkpoint file:  "/scratch/puck/g09_52f40ffa-11e3-4cda-8bd1-a9e3de05435b/Gau-28396.chk"
 -----
 titel
 -----
 Charge =  0 Multiplicity = 1

                         Standard orientation:
 ---------------------------------------------------------------------
 Center     Atomic      Atomic             Coordinates (Angstroms)
 Number     Number       Type             X           Y           Z
 ---------------------------------------------------------------------
      1          6           0       -2.118963   -1.539527   -0.396901
      2          6           0       -0.854769   -0.728184   -0.575012
      3          6           0        0.104312   -0.574139    0.603800
      4          6           0        1.534093   -0.393672    0.218815
      5          8           0        2.490301   -1.040977    0.532345
      6          8           0        1.631565    0.688180   -0.620354
      7          6           0        0.419884    1.456069   -0.627446
      8          6           0       -0.656865    0.618658    0.061283
      9          6           0       -1.737008    1.366256    0.804535
     10          1           0       -2.526071   -1.455249    0.614289
     11          1           0       -2.895656   -1.216876   -1.098783
     12          1           0       -1.920662   -2.599821   -0.582846
     13          1           0       -0.379287   -0.864781   -1.544822
     14          1           0       -0.117122   -1.069588    1.539935
     15          1           0        0.599020    2.391277   -0.082678
     16          1           0        0.178073    1.698748   -1.667642
     17          1           0       -1.301933    2.032942    1.556875
     18          1           0       -2.330015    1.981353    0.117464
     19          1           0       -2.425386    0.691601    1.317832
 ---------------------------------------------------------------------

 SCF Done:  E(RB3LYP) =  -423.230288945     A.U. after    1 cycles

 The electronic state is 1-A.
 Alpha  occ. eigenvalues --  -19.17409 -19.11590 -10.29862 -10.24880 -10.21963
 Alpha  occ. eigenvalues --  -10.21429 -10.20681 -10.19809 -10.19430  -1.09273
 Alpha  occ. eigenvalues --   -1.01499  -0.89208  -0.75835  -0.73146  -0.70899
 Alpha  occ. eigenvalues --   -0.62649  -0.58280  -0.55831  -0.50573  -0.48439
 Alpha  occ. eigenvalues --   -0.46074  -0.45319  -0.42961  -0.42325  -0.41619
 Alpha  occ. eigenvalues --   -0.40934  -0.40307  -0.38651  -0.38247  -0.33903
 Alpha  occ. eigenvalues --   -0.30714  -0.29278  -0.28875  -0.25597
 Alpha virt. eigenvalues --    0.01452   0.07572   0.09448   0.10270   0.11571
 Alpha virt. eigenvalues --    0.11992   0.13699   0.14496   0.15368   0.16007
 Alpha virt. eigenvalues --    0.16333   0.18216   0.19749   0.20368   0.20421

 Mulliken charges:
               1
     1  C   -0.431757
     2  C   -0.048933
     3  C   -0.260928
     4  C    0.454574
     5  O   -0.349469
     6  O   -0.235368
     7  C   -0.138289
     8  C    0.289133
     9  C   -0.491874
    10  H    0.122461
    11  H    0.125762
    12  H    0.133395
    13  H    0.102148
    14  H    0.111704
    15  H    0.114122
    16  H    0.118861
    17  H    0.128116
    18  H    0.127124
    19  H    0.129217
 Sum of Mulliken charges =   0.00000

 Dipole moment (field-independent basis, Debye):
    X=             -4.5921    Y=              1.4936    Z=             -0.2175  Tot=              4.8338
 Quadrupole moment (field-independent basis, Debye-Ang):
   XX=            -63.1372   YY=            -51.8184   ZZ=            -51.5939
   XY=              3.6518   XZ=             -0.9446   YZ=              0.9364

  Exact polarizability:  84.144  -2.527  79.150   2.929  -2.064  64.597
 Approx polarizability: 117.851  -9.244 115.044   7.821  -7.359 101.301

                      1                      2                      3
                      A                      A                      A
 Frequencies --    130.8248               161.4967               174.6698
 Red. masses --      4.8966                 1.0663                 1.7929
 Frc consts  --      0.0494                 0.0164                 0.0322
 IR Inten    --      1.7427                 0.1942                 1.3730

                      4                      5                      6
                      A                      A                      A
 Frequencies --    184.5073               236.1504               249.7414
 Red. masses --      2.2685                 1.8372                 2.3243
 Frc consts  --      0.0455                 0.0604                 0.0854
 IR Inten    --      1.1975                 0.4965                 0.3186

                      7                      8                      9
                      A                      A                      A
 Frequencies --    303.6216               375.4036               437.8085
 Red. masses --      2.5250                 2.2760                 3.2681
 Frc consts  --      0.1371                 0.1890                 0.3691
 IR Inten    --      0.8653                 1.9817                 0.4004

                     10                     11                     12
                      A                      A                      A
 Frequencies --    499.8215               588.0472               670.0326
 Red. masses --      5.2073                 4.5230                 4.7313
 Frc consts  --      0.7665                 0.9215                 1.2515
 IR Inten    --      3.4188                 3.9123                 0.8886

                     13                     14                     15
                      A                      A                      A
 Frequencies --    714.3656               765.0201               820.5552
 Red. masses --      6.4412                 4.0606                 2.7509
 Frc consts  --      1.9367                 1.4002                 1.0913
 IR Inten    --      3.8645                 7.2081                 0.5602

                     16                     17                     18
                      A                      A                      A
 Frequencies --    874.8082               932.6673               958.5617
 Red. masses --      3.8046                 2.2564                 1.4926
 Frc consts  --      1.7155                 1.1565                 0.8080
 IR Inten    --     19.5623                 9.5091                 7.8470

                     19                     20                     21
                      A                      A                      A
 Frequencies --    973.3872              1000.6633              1049.0587
 Red. masses --      1.5682                 1.3770                 1.6393
 Frc consts  --      0.8754                 0.8124                 1.0630
 IR Inten    --      4.9773                 6.4555                22.6226

                     22                     23                     24
                      A                      A                      A
 Frequencies --   1059.1292              1099.6151              1119.1094
 Red. masses --      3.7342                 2.1455                 2.4139
 Frc consts  --      2.4680                 1.5285                 1.7812
 IR Inten    --     66.6327                32.2727                13.4081

                     25                     26                     27
                      A                      A                      A
 Frequencies --   1130.0522              1142.5343              1176.9644
 Red. masses --      1.7556                 1.6821                 2.4102
 Frc consts  --      1.3209                 1.2938                 1.9671
 IR Inten    --     21.8185                 6.0089                80.7573

                     28                     29                     30
                      A                      A                      A
 Frequencies --   1226.4370              1239.8086              1277.8606
 Red. masses --      1.6285                 1.2244                 2.2951
 Frc consts  --      1.4432                 1.1089                 2.2081
 IR Inten    --      1.4715                 8.8090                12.2604

                     31                     32                     33
                      A                      A                      A
 Frequencies --   1348.8046              1394.4917              1416.9868
 Red. masses --      1.7335                 1.5542                 1.3456
 Frc consts  --      1.8581                 1.7807                 1.5918
 IR Inten    --     15.7733                19.7095                 0.1770

                     34                     35                     36
                      A                      A                      A
 Frequencies --   1426.6155              1450.2175              1486.4007
 Red. masses --      1.2744                 2.3201                 1.0492
 Frc consts  --      1.5281                 2.8750                 1.3658
 IR Inten    --      4.3406                 2.2500                 4.8191

                     37                     38                     39
                      A                      A                      A
 Frequencies --   1492.5848              1498.7057              1511.1758
 Red. masses --      1.0485                 1.0617                 1.1086
 Frc consts  --      1.3762                 1.4051                 1.4917
 IR Inten    --      1.3873                 2.2956                 8.1829

                     40                     41                     42
                      A                      A                      A
 Frequencies --   1520.8663              1881.0934              3025.1425
 Red. masses --      1.1048                12.6743                 1.0564
 Frc consts  --      1.5056                26.4237                 5.6962
 IR Inten    --      4.3574               443.3443                28.7795

                     43                     44                     45
                      A                      A                      A
 Frequencies --   3031.7845              3037.3838              3073.6872
 Red. masses --      1.0411                 1.0371                 1.1061
 Frc consts  --      5.6381                 5.6375                 6.1569
 IR Inten    --     50.0890                25.8453                21.8142

                     46                     47                     48
                      A                      A                      A
 Frequencies --   3088.1669              3098.9047              3106.3313
 Red. masses --      1.1004                 1.1009                 1.0957
 Frc consts  --      6.1828                 6.2287                 6.2290
 IR Inten    --     19.7802                17.4867                 6.2231

                     49                     50                     51
                      A                      A                      A
 Frequencies --   3122.0549              3127.8180              3206.9648
 Red. masses --      1.0938                 1.0961                 1.0918
 Frc consts  --      6.2814                 6.3182                 6.6160
 IR Inten    --     18.9317                24.5161                 1.9634

 - Thermochemistry -
 -------------------
 Temperature   298.150 Kelvin.  Pressure   1.00000 Atm.
 Atom     1 has atomic number  6 and mass  12.00000

 Molecular mass:   126.06808 amu.
 Principal axes and moments of inertia in atomic units:
                           1         2         3
     Eigenvalues --   696.877211268.039361624.41899
           X            0.99940   0.03317  -0.00976
           Y           -0.03288   0.99905   0.02851
           Z            0.01070  -0.02817   0.99955
 This molecule is an asymmetric top.
 Rotational symmetry number  1.
 Warning -- assumption of classical behavior for rotation
           may cause significant error
 Rotational temperatures (Kelvin)      0.12429     0.06831     0.05332
 Rotational constants (GHZ):           2.58975     1.42325     1.11101
 Zero-point vibrational energy     418207.9 (Joules/Mol)
                                   99.95409 (Kcal/Mol)
 Warning -- explicit consideration of  11 degrees of freedom as
           vibrations may cause significant error
 Vibrational temperatures:    188.23   232.36   251.31   265.46   339.77
          (Kelvin)            359.32   436.84   540.12   629.91   719.13
                              846.07   964.03  1027.81  1100.69  1180.59
                             1258.65  1341.90  1379.15  1400.49  1439.73
                             1509.36  1523.85  1582.10  1610.15  1625.89
                             1643.85  1693.39  1764.57  1783.81  1838.55
                             1940.63  2006.36  2038.73  2052.58  2086.54
                             2138.60  2147.49  2156.30  2174.24  2188.18
                             2706.47  4352.50  4362.06  4370.11  4422.34
                             4443.18  4458.63  4469.31  4491.93  4500.23
                             4614.10

 Zero-point correction=                           0.159287 (Hartree/Particle)
 Thermal correction to Energy=                    0.167910
 Thermal correction to Enthalpy=                  0.168854
 Thermal correction to Gibbs Free Energy=         0.126284
 Sum of electronic and zero-point Energies=           -423.071002
 Sum of electronic and thermal Energies=              -423.062379
 Sum of electronic and thermal Enthalpies=            -423.061435
 Sum of electronic and thermal Free Energies=         -423.104005

                     E (Thermal)             CV                S
                      KCal/Mol        Cal/Mol-Kelvin    Cal/Mol-Kelvin
 Total                  105.365             32.508             89.597
 Electronic               0.000              0.000              0.000
 Translational            0.889              2.981             40.409
 Rotational               0.889              2.981             28.753
 Vibrational            103.588             26.547             20.436
 Vibration     1          0.612              1.922              2.934
 Vibration     2          0.622              1.890              2.532
 Vibration     3          0.627              1.874              2.385
 Vibration     4          0.631              1.861              2.282
 Vibration     5          0.655              1.785              1.832
 Vibration     6          0.663              1.763              1.732
 Vibration     7          0.695              1.667              1.397
 Vibration     8          0.746              1.523              1.058
 Vibration     9          0.798              1.388              0.834
 Vibration    10          0.855              1.250              0.659
 Vibration    11          0.945              1.057              0.471

 Optimization completed.
    -- Stationary point found.
 Normal termination of Gaussian 09 at Tue Jan 28 00:24:39 2020.
