 Gaussian 09, Revision D.01,
 Gaussian 09:  ES64L-G09RevD.01 24-Apr-2013

 -----------------------------
 # b3lyp 6-31G(2df,p) opt Freq
 -----------------------------

 -----
 titel
 -----
 Symbolic Z-matrix:
 Charge =  0 Multiplicity = 1

 SCF Done:  E(RB3LYP) =  -423.089985737     A.U. after   13 cycles
 SCF Done:  E(RB3LYP) =  -423.089986184     A.U. after    7 cycles
 SCF Done:  E(RB3LYP) =  -423.089986475     A.U. after    6 cycles
 SCF Done:  E(RB3LYP) =  -423.089986547     A.U. after    6 cycles
 Optimization completed.
    -- Stationary point found.
 Normal termination of Gaussian 09 at Mon Jan 27 23:18:32 2020.

 ----------------------------------------------------------------------
 #N Geom=AllCheck Guess=TCheck SCRF=Check GenChk RB3LYP/6-31G(2df,p) Fr
 eq
 ----------------------------------------------------------------------

 Structure from the checkpoint file:  "/scratch/puck/g09_20521173-4e34-47e7-96f9-eed9f5951690/Gau-179068.chk"
 -----
 titel
 -----
 Charge =  0 Multiplicity = 1

                         Standard orientation:
 ---------------------------------------------------------------------
 Center     Atomic      Atomic             Coordinates (Angstroms)
 Number     Number       Type             X           Y           Z
 ---------------------------------------------------------------------
      1          6           0        2.077013    1.506772    0.000006
      2          6           0        1.728452    0.026221    0.000043
      3          6           0        0.648749   -0.636593   -0.903943
      4          8           0        0.689588   -1.811435    0.000087
      5          6           0        0.648622   -0.636464    0.903959
      6          6           0       -0.479539   -0.074505   -0.000110
      7          6           0       -1.156029    1.310623   -0.000124
      8          6           0       -2.464739    0.501930    0.000178
      9          8           0       -1.736218   -0.744990   -0.000152
     10          1           0        2.678707    1.751331    0.882119
     11          1           0        2.680648    1.750784   -0.880927
     12          1           0        1.208241    2.166028   -0.001173
     13          1           0        2.627097   -0.595714    0.000166
     14          1           0        0.652649   -0.828357   -1.977975
     15          1           0        0.652396   -0.828075    1.978019
     16          1           0       -0.979076    1.917261    0.889616
     17          1           0       -0.979451    1.916943   -0.890161
     18          1           0       -3.091383    0.606574    0.893149
     19          1           0       -3.091966    0.606716   -0.892359
 ---------------------------------------------------------------------

 SCF Done:  E(RB3LYP) =  -423.089986547     A.U. after    1 cycles

 The electronic state is 1-A.
 Alpha  occ. eigenvalues --  -19.13508 -19.12994 -10.24692 -10.23984 -10.23981
 Alpha  occ. eigenvalues --  -10.23362 -10.19951 -10.19632 -10.18429  -1.06585
 Alpha  occ. eigenvalues --   -1.02976  -0.79818  -0.74370  -0.71890  -0.65909
 Alpha  occ. eigenvalues --   -0.65163  -0.58855  -0.51826  -0.51206  -0.48914
 Alpha  occ. eigenvalues --   -0.47486  -0.44372  -0.42637  -0.41292  -0.39301
 Alpha  occ. eigenvalues --   -0.38493  -0.37984  -0.35519  -0.35511  -0.31696
 Alpha  occ. eigenvalues --   -0.31087  -0.30109  -0.24289  -0.23502
 Alpha virt. eigenvalues --    0.06577   0.09176   0.10148   0.11327   0.12195
 Alpha virt. eigenvalues --    0.12993   0.13265   0.14387   0.14698   0.16216
 Alpha virt. eigenvalues --    0.16406   0.17505   0.18124   0.19330   0.20629

 Mulliken charges:
               1
     1  C   -0.449427
     2  C    0.043379
     3  C   -0.068324
     4  O   -0.308401
     5  C   -0.068305
     6  C    0.538007
     7  C   -0.385856
     8  C   -0.092587
     9  O   -0.309408
    10  H    0.124816
    11  H    0.124815
    12  H    0.124728
    13  H    0.090745
    14  H    0.091475
    15  H    0.091475
    16  H    0.119459
    17  H    0.119463
    18  H    0.106970
    19  H    0.106977
 Sum of Mulliken charges =   0.00000

 Dipole moment (field-independent basis, Debye):
    X=              0.3540    Y=              3.5123    Z=              0.0002  Tot=              3.5301
 Quadrupole moment (field-independent basis, Debye-Ang):
   XX=            -51.3183   YY=            -58.8332   ZZ=            -49.4723
   XY=             -1.9623   XZ=             -0.0007   YZ=              0.0003

  Exact polarizability:  87.394  -0.955  70.985  -0.001   0.001  68.599
 Approx polarizability: 112.229  -1.096 109.246  -0.001   0.002 107.703

                      1                      2                      3
                      A                      A                      A
 Frequencies --     99.8650               167.4997               187.3654
 Red. masses --      2.0524                 1.0919                 2.7261
 Frc consts  --      0.0121                 0.0180                 0.0564
 IR Inten    --      1.0158                 0.0616                 0.6855

                      4                      5                      6
                      A                      A                      A
 Frequencies --    194.8536               305.4189               331.1727
 Red. masses --      3.7557                 4.2666                 2.6182
 Frc consts  --      0.0840                 0.2345                 0.1692
 IR Inten    --      0.2791                 0.0847                 0.1154

                      7                      8                      9
                      A                      A                      A
 Frequencies --    387.9523               458.8693               601.2785
 Red. masses --      3.0326                 5.1248                 4.8462
 Frc consts  --      0.2689                 0.6358                 1.0323
 IR Inten    --      0.6817                 1.7233                 6.3094

                     10                     11                     12
                      A                      A                      A
 Frequencies --    624.6786               758.2084               764.9147
 Red. masses --      4.1557                 3.1826                 2.1169
 Frc consts  --      0.9555                 1.0780                 0.7298
 IR Inten    --      8.3042                 5.3149                 6.3546

                     13                     14                     15
                      A                      A                      A
 Frequencies --    798.5239               816.0912               869.7530
 Red. masses --      1.9429                 1.5558                 4.8774
 Frc consts  --      0.7299                 0.6105                 2.1739
 IR Inten    --      4.9664                 4.2136                 6.9961

                     16                     17                     18
                      A                      A                      A
 Frequencies --    880.1010               884.6436               976.5662
 Red. masses --      2.2474                 3.3241                 2.4626
 Frc consts  --      1.0256                 1.5327                 1.3837
 IR Inten    --      3.9429                34.7687                 4.7480

                     19                     20                     21
                      A                      A                      A
 Frequencies --   1015.9638              1019.1222              1026.0085
 Red. masses --      1.7097                 1.1008                 7.6382
 Frc consts  --      1.0398                 0.6736                 4.7374
 IR Inten    --     38.2734                 1.3149               117.4189

                     22                     23                     24
                      A                      A                      A
 Frequencies --   1091.2308              1104.4214              1121.0883
 Red. masses --      5.4205                 1.8363                 3.1555
 Frc consts  --      3.8030                 1.3197                 2.3367
 IR Inten    --      9.7815                 0.1831                 5.9267

                     25                     26                     27
                      A                      A                      A
 Frequencies --   1135.5428              1143.2317              1148.6513
 Red. masses --      1.6529                 1.4439                 3.1249
 Frc consts  --      1.2557                 1.1119                 2.4292
 IR Inten    --      0.3718                 2.9930                38.8864

                     28                     29                     30
                      A                      A                      A
 Frequencies --   1167.0566              1210.5081              1219.2870
 Red. masses --      1.1491                 2.1214                 1.2750
 Frc consts  --      0.9221                 1.8315                 1.1168
 IR Inten    --      0.1906                 9.1668                 0.0109

                     31                     32                     33
                      A                      A                      A
 Frequencies --   1237.0035              1254.2707              1266.4947
 Red. masses --      1.4547                 1.4266                 1.6410
 Frc consts  --      1.3115                 1.3223                 1.5509
 IR Inten    --      4.5509                 3.6109                 7.4764

                     34                     35                     36
                      A                      A                      A
 Frequencies --   1322.4757              1353.0627              1395.3550
 Red. masses --      2.9044                 1.4458                 1.5689
 Frc consts  --      2.9928                 1.5595                 1.7997
 IR Inten    --     49.1588                 4.0936                 6.7111

                     37                     38                     39
                      A                      A                      A
 Frequencies --   1415.0010              1486.6747              1497.7806
 Red. masses --      1.2769                 1.1110                 1.0458
 Frc consts  --      1.5064                 1.4468                 1.3822
 IR Inten    --      6.1020                 2.8136                 2.1477

                     40                     41                     42
                      A                      A                      A
 Frequencies --   1501.1818              1533.6571              3025.8473
 Red. masses --      1.0553                 1.1159                 1.0552
 Frc consts  --      1.4012                 1.5464                 5.6922
 IR Inten    --      2.5258                 1.1902                92.0766

                     43                     44                     45
                      A                      A                      A
 Frequencies --   3040.5064              3067.2467              3078.3052
 Red. masses --      1.0406                 1.1119                 1.0596
 Frc consts  --      5.6679                 6.1631                 5.9160
 IR Inten    --     24.0797                30.3652                18.4976

                     46                     47                     48
                      A                      A                      A
 Frequencies --   3083.0633              3093.9852              3108.2595
 Red. masses --      1.0842                 1.1003                 1.0898
 Frc consts  --      6.0719                 6.2060                 6.2034
 IR Inten    --     13.6848                17.2478                82.5747

                     49                     50                     51
                      A                      A                      A
 Frequencies --   3115.1183              3133.3045              3144.2512
 Red. masses --      1.0959                 1.1085                 1.0952
 Frc consts  --      6.2654                 6.4118                 6.3796
 IR Inten    --      3.8408                16.7994                24.1782

 - Thermochemistry -
 -------------------
 Temperature   298.150 Kelvin.  Pressure   1.00000 Atm.
 Atom     1 has atomic number  6 and mass  12.00000

 Molecular mass:   126.06808 amu.
 Principal axes and moments of inertia in atomic units:
                           1         2         3
     Eigenvalues --   623.227141151.465351544.24265
           X            0.99991   0.01346   0.00000
           Y           -0.01346   0.99991   0.00000
           Z            0.00000   0.00000   1.00000
 This molecule is an asymmetric top.
 Rotational symmetry number  1.
 Warning -- assumption of classical behavior for rotation
           may cause significant error
 Rotational temperatures (Kelvin)      0.13898     0.07522     0.05609
 Rotational constants (GHZ):           2.89580     1.56734     1.16869
 Zero-point vibrational energy     416675.6 (Joules/Mol)
                                   99.58785 (Kcal/Mol)
 Warning -- explicit consideration of   9 degrees of freedom as
           vibrations may cause significant error
 Vibrational temperatures:    143.68   240.99   269.58   280.35   439.43
          (Kelvin)            476.48   558.18   660.21   865.10   898.77
                             1090.89  1100.54  1148.90  1174.17  1251.38
                             1266.27  1272.80  1405.06  1461.74  1466.29
                             1476.20  1570.04  1589.01  1612.99  1633.79
                             1644.85  1652.65  1679.13  1741.65  1754.28
                             1779.77  1804.61  1822.20  1902.75  1946.75
                             2007.60  2035.87  2138.99  2154.97  2159.86
                             2206.59  4353.51  4374.61  4413.08  4428.99
                             4435.83  4451.55  4472.09  4481.95  4508.12
                             4523.87

 Zero-point correction=                           0.158703 (Hartree/Particle)
 Thermal correction to Energy=                    0.166646
 Thermal correction to Enthalpy=                  0.167591
 Thermal correction to Gibbs Free Energy=         0.126286
 Sum of electronic and zero-point Energies=           -422.931283
 Sum of electronic and thermal Energies=              -422.923340
 Sum of electronic and thermal Enthalpies=            -422.922396
 Sum of electronic and thermal Free Energies=         -422.963700

                     E (Thermal)             CV                S
                      KCal/Mol        Cal/Mol-Kelvin    Cal/Mol-Kelvin
 Total                  104.572             30.859             86.932
 Electronic               0.000              0.000              0.000
 Translational            0.889              2.981             40.409
 Rotational               0.889              2.981             28.496
 Vibrational            102.795             24.897             18.028
 Vibration     1          0.604              1.949              3.457
 Vibration     2          0.624              1.882              2.463
 Vibration     3          0.632              1.857              2.254
 Vibration     4          0.636              1.847              2.181
 Vibration     5          0.696              1.663              1.387
 Vibration     6          0.714              1.613              1.254
 Vibration     7          0.756              1.496              1.008
 Vibration     8          0.817              1.341              0.769
 Vibration     9          0.960              1.029              0.447

 Normal termination of Gaussian 09 at Tue Jan 28 00:03:53 2020.
