 Gaussian 09, Revision D.01,
 Gaussian 09:  ES64L-G09RevD.01 24-Apr-2013

 -----------------------------
 # b3lyp 6-31G(2df,p) opt Freq
 -----------------------------

 -----
 titel
 -----
 Symbolic Z-matrix:
 Charge =  0 Multiplicity = 1

 SCF Done:  E(RB3LYP) =  -423.217896505     A.U. after   14 cycles
 Optimization completed.
    -- Stationary point found.
 Normal termination of Gaussian 09 at Mon Jan 27 22:03:35 2020.

 ----------------------------------------------------------------------
 #N Geom=AllCheck Guess=TCheck SCRF=Check GenChk RB3LYP/6-31G(2df,p) Fr
 eq
 ----------------------------------------------------------------------

 Structure from the checkpoint file:  "/scratch/puck/g09_bcee2090-8aac-4179-abc0-b67f4dcd7d42/Gau-76233.chk"
 -----
 titel
 -----
 Charge =  0 Multiplicity = 1

                         Standard orientation:
 ---------------------------------------------------------------------
 Center     Atomic      Atomic             Coordinates (Angstroms)
 Number     Number       Type             X           Y           Z
 ---------------------------------------------------------------------
      1          6           0       -2.627734   -0.063264   -0.422430
      2          6           0       -1.172186    0.256004   -0.210485
      3          6           0       -0.705977    1.502538   -0.070166
      4          6           0        0.738152    1.877945    0.133192
      5          6           0        1.613644    0.679816    0.557179
      6          6           0        1.226885   -0.532504   -0.265924
      7          8           0        1.987385   -1.124842   -0.992853
      8          6           0       -0.245998   -0.938037   -0.121926
      9          8           0       -0.435373   -1.651205    1.111347
     10          1           0       -2.975057   -0.790310    0.319939
     11          1           0       -3.253140    0.830702   -0.356018
     12          1           0       -2.787542   -0.520524   -1.407068
     13          1           0       -1.409332    2.331797   -0.124874
     14          1           0        1.134688    2.303632   -0.799571
     15          1           0        0.813848    2.680962    0.875906
     16          1           0        2.678553    0.884777    0.433882
     17          1           0        1.426728    0.453651    1.614726
     18          1           0       -0.461297   -1.666269   -0.910152
     19          1           0       -0.544255   -0.995034    1.808644
 ---------------------------------------------------------------------

 SCF Done:  E(RB3LYP) =  -423.217896505     A.U. after    1 cycles

 The electronic state is 1-A.
 Alpha  occ. eigenvalues --  -19.14964 -19.12958 -10.26347 -10.23865 -10.20562
 Alpha  occ. eigenvalues --  -10.20097 -10.19668 -10.19621 -10.18757  -1.04314
 Alpha  occ. eigenvalues --   -1.02308  -0.84010  -0.77806  -0.72175  -0.69483
 Alpha  occ. eigenvalues --   -0.63486  -0.56402  -0.54083  -0.48731  -0.47384
 Alpha  occ. eigenvalues --   -0.46442  -0.45449  -0.43135  -0.41988  -0.40836
 Alpha  occ. eigenvalues --   -0.39862  -0.38718  -0.38011  -0.35554  -0.35007
 Alpha  occ. eigenvalues --   -0.32871  -0.30310  -0.25668  -0.23105
 Alpha virt. eigenvalues --   -0.01932   0.00715   0.06513   0.10029   0.11304
 Alpha virt. eigenvalues --    0.12819   0.14133   0.15295   0.15640   0.16970
 Alpha virt. eigenvalues --    0.17063   0.18884   0.20177   0.21814   0.22205

 Mulliken charges:
               1
     1  C   -0.478418
     2  C    0.252886
     3  C   -0.142609
     4  C   -0.261344
     5  C   -0.315235
     6  C    0.390537
     7  O   -0.313092
     8  C   -0.043831
     9  O   -0.434351
    10  H    0.137719
    11  H    0.120677
    12  H    0.132602
    13  H    0.089825
    14  H    0.130555
    15  H    0.113692
    16  H    0.121814
    17  H    0.113494
    18  H    0.103381
    19  H    0.281696
 Sum of Mulliken charges =   0.00000

 Dipole moment (field-independent basis, Debye):
    X=             -1.8689    Y=              3.0971    Z=              1.4341  Tot=              3.8912
 Quadrupole moment (field-independent basis, Debye-Ang):
   XX=            -55.4243   YY=            -56.1418   ZZ=            -52.2920
   XY=              3.6319   XZ=              3.6451   YZ=              0.2677

  Exact polarizability:  86.589   4.846  85.622   0.513   4.268  62.311
 Approx polarizability: 115.216   6.580 135.092  -5.040   8.169 100.929

                      1                      2                      3
                      A                      A                      A
 Frequencies --     60.5610               122.0304               182.4217
 Red. masses --      4.9975                 3.3600                 1.0682
 Frc consts  --      0.0108                 0.0295                 0.0209
 IR Inten    --      0.3418                 2.8484                 0.6051

                      4                      5                      6
                      A                      A                      A
 Frequencies --    217.3663               238.1218               272.5934
 Red. masses --      3.2786                 4.2503                 1.8518
 Frc consts  --      0.0913                 0.1420                 0.0811
 IR Inten    --      7.4908                 6.1249                 9.7895

                      7                      8                      9
                      A                      A                      A
 Frequencies --    301.9797               317.0944               407.1129
 Red. masses --      1.4393                 1.9802                 3.6431
 Frc consts  --      0.0773                 0.1173                 0.3558
 IR Inten    --     38.9946                31.9360                 1.1130

                     10                     11                     12
                      A                      A                      A
 Frequencies --    468.0000               509.4869               592.4530
 Red. masses --      4.5756                 3.9575                 3.4876
 Frc consts  --      0.5905                 0.6053                 0.7213
 IR Inten    --      3.5232                14.3806                 3.7817

                     13                     14                     15
                      A                      A                      A
 Frequencies --    610.4933               713.1522               764.3098
 Red. masses --      3.2059                 3.7221                 1.9228
 Frc consts  --      0.7040                 1.1153                 0.6618
 IR Inten    --      1.2536                 1.5845                 9.0324

                     16                     17                     18
                      A                      A                      A
 Frequencies --    855.2679               866.4465               909.7894
 Red. masses --      1.9214                 1.8814                 2.3894
 Frc consts  --      0.8281                 0.8322                 1.1652
 IR Inten    --      3.0096                 0.9839                 3.8512

                     19                     20                     21
                      A                      A                      A
 Frequencies --    939.6319              1008.5825              1024.6362
 Red. masses --      2.1690                 1.9053                 2.8189
 Frc consts  --      1.1283                 1.1419                 1.7437
 IR Inten    --     28.9108                33.3245                38.8834

                     22                     23                     24
                      A                      A                      A
 Frequencies --   1046.6985              1068.4545              1083.8325
 Red. masses --      2.4258                 1.5074                 1.8866
 Frc consts  --      1.5659                 1.0139                 1.3057
 IR Inten    --     21.8015                 0.9602                 1.4169

                     25                     26                     27
                      A                      A                      A
 Frequencies --   1151.4037              1162.0849              1210.8797
 Red. masses --      1.4949                 1.8981                 1.8210
 Frc consts  --      1.1676                 1.5102                 1.5732
 IR Inten    --      3.6080                 1.0201                22.7076

                     28                     29                     30
                      A                      A                      A
 Frequencies --   1244.8871              1258.5102              1300.6369
 Red. masses --      1.3851                 1.5296                 1.4005
 Frc consts  --      1.2647                 1.4274                 1.3959
 IR Inten    --     18.6089                13.8870                 6.7241

                     31                     32                     33
                      A                      A                      A
 Frequencies --   1323.5381              1371.2309              1372.6327
 Red. masses --      1.5489                 1.6072                 1.5913
 Frc consts  --      1.5986                 1.7805                 1.7665
 IR Inten    --      0.1452                 2.6690                13.7068

                     34                     35                     36
                      A                      A                      A
 Frequencies --   1404.6226              1410.8194              1469.6034
 Red. masses --      1.3253                 1.2368                 1.0889
 Frc consts  --      1.5406                 1.4504                 1.3856
 IR Inten    --     30.9241                20.8191                 7.1958

                     37                     38                     39
                      A                      A                      A
 Frequencies --   1475.9515              1486.0560              1493.9211
 Red. masses --      1.0470                 1.0941                 1.0555
 Frc consts  --      1.3438                 1.4236                 1.3879
 IR Inten    --      8.7835                 3.3872                 8.3996

                     40                     41                     42
                      A                      A                      A
 Frequencies --   1728.1518              1828.8876              3011.3017
 Red. masses --      6.9972                11.3569                 1.0669
 Frc consts  --     12.3124                22.3813                 5.7003
 IR Inten    --      0.4514               174.4713                21.3929

                     43                     44                     45
                      A                      A                      A
 Frequencies --   3024.1532              3031.4715              3052.0975
 Red. masses --      1.0385                 1.0672                 1.0920
 Frc consts  --      5.5957                 5.7782                 5.9934
 IR Inten    --     21.5884                12.9161                25.9939

                     46                     47                     48
                      A                      A                      A
 Frequencies --   3069.5170              3079.0997              3116.5163
 Red. masses --      1.0851                 1.0963                 1.1014
 Frc consts  --      6.0235                 6.1238                 6.3026
 IR Inten    --     16.8265                14.9818                14.5241

                     49                     50                     51
                      A                      A                      A
 Frequencies --   3119.4231              3141.0001              3803.3302
 Red. masses --      1.0970                 1.0890                 1.0663
 Frc consts  --      6.2894                 6.3300                 9.0877
 IR Inten    --     16.2514                23.6709                15.1708

 - Thermochemistry -
 -------------------
 Temperature   298.150 Kelvin.  Pressure   1.00000 Atm.
 Atom     1 has atomic number  6 and mass  12.00000

 Molecular mass:   126.06808 amu.
 Principal axes and moments of inertia in atomic units:
                           1         2         3
     Eigenvalues --   824.720601154.636941596.72639
           X            0.99694   0.07120   0.03229
           Y           -0.07162   0.99736   0.01203
           Z           -0.03135  -0.01431   0.99941
 This molecule is an asymmetric top.
 Rotational symmetry number  1.
 Warning -- assumption of classical behavior for rotation
           may cause significant error
 Rotational temperatures (Kelvin)      0.10502     0.07501     0.05424
 Rotational constants (GHZ):           2.18831     1.56304     1.13028
 Zero-point vibrational energy     417031.6 (Joules/Mol)
                                   99.67295 (Kcal/Mol)
 Warning -- explicit consideration of  13 degrees of freedom as
           vibrations may cause significant error
 Vibrational temperatures:     87.13   175.57   262.46   312.74   342.60
          (Kelvin)            392.20   434.48   456.23   585.74   673.35
                              733.04   852.41   878.36  1026.07  1099.67
                             1230.54  1246.62  1308.98  1351.92  1451.12
                             1474.22  1505.96  1537.27  1559.39  1656.61
                             1671.98  1742.18  1791.11  1810.71  1871.32
                             1904.27  1972.89  1974.91  2020.94  2029.85
                             2114.43  2123.56  2138.10  2149.42  2486.42
                             2631.36  4332.59  4351.08  4361.61  4391.28
                             4416.34  4430.13  4483.97  4488.15  4519.19
                             5472.14

 Zero-point correction=                           0.158839 (Hartree/Particle)
 Thermal correction to Energy=                    0.167898
 Thermal correction to Enthalpy=                  0.168843
 Thermal correction to Gibbs Free Energy=         0.125018
 Sum of electronic and zero-point Energies=           -423.059058
 Sum of electronic and thermal Energies=              -423.049998
 Sum of electronic and thermal Enthalpies=            -423.049054
 Sum of electronic and thermal Free Energies=         -423.092879

                     E (Thermal)             CV                S
                      KCal/Mol        Cal/Mol-Kelvin    Cal/Mol-Kelvin
 Total                  105.358             33.750             92.237
 Electronic               0.000              0.000              0.000
 Translational            0.889              2.981             40.409
 Rotational               0.889              2.981             28.810
 Vibrational            103.580             27.789             23.018
 Vibration     1          0.597              1.973              4.439
 Vibration     2          0.610              1.931              3.068
 Vibration     3          0.630              1.864              2.303
 Vibration     4          0.646              1.815              1.981
 Vibration     5          0.656              1.782              1.817
 Vibration     6          0.676              1.724              1.580
 Vibration     7          0.694              1.670              1.406
 Vibration     8          0.704              1.641              1.325
 Vibration     9          0.772              1.455              0.937
 Vibration    10          0.825              1.321              0.743
 Vibration    11          0.865              1.229              0.635
 Vibration    12          0.950              1.048              0.463
 Vibration    13          0.970              1.010              0.432

 Normal termination of Gaussian 09 at Mon Jan 27 22:44:09 2020.
