 Gaussian 09, Revision D.01,
 Gaussian 09:  ES64L-G09RevD.01 24-Apr-2013

 -----------------------------
 # b3lyp 6-31G(2df,p) opt Freq
 -----------------------------

 -----
 titel
 -----
 Symbolic Z-matrix:
 Charge =  0 Multiplicity = 1

 SCF Done:  E(RB3LYP) =  -423.187670450     A.U. after   13 cycles
 Optimization completed.
    -- Stationary point found.
 Normal termination of Gaussian 09 at Tue Jan 28 03:53:02 2020.

 ----------------------------------------------------------------------
 #N Geom=AllCheck Guess=TCheck SCRF=Check GenChk RB3LYP/6-31G(2df,p) Fr
 eq
 ----------------------------------------------------------------------

 Structure from the checkpoint file:  "/scratch/puck/g09_1e52dfe3-d0a2-46d5-a4aa-d6723841010c/Gau-114649.chk"
 -----
 titel
 -----
 Charge =  0 Multiplicity = 1

                         Standard orientation:
 ---------------------------------------------------------------------
 Center     Atomic      Atomic             Coordinates (Angstroms)
 Number     Number       Type             X           Y           Z
 ---------------------------------------------------------------------
      1          6           0       -2.434240   -0.019411   -0.071398
      2          6           0       -1.061586    0.446795   -0.540562
      3          8           0       -0.383844   -0.649237   -1.177596
      4          6           0        0.924548   -0.877131   -0.623433
      5          6           0        0.719443   -1.239835    0.857412
      6          8           0        0.066262   -0.148410    1.509060
      7          6           0       -0.154939    0.953069    0.606168
      8          6           0        1.156044    1.384639   -0.005486
      9          6           0        1.742476    0.391267   -0.674023
     10          1           0       -2.337190   -0.738750    0.745165
     11          1           0       -3.025936    0.832154    0.281799
     12          1           0       -2.970767   -0.491796   -0.898414
     13          1           0       -1.178390    1.255484   -1.277553
     14          1           0        1.355033   -1.707077   -1.185230
     15          1           0        0.079827   -2.128362    0.930649
     16          1           0        1.677332   -1.446330    1.353433
     17          1           0       -0.648257    1.729636    1.192116
     18          1           0        1.542026    2.391864    0.099100
     19          1           0        2.696513    0.447993   -1.184851
 ---------------------------------------------------------------------

 SCF Done:  E(RB3LYP) =  -423.187670450     A.U. after    1 cycles

 The electronic state is 1-A.
 Alpha  occ. eigenvalues --  -19.13897 -19.13605 -10.23757 -10.23597 -10.22977
 Alpha  occ. eigenvalues --  -10.22551 -10.18690 -10.18598 -10.16969  -1.05135
 Alpha  occ. eigenvalues --   -1.00486  -0.80295  -0.79136  -0.71669  -0.64935
 Alpha  occ. eigenvalues --   -0.63666  -0.59285  -0.53060  -0.50433  -0.49684
 Alpha  occ. eigenvalues --   -0.47791  -0.43651  -0.42171  -0.41586  -0.40077
 Alpha  occ. eigenvalues --   -0.39959  -0.37691  -0.36167  -0.35399  -0.34365
 Alpha  occ. eigenvalues --   -0.30484  -0.26312  -0.24552  -0.24165
 Alpha virt. eigenvalues --    0.00067   0.08662   0.11660   0.12444   0.12946
 Alpha virt. eigenvalues --    0.13891   0.14747   0.16385   0.16827   0.17350
 Alpha virt. eigenvalues --    0.17917   0.19233   0.19949   0.20635   0.21376

 Mulliken charges:
               1
     1  C   -0.407035
     2  C    0.152830
     3  O   -0.298748
     4  C    0.032072
     5  C   -0.069501
     6  O   -0.277073
     7  C    0.022705
     8  C   -0.078548
     9  C   -0.077059
    10  H    0.132529
    11  H    0.107934
    12  H    0.123166
    13  H    0.072829
    14  H    0.081175
    15  H    0.103278
    16  H    0.097073
    17  H    0.079959
    18  H    0.101087
    19  H    0.101326
 Sum of Mulliken charges =   0.00000

 Dipole moment (field-independent basis, Debye):
    X=              0.8289    Y=              0.6605    Z=             -0.3051  Tot=              1.1029
 Quadrupole moment (field-independent basis, Debye-Ang):
   XX=            -49.9877   YY=            -49.1997   ZZ=            -58.1674
   XY=             -2.1110   XZ=             -1.5326   YZ=             -0.2555

  Exact polarizability:  82.924  -3.199  77.990  -4.153   1.766  63.213
 Approx polarizability: 112.108  -8.612 120.891  -8.037   8.935 101.978

                      1                      2                      3
                      A                      A                      A
 Frequencies --    130.7635               219.4996               258.9299
 Red. masses --      3.1810                 1.0614                 2.9865
 Frc consts  --      0.0320                 0.0301                 0.1180
 IR Inten    --      2.1133                 0.4068                 4.7238

                      4                      5                      6
                      A                      A                      A
 Frequencies --    307.5932               372.0002               410.0939
 Red. masses --      2.3482                 2.6129                 4.1108
 Frc consts  --      0.1309                 0.2130                 0.4073
 IR Inten    --      2.9027                 1.3266                 1.1691

                      7                      8                      9
                      A                      A                      A
 Frequencies --    419.4728               492.2839               648.9030
 Red. masses --      4.3130                 3.5850                 4.3849
 Frc consts  --      0.4471                 0.5119                 1.0879
 IR Inten    --      4.3064                 0.0364                 1.2252

                     10                     11                     12
                      A                      A                      A
 Frequencies --    659.6443               690.0854               720.6619
 Red. masses --      3.6829                 4.3193                 1.8228
 Frc consts  --      0.9442                 1.2119                 0.5578
 IR Inten    --      3.8980                 4.1906                15.7334

                     13                     14                     15
                      A                      A                      A
 Frequencies --    804.6137               831.0030               870.0699
 Red. masses --      3.1914                 3.0243                 3.0199
 Frc consts  --      1.2173                 1.2305                 1.3469
 IR Inten    --      3.5390                18.3172                26.9565

                     16                     17                     18
                      A                      A                      A
 Frequencies --    925.7616               950.6675               960.0028
 Red. masses --      2.2546                 1.8475                 1.6357
 Frc consts  --      1.1385                 0.9837                 0.8882
 IR Inten    --     10.4791                15.6641                 5.4855

                     19                     20                     21
                      A                      A                      A
 Frequencies --    975.0859               985.4939              1029.7916
 Red. masses --      2.0514                 2.1825                 2.9755
 Frc consts  --      1.1492                 1.2489                 1.8592
 IR Inten    --     12.7872                 5.4874                23.7888

                     22                     23                     24
                      A                      A                      A
 Frequencies --   1059.1880              1080.1085              1092.3603
 Red. masses --      2.8091                 2.0423                 3.0862
 Frc consts  --      1.8568                 1.4038                 2.1697
 IR Inten    --     88.0513                 6.7182                 7.8016

                     25                     26                     27
                      A                      A                      A
 Frequencies --   1107.8273              1139.1997              1149.6976
 Red. masses --      2.7392                 2.1884                 1.2849
 Frc consts  --      1.9807                 1.6733                 1.0007
 IR Inten    --     53.7527                18.1192                 2.3268

                     28                     29                     30
                      A                      A                      A
 Frequencies --   1227.9718              1286.6982              1301.7547
 Red. masses --      1.0840                 1.3814                 1.4843
 Frc consts  --      0.9630                 1.3475                 1.4820
 IR Inten    --      3.6425                 0.1563                 2.5616

                     31                     32                     33
                      A                      A                      A
 Frequencies --   1318.1097              1334.4479              1358.6498
 Red. masses --      1.2636                 1.2286                 1.4691
 Frc consts  --      1.2934                 1.2890                 1.5977
 IR Inten    --      1.2742                 0.9437                 3.4319

                     34                     35                     36
                      A                      A                      A
 Frequencies --   1378.5256              1385.3550              1396.7945
 Red. masses --      1.3279                 1.6367                 1.4088
 Frc consts  --      1.4868                 1.8508                 1.6195
 IR Inten    --      7.3363                 9.9239                 3.4749

                     37                     38                     39
                      A                      A                      A
 Frequencies --   1402.4095              1485.8193              1493.9917
 Red. masses --      1.3213                 1.0456                 1.0561
 Frc consts  --      1.5311                 1.3600                 1.3888
 IR Inten    --      8.6528                 3.5073                 1.9597

                     40                     41                     42
                      A                      A                      A
 Frequencies --   1509.4021              1677.7931              2986.5696
 Red. masses --      1.0868                 5.9584                 1.0840
 Frc consts  --      1.4588                 9.8823                 5.6967
 IR Inten    --      0.4435                 0.1782                56.0282

                     43                     44                     45
                      A                      A                      A
 Frequencies --   3005.6555              3040.8948              3049.4668
 Red. masses --      1.0565                 1.0365                 1.1084
 Frc consts  --      5.6233                 5.6471                 6.0730
 IR Inten    --     62.5063                20.7109                35.5293

                     46                     47                     48
                      A                      A                      A
 Frequencies --   3107.4774              3109.5031              3112.9001
 Red. masses --      1.0890                 1.0909                 1.0966
 Frc consts  --      6.1956                 6.2145                 6.2607
 IR Inten    --     34.9810                13.8273                27.7818

                     49                     50                     51
                      A                      A                      A
 Frequencies --   3133.3472              3185.4689              3209.2133
 Red. masses --      1.1025                 1.0856                 1.1045
 Frc consts  --      6.3777                 6.4903                 6.7022
 IR Inten    --     17.1295                 6.5807                17.5571

 - Thermochemistry -
 -------------------
 Temperature   298.150 Kelvin.  Pressure   1.00000 Atm.
 Atom     1 has atomic number  6 and mass  12.00000

 Molecular mass:   126.06808 amu.
 Principal axes and moments of inertia in atomic units:
                           1         2         3
     Eigenvalues --   679.005711034.030951045.90859
           X            0.99970  -0.02348  -0.00674
           Y            0.01924   0.58674   0.80955
           Z            0.01506   0.80944  -0.58701
 This molecule is an asymmetric top.
 Rotational symmetry number  1.
 Warning -- assumption of classical behavior for rotation
           may cause significant error
 Rotational temperatures (Kelvin)      0.12756     0.08376     0.08281
 Rotational constants (GHZ):           2.65792     1.74535     1.72552
 Zero-point vibrational energy     423412.4 (Joules/Mol)
                                  101.19799 (Kcal/Mol)
 Warning -- explicit consideration of   8 degrees of freedom as
           vibrations may cause significant error
 Vibrational temperatures:    188.14   315.81   372.54   442.56   535.22
          (Kelvin)            590.03   603.53   708.29   933.63   949.08
                              992.88  1036.87  1157.66  1195.63  1251.83
                             1331.96  1367.80  1381.23  1402.93  1417.90
                             1481.64  1523.93  1554.03  1571.66  1593.91
                             1639.05  1654.16  1766.78  1851.27  1872.93
                             1896.46  1919.97  1954.79  1983.39  1993.21
                             2009.67  2017.75  2137.76  2149.52  2171.69
                             2413.97  4297.00  4324.46  4375.16  4387.50
                             4470.96  4473.88  4478.76  4508.18  4583.17
                             4617.34

 Zero-point correction=                           0.161269 (Hartree/Particle)
 Thermal correction to Energy=                    0.168558
 Thermal correction to Enthalpy=                  0.169503
 Thermal correction to Gibbs Free Energy=         0.129987
 Sum of electronic and zero-point Energies=           -423.026401
 Sum of electronic and thermal Energies=              -423.019112
 Sum of electronic and thermal Enthalpies=            -423.018168
 Sum of electronic and thermal Free Energies=         -423.057683

                     E (Thermal)             CV                S
                      KCal/Mol        Cal/Mol-Kelvin    Cal/Mol-Kelvin
 Total                  105.772             29.757             83.167
 Electronic               0.000              0.000              0.000
 Translational            0.889              2.981             40.409
 Rotational               0.889              2.981             28.087
 Vibrational            103.995             23.796             14.672
 Vibration     1          0.612              1.923              2.935
 Vibration     2          0.647              1.811              1.963
 Vibration     3          0.668              1.748              1.669
 Vibration     4          0.697              1.659              1.375
 Vibration     5          0.744              1.530              1.072
 Vibration     6          0.774              1.448              0.926
 Vibration     7          0.782              1.428              0.894
 Vibration     8          0.848              1.267              0.678

 Normal termination of Gaussian 09 at Tue Jan 28 04:39:34 2020.
