 Gaussian 09, Revision D.01,
 Gaussian 09:  ES64L-G09RevD.01 24-Apr-2013

 -----------------------------
 # b3lyp 6-31G(2df,p) opt Freq
 -----------------------------

 -----
 titel
 -----
 Symbolic Z-matrix:
 Charge =  0 Multiplicity = 1

 SCF Done:  E(RB3LYP) =  -423.169554624     A.U. after   14 cycles
 Optimization completed.
    -- Stationary point found.
 Normal termination of Gaussian 09 at Tue Jan 28 08:45:01 2020.

 ----------------------------------------------------------------------
 #N Geom=AllCheck Guess=TCheck SCRF=Check GenChk RB3LYP/6-31G(2df,p) Fr
 eq
 ----------------------------------------------------------------------

 Structure from the checkpoint file:  "/scratch/puck/g09_b0c32c50-0a3f-41c4-96ab-b4da13a3fb25/Gau-129363.chk"
 -----
 titel
 -----
 Charge =  0 Multiplicity = 1

                         Standard orientation:
 ---------------------------------------------------------------------
 Center     Atomic      Atomic             Coordinates (Angstroms)
 Number     Number       Type             X           Y           Z
 ---------------------------------------------------------------------
      1          6           0       -0.769794   -1.246918    1.242779
      2          6           0       -0.305800   -0.243022    0.178066
      3          6           0       -1.397226    0.001877   -0.855339
      4          8           0       -2.523236    0.552807   -0.184601
      5          6           0        0.402559    0.985616    0.796177
      6          6           0        1.109729    1.786820   -0.233127
      7          6           0        1.782694    0.511422    0.264399
      8          6           0        1.102532   -0.675138   -0.343512
      9          8           0        1.488446   -1.686106   -0.861675
     10          1           0       -0.006555   -1.386205    2.014680
     11          1           0       -1.688023   -0.891014    1.715590
     12          1           0       -0.966701   -2.220309    0.783944
     13          1           0       -1.042199    0.680974   -1.644420
     14          1           0       -1.642167   -0.956902   -1.338004
     15          1           0       -3.227768    0.674617   -0.827621
     16          1           0        0.198434    1.360893    1.790325
     17          1           0        0.745208    1.852564   -1.253319
     18          1           0        1.593743    2.693612    0.115402
     19          1           0        2.766184    0.534219    0.716971
 ---------------------------------------------------------------------

 SCF Done:  E(RB3LYP) =  -423.169554624     A.U. after    1 cycles

 The electronic state is 1-A.
 Alpha  occ. eigenvalues --  -19.14055 -19.12825 -10.26392 -10.23177 -10.20864
 Alpha  occ. eigenvalues --  -10.20728 -10.20367 -10.20197 -10.17630  -1.03842
 Alpha  occ. eigenvalues --   -1.02089  -0.90729  -0.77902  -0.68445  -0.67069
 Alpha  occ. eigenvalues --   -0.61885  -0.58000  -0.52205  -0.50530  -0.48900
 Alpha  occ. eigenvalues --   -0.47235  -0.44871  -0.44217  -0.40464  -0.40010
 Alpha  occ. eigenvalues --   -0.38890  -0.37251  -0.37157  -0.35333  -0.32556
 Alpha  occ. eigenvalues --   -0.30848  -0.28083  -0.27350  -0.23579
 Alpha virt. eigenvalues --   -0.00992   0.06497   0.10217   0.10603   0.11508
 Alpha virt. eigenvalues --    0.12136   0.14269   0.14980   0.15469   0.17294
 Alpha virt. eigenvalues --    0.18258   0.18917   0.19604   0.20660   0.22716

 Mulliken charges:
               1
     1  C   -0.443160
     2  C    0.164441
     3  C   -0.125576
     4  O   -0.424623
     5  C   -0.058277
     6  C   -0.304981
     7  C   -0.175713
     8  C    0.374856
     9  O   -0.332704
    10  H    0.115750
    11  H    0.138619
    12  H    0.129297
    13  H    0.085218
    14  H    0.101927
    15  H    0.289684
    16  H    0.104828
    17  H    0.122953
    18  H    0.127368
    19  H    0.110092
 Sum of Mulliken charges =   0.00000

 Dipole moment (field-independent basis, Debye):
    X=             -1.2086    Y=              2.3444    Z=              0.1970  Tot=              2.6449
 Quadrupole moment (field-independent basis, Debye-Ang):
   XX=            -51.1079   YY=            -56.0508   ZZ=            -51.3100
   XY=              5.1983   XZ=              7.0779   YZ=             -2.9051

  Exact polarizability:  81.457   2.156  79.274   0.085   1.477  66.846
 Approx polarizability: 114.257  -4.582 121.583  -4.239   8.931 103.465

                      1                      2                      3
                      A                      A                      A
 Frequencies --     77.3235               132.6070               161.7918
 Red. masses --      4.5352                 4.5457                 3.3453
 Frc consts  --      0.0160                 0.0471                 0.0516
 IR Inten    --      2.7221                 7.9425                 1.5543

                      4                      5                      6
                      A                      A                      A
 Frequencies --    215.7104               240.4461               251.3694
 Red. masses --      1.2293                 1.2188                 1.9163
 Frc consts  --      0.0337                 0.0415                 0.0713
 IR Inten    --      8.5217                62.0154                27.2435

                      7                      8                      9
                      A                      A                      A
 Frequencies --    281.7986               322.1560               355.9908
 Red. masses --      2.3978                 6.2109                 2.2540
 Frc consts  --      0.1122                 0.3798                 0.1683
 IR Inten    --      4.1060                 4.2077                 1.4839

                     10                     11                     12
                      A                      A                      A
 Frequencies --    467.3063               566.3344               619.1633
 Red. masses --      2.7494                 3.8619                 4.4171
 Frc consts  --      0.3538                 0.7298                 0.9977
 IR Inten    --      4.6068                 8.2850                 0.1225

                     13                     14                     15
                      A                      A                      A
 Frequencies --    690.6981               736.4104               807.6121
 Red. masses --      3.3538                 2.7672                 3.8861
 Frc consts  --      0.9427                 0.8842                 1.4934
 IR Inten    --      7.3506                 8.4182                11.0396

                     16                     17                     18
                      A                      A                      A
 Frequencies --    823.8920               905.4644               933.9988
 Red. masses --      1.8999                 1.8624                 2.6418
 Frc consts  --      0.7598                 0.8996                 1.3578
 IR Inten    --      6.1286                13.3048                17.7808

                     19                     20                     21
                      A                      A                      A
 Frequencies --    939.2353               973.7913               983.1635
 Red. masses --      1.5703                 1.6103                 1.9165
 Frc consts  --      0.8162                 0.8997                 1.0915
 IR Inten    --     21.3431                 5.2210                12.6763

                     22                     23                     24
                      A                      A                      A
 Frequencies --   1005.9496              1050.3429              1064.5811
 Red. masses --      1.2749                 1.2314                 3.6350
 Frc consts  --      0.7601                 0.8004                 2.4272
 IR Inten    --      7.1200                 7.8199                73.1128

                     25                     26                     27
                      A                      A                      A
 Frequencies --   1086.3496              1106.6313              1144.0139
 Red. masses --      1.5624                 1.7796                 1.8423
 Frc consts  --      1.0864                 1.2840                 1.4206
 IR Inten    --      8.8459                 2.3627                 5.2135

                     28                     29                     30
                      A                      A                      A
 Frequencies --   1169.3035              1187.7610              1228.4158
 Red. masses --      2.1956                 2.0628                 1.7947
 Frc consts  --      1.7687                 1.7146                 1.5956
 IR Inten    --      2.6815                 4.3583                31.2616

                     31                     32                     33
                      A                      A                      A
 Frequencies --   1265.7727              1269.9684              1307.0962
 Red. masses --      1.5500                 1.3967                 2.1346
 Frc consts  --      1.4632                 1.3272                 2.1488
 IR Inten    --     19.7220                32.9314                 1.4120

                     34                     35                     36
                      A                      A                      A
 Frequencies --   1339.4523              1399.8263              1454.0955
 Red. masses --      2.2520                 1.2281                 1.4175
 Frc consts  --      2.3805                 1.4179                 1.7658
 IR Inten    --      1.8573                 3.9471                 5.5201

                     37                     38                     39
                      A                      A                      A
 Frequencies --   1489.6814              1495.4456              1500.7173
 Red. masses --      1.0548                 1.1628                 1.0697
 Frc consts  --      1.3792                 1.5321                 1.4194
 IR Inten    --      5.1174                 2.6147                 6.1792

                     40                     41                     42
                      A                      A                      A
 Frequencies --   1523.2500              1872.1900              2982.5240
 Red. masses --      1.0869                12.3612                 1.0558
 Frc consts  --      1.4859                25.5276                 5.5333
 IR Inten    --      4.9816               300.1076                43.1968

                     43                     44                     45
                      A                      A                      A
 Frequencies --   3011.5368              3041.9354              3110.9714
 Red. masses --      1.1049                 1.0348                 1.1015
 Frc consts  --      5.9039                 5.6414                 6.2807
 IR Inten    --     50.2785                18.6835                19.6415

                     46                     47                     48
                      A                      A                      A
 Frequencies --   3126.4372              3130.0863              3193.9963
 Red. masses --      1.0548                 1.1017                 1.0925
 Frc consts  --      6.0744                 6.3597                 6.5665
 IR Inten    --     17.8646                 8.6781                 7.7170

                     49                     50                     51
                      A                      A                      A
 Frequencies --   3201.6861              3212.1602              3829.8400
 Red. masses --      1.1060                 1.1042                 1.0665
 Frc consts  --      6.6797                 6.7126                 9.2163
 IR Inten    --      1.1440                10.7794                23.6495

 - Thermochemistry -
 -------------------
 Temperature   298.150 Kelvin.  Pressure   1.00000 Atm.
 Atom     1 has atomic number  6 and mass  12.00000

 Molecular mass:   126.06808 amu.
 Principal axes and moments of inertia in atomic units:
                           1         2         3
     Eigenvalues --   780.897171201.964921494.41827
           X            0.99628   0.08406   0.01898
           Y           -0.08266   0.99444  -0.06517
           Z           -0.02435   0.06336   0.99769
 This molecule is an asymmetric top.
 Rotational symmetry number  1.
 Warning -- assumption of classical behavior for rotation
           may cause significant error
 Rotational temperatures (Kelvin)      0.11092     0.07206     0.05796
 Rotational constants (GHZ):           2.31111     1.50149     1.20765
 Zero-point vibrational energy     414436.0 (Joules/Mol)
                                   99.05257 (Kcal/Mol)
 Warning -- explicit consideration of  12 degrees of freedom as
           vibrations may cause significant error
 Vibrational temperatures:    111.25   190.79   232.78   310.36   345.95
          (Kelvin)            361.66   405.44   463.51   512.19   672.35
                              814.83   890.84   993.76  1059.53  1161.97
                             1185.40  1302.76  1343.81  1351.35  1401.07
                             1414.55  1447.34  1511.21  1531.69  1563.01
                             1592.19  1645.98  1682.36  1708.92  1767.41
                             1821.16  1827.20  1880.62  1927.17  2014.04
                             2092.12  2143.32  2151.61  2159.19  2191.61
                             2693.66  4291.18  4332.92  4376.66  4475.99
                             4498.24  4503.49  4595.44  4606.51  4621.58
                             5510.28

 Zero-point correction=                           0.157850 (Hartree/Particle)
 Thermal correction to Energy=                    0.166938
 Thermal correction to Enthalpy=                  0.167882
 Thermal correction to Gibbs Free Energy=         0.124181
 Sum of electronic and zero-point Energies=           -423.011704
 Sum of electronic and thermal Energies=              -423.002616
 Sum of electronic and thermal Enthalpies=            -423.001672
 Sum of electronic and thermal Free Energies=         -423.045374

                     E (Thermal)             CV                S
                      KCal/Mol        Cal/Mol-Kelvin    Cal/Mol-Kelvin
 Total                  104.755             34.029             91.978
 Electronic               0.000              0.000              0.000
 Translational            0.889              2.981             40.409
 Rotational               0.889              2.981             28.730
 Vibrational            102.978             28.068             22.839
 Vibration     1          0.599              1.964              3.958
 Vibration     2          0.613              1.921              2.908
 Vibration     3          0.622              1.889              2.529
 Vibration     4          0.645              1.817              1.995
 Vibration     5          0.658              1.778              1.800
 Vibration     6          0.663              1.760              1.721
 Vibration     7          0.681              1.707              1.523
 Vibration     8          0.707              1.631              1.299
 Vibration     9          0.731              1.563              1.140
 Vibration    10          0.825              1.323              0.745
 Vibration    11          0.922              1.104              0.511
 Vibration    12          0.979              0.991              0.418

 Optimization completed.
    -- Stationary point found.
 Normal termination of Gaussian 09 at Tue Jan 28 09:28:48 2020.
