 Gaussian 09, Revision D.01,
 Gaussian 09:  ES64L-G09RevD.01 24-Apr-2013

 -----------------------------
 # b3lyp 6-31G(2df,p) opt Freq
 -----------------------------

 -----
 titel
 -----
 Symbolic Z-matrix:
 Charge =  0 Multiplicity = 1

 SCF Done:  E(RB3LYP) =  -423.097812942     A.U. after   12 cycles
 Optimization completed.
    -- Stationary point found.
 Normal termination of Gaussian 09 at Tue Jan 28 01:52:40 2020.

 ----------------------------------------------------------------------
 #N Geom=AllCheck Guess=TCheck SCRF=Check GenChk RB3LYP/6-31G(2df,p) Fr
 eq
 ----------------------------------------------------------------------

 Structure from the checkpoint file:  "/scratch/puck/g09_51882865-fb6b-419c-911d-6c5770a466a8/Gau-38007.chk"
 -----
 titel
 -----
 Charge =  0 Multiplicity = 1

                         Standard orientation:
 ---------------------------------------------------------------------
 Center     Atomic      Atomic             Coordinates (Angstroms)
 Number     Number       Type             X           Y           Z
 ---------------------------------------------------------------------
      1          8           0        2.717750   -0.626002   -0.540335
      2          6           0        1.944972    0.058048    0.409119
      3          6           0        1.436822    1.421559   -0.021202
      4          6           0        0.494035    0.272921    0.164024
      5          6           0       -0.482778   -0.428321   -0.792245
      6          6           0       -0.829909   -1.379004    0.398158
      7          6           0       -0.765242    0.052334    1.024212
      8          6           0       -1.559125    0.555955   -0.209690
      9          8           0       -2.917417    0.198904   -0.235188
     10          1           0        2.499314   -1.561753   -0.478683
     11          1           0        2.292741   -0.039500    1.438980
     12          1           0        1.456023    2.227496    0.705834
     13          1           0        1.686415    1.715884   -1.035882
     14          1           0       -0.310198   -0.691627   -1.836590
     15          1           0       -1.812586   -1.847786    0.371723
     16          1           0       -0.047464   -2.075859    0.708523
     17          1           0       -0.919659    0.335714    2.065795
     18          1           0       -1.411024    1.611966   -0.467028
     19          1           0       -3.268873    0.421307   -1.102750
 ---------------------------------------------------------------------

 SCF Done:  E(RB3LYP) =  -423.097812942     A.U. after    1 cycles

 The electronic state is 1-A.
 Alpha  occ. eigenvalues --  -19.13986 -19.13863 -10.23665 -10.22916 -10.19918
 Alpha  occ. eigenvalues --  -10.19783 -10.19715 -10.18479 -10.17839  -1.02639
 Alpha  occ. eigenvalues --   -1.02211  -0.91050  -0.81965  -0.66121  -0.63284
 Alpha  occ. eigenvalues --   -0.60805  -0.59068  -0.53750  -0.50618  -0.50281
 Alpha  occ. eigenvalues --   -0.49940  -0.46370  -0.41537  -0.41197  -0.38377
 Alpha  occ. eigenvalues --   -0.37667  -0.34818  -0.32363  -0.31812  -0.30915
 Alpha  occ. eigenvalues --   -0.30378  -0.27441  -0.26517  -0.24464
 Alpha virt. eigenvalues --    0.06929   0.08110   0.10636   0.12009   0.12969
 Alpha virt. eigenvalues --    0.14045   0.14124   0.15087   0.16265   0.17304
 Alpha virt. eigenvalues --    0.18253   0.19156   0.19352   0.21007   0.21559

 Mulliken charges:
               1
     1  O   -0.422532
     2  C   -0.031747
     3  C   -0.413832
     4  C    0.434933
     5  C   -0.192232
     6  C   -0.225789
     7  C   -0.170757
     8  C    0.171571
     9  O   -0.445712
    10  H    0.286339
    11  H    0.082850
    12  H    0.111958
    13  H    0.122619
    14  H    0.073500
    15  H    0.111375
    16  H    0.078593
    17  H    0.075528
    18  H    0.069282
    19  H    0.284052
 Sum of Mulliken charges =   0.00000

 Dipole moment (field-independent basis, Debye):
    X=             -0.6675    Y=             -0.2167    Z=             -0.4832  Tot=              0.8520
 Quadrupole moment (field-independent basis, Debye-Ang):
   XX=            -59.7812   YY=            -49.6535   ZZ=            -50.2649
   XY=             -3.1608   XZ=              6.6157   YZ=             -0.3131

  Exact polarizability:  86.521   1.852  75.263   1.788  -0.667  67.639
 Approx polarizability: 115.851   1.308 111.856   0.226  -0.724 105.410

                      1                      2                      3
                      A                      A                      A
 Frequencies --    122.7646               141.0488               215.5873
 Red. masses --      4.3660                 4.6547                 2.6268
 Frc consts  --      0.0388                 0.0546                 0.0719
 IR Inten    --      0.0806                 6.7653                 6.9882

                      4                      5                      6
                      A                      A                      A
 Frequencies --    257.9311               278.9469               324.7492
 Red. masses --      1.1434                 1.3065                 2.7914
 Frc consts  --      0.0448                 0.0599                 0.1734
 IR Inten    --    104.8299                64.9165                38.9126

                      7                      8                      9
                      A                      A                      A
 Frequencies --    358.3351               426.0763               444.1771
 Red. masses --      3.4289                 2.8343                 2.8848
 Frc consts  --      0.2594                 0.3032                 0.3353
 IR Inten    --      9.2163                 5.2068                 2.8630

                     10                     11                     12
                      A                      A                      A
 Frequencies --    513.7508               627.1869               674.8303
 Red. masses --      3.2668                 3.9183                 2.5996
 Frc consts  --      0.5080                 0.9081                 0.6975
 IR Inten    --      6.3249                 6.7080                 2.0519

                     13                     14                     15
                      A                      A                      A
 Frequencies --    758.1462               809.4910               842.4563
 Red. masses --      2.4532                 2.8895                 1.8420
 Frc consts  --      0.8308                 1.1156                 0.7703
 IR Inten    --      3.4842                 0.8480                 9.9981

                     16                     17                     18
                      A                      A                      A
 Frequencies --    889.7558               898.0491               906.1513
 Red. masses --      2.0247                 2.3414                 2.0852
 Frc consts  --      0.9444                 1.1126                 1.0088
 IR Inten    --     11.0331                 0.5923                 1.8863

                     19                     20                     21
                      A                      A                      A
 Frequencies --    966.8883               985.0090              1018.9257
 Red. masses --      2.5144                 2.6945                 1.1039
 Frc consts  --      1.3849                 1.5403                 0.6753
 IR Inten    --      8.2196                37.6018                 0.8644

                     22                     23                     24
                      A                      A                      A
 Frequencies --   1029.8150              1052.9250              1071.9244
 Red. masses --      1.5280                 1.4005                 1.4238
 Frc consts  --      0.9548                 0.9148                 0.9639
 IR Inten    --      5.8795                 2.5611                 2.9811

                     25                     26                     27
                      A                      A                      A
 Frequencies --   1096.7639              1119.1916              1129.7459
 Red. masses --      2.7999                 3.2872                 2.1525
 Frc consts  --      1.9844                 2.4260                 1.6187
 IR Inten    --      7.9217                86.9656                32.4177

                     28                     29                     30
                      A                      A                      A
 Frequencies --   1146.6729              1155.7505              1173.7504
 Red. masses --      1.5292                 1.5239                 2.4484
 Frc consts  --      1.1847                 1.1993                 1.9874
 IR Inten    --      4.1920                 6.7304                26.7548

                     31                     32                     33
                      A                      A                      A
 Frequencies --   1191.4437              1211.5032              1221.3349
 Red. masses --      1.3739                 1.7104                 1.4811
 Frc consts  --      1.1491                 1.4791                 1.3017
 IR Inten    --      8.9702                24.1503                25.3727

                     34                     35                     36
                      A                      A                      A
 Frequencies --   1253.8546              1298.0578              1310.8490
 Red. masses --      1.8181                 1.2060                 1.3591
 Frc consts  --      1.6841                 1.1972                 1.3760
 IR Inten    --     36.8623                97.1106                20.8138

                     37                     38                     39
                      A                      A                      A
 Frequencies --   1365.7621              1421.8056              1433.5582
 Red. masses --      1.6532                 1.3674                 1.2703
 Frc consts  --      1.8168                 1.6287                 1.5382
 IR Inten    --      1.5859                 1.7046                 3.7984

                     40                     41                     42
                      A                      A                      A
 Frequencies --   1492.3213              1518.1680              3029.6134
 Red. masses --      1.5387                 1.6716                 1.0847
 Frc consts  --      2.0190                 2.2700                 5.8658
 IR Inten    --      2.8799                21.7566                55.2854

                     43                     44                     45
                      A                      A                      A
 Frequencies --   3067.0781              3081.8761              3106.3682
 Red. masses --      1.0586                 1.0867                 1.0907
 Frc consts  --      5.8675                 6.0814                 6.2012
 IR Inten    --     43.3739                36.9547                77.3370

                     46                     47                     48
                      A                      A                      A
 Frequencies --   3112.6945              3122.3404              3152.7164
 Red. masses --      1.0934                 1.0543                 1.1061
 Frc consts  --      6.2417                 6.0557                 6.4776
 IR Inten    --     15.2065                11.6033                24.7806

                     49                     50                     51
                      A                      A                      A
 Frequencies --   3210.1923              3806.5026              3822.8331
 Red. masses --      1.1163                 1.0662                 1.0662
 Frc consts  --      6.7776                 9.1024                 9.1801
 IR Inten    --      6.6492                15.6878                29.6800

 - Thermochemistry -
 -------------------
 Temperature   298.150 Kelvin.  Pressure   1.00000 Atm.
 Atom     1 has atomic number  8 and mass  15.99491

 Molecular mass:   126.06808 amu.
 Principal axes and moments of inertia in atomic units:
                           1         2         3
     Eigenvalues --   451.883671615.521041752.60539
           X            0.99994   0.00584   0.00970
           Y           -0.00561   0.99971  -0.02342
           Z           -0.00984   0.02337   0.99968
 This molecule is an asymmetric top.
 Rotational symmetry number  1.
 Warning -- assumption of classical behavior for rotation
           may cause significant error
 Rotational temperatures (Kelvin)      0.19167     0.05361     0.04942
 Rotational constants (GHZ):           3.99382     1.11713     1.02975
 Zero-point vibrational energy     416705.2 (Joules/Mol)
                                   99.59493 (Kcal/Mol)
 Warning -- explicit consideration of  10 degrees of freedom as
           vibrations may cause significant error
 Vibrational temperatures:    176.63   202.94   310.18   371.10   401.34
          (Kelvin)            467.24   515.56   613.03   639.07   739.17
                              902.38   970.93  1090.80  1164.68  1212.11
                             1280.16  1292.09  1303.75  1391.13  1417.21
                             1466.01  1481.67  1514.92  1542.26  1578.00
                             1610.27  1625.45  1649.80  1662.87  1688.76
                             1714.22  1743.08  1757.23  1804.01  1867.61
                             1886.02  1965.02  2045.66  2062.57  2147.11
                             2184.30  4358.93  4412.84  4434.13  4469.37
                             4478.47  4492.35  4536.05  4618.74  5476.70
                             5500.20

 Zero-point correction=                           0.158715 (Hartree/Particle)
 Thermal correction to Energy=                    0.166985
 Thermal correction to Enthalpy=                  0.167929
 Thermal correction to Gibbs Free Energy=         0.126240
 Sum of electronic and zero-point Energies=           -422.939098
 Sum of electronic and thermal Energies=              -422.930828
 Sum of electronic and thermal Enthalpies=            -422.929884
 Sum of electronic and thermal Free Energies=         -422.971572

                     E (Thermal)             CV                S
                      KCal/Mol        Cal/Mol-Kelvin    Cal/Mol-Kelvin
 Total                  104.785             32.741             87.741
 Electronic               0.000              0.000              0.000
 Translational            0.889              2.981             40.409
 Rotational               0.889              2.981             28.638
 Vibrational            103.007             26.780             18.694
 Vibration     1          0.610              1.930              3.056
 Vibration     2          0.615              1.912              2.790
 Vibration     3          0.645              1.817              1.996
 Vibration     4          0.667              1.749              1.676
 Vibration     5          0.679              1.712              1.540
 Vibration     6          0.709              1.626              1.286
 Vibration     7          0.733              1.558              1.129
 Vibration     8          0.788              1.414              0.872
 Vibration     9          0.804              1.374              0.814
 Vibration    10          0.869              1.220              0.625

 Optimization completed.
    -- Stationary point found.
 Normal termination of Gaussian 09 at Tue Jan 28 02:42:45 2020.
