 Gaussian 09, Revision D.01,
 Gaussian 09:  ES64L-G09RevD.01 24-Apr-2013

 -----------------------------
 # b3lyp 6-31G(2df,p) opt Freq
 -----------------------------

 -----
 titel
 -----
 Symbolic Z-matrix:
 Charge =  0 Multiplicity = 1

 SCF Done:  E(RB3LYP) =  -423.171730629     A.U. after   13 cycles
 Optimization completed.
    -- Stationary point found.
 Normal termination of Gaussian 09 at Tue Jan 28 03:11:29 2020.

 ----------------------------------------------------------------------
 #N Geom=AllCheck Guess=TCheck SCRF=Check GenChk RB3LYP/6-31G(2df,p) Fr
 eq
 ----------------------------------------------------------------------

 Structure from the checkpoint file:  "/scratch/puck/g09_50e0418e-d76d-4679-86b9-01726c61d9dd/Gau-65658.chk"
 -----
 titel
 -----
 Charge =  0 Multiplicity = 1

                         Standard orientation:
 ---------------------------------------------------------------------
 Center     Atomic      Atomic             Coordinates (Angstroms)
 Number     Number       Type             X           Y           Z
 ---------------------------------------------------------------------
      1          8           0       -2.389791   -0.949760   -0.061260
      2          6           0       -1.527323    0.011391    0.531733
      3          6           0       -1.206831    1.232956   -0.390450
      4          6           0        0.286274    0.999379   -0.607527
      5          6           0        0.844784    0.620428    0.810063
      6          6           0        2.199841   -0.000748    0.483876
      7          8           0        1.850860   -0.805813   -0.659907
      8          6           0        0.457185   -0.538162   -0.791864
      9          6           0       -0.135613   -0.592518    0.648832
     10          1           0       -3.264551   -0.557066   -0.141914
     11          1           0       -1.922799    0.325173    1.508288
     12          1           0       -1.786289    1.175781   -1.317429
     13          1           0       -1.416209    2.195356    0.087490
     14          1           0        0.835709    1.686679   -1.252944
     15          1           0        0.782167    1.306716    1.656199
     16          1           0        2.961315    0.739024    0.207478
     17          1           0        2.597983   -0.635163    1.285327
     18          1           0        0.040211   -1.096862   -1.627245
     19          1           0       -0.025999   -1.491410    1.256108
 ---------------------------------------------------------------------

 SCF Done:  E(RB3LYP) =  -423.171730629     A.U. after    1 cycles

 The electronic state is 1-A.
 Alpha  occ. eigenvalues --  -19.13525 -19.12907 -10.23249 -10.22764 -10.22245
 Alpha  occ. eigenvalues --  -10.19623 -10.18920 -10.18510 -10.18167  -1.03748
 Alpha  occ. eigenvalues --   -1.01717  -0.86934  -0.73411  -0.70407  -0.69134
 Alpha  occ. eigenvalues --   -0.58111  -0.57104  -0.54727  -0.51650  -0.49804
 Alpha  occ. eigenvalues --   -0.49349  -0.44285  -0.42568  -0.40327  -0.38403
 Alpha  occ. eigenvalues --   -0.37682  -0.35484  -0.34597  -0.33585  -0.31934
 Alpha  occ. eigenvalues --   -0.30955  -0.30028  -0.26419  -0.23028
 Alpha virt. eigenvalues --    0.07526   0.09990   0.11727   0.12281   0.13071
 Alpha virt. eigenvalues --    0.14081   0.14316   0.15541   0.16096   0.17447
 Alpha virt. eigenvalues --    0.18282   0.18959   0.19626   0.21015   0.22511

 Mulliken charges:
               1
     1  O   -0.443138
     2  C    0.106418
     3  C   -0.279570
     4  C   -0.037815
     5  C   -0.087949
     6  C   -0.097375
     7  O   -0.284542
     8  C    0.128371
     9  C   -0.036298
    10  H    0.281930
    11  H    0.063503
    12  H    0.098729
    13  H    0.095318
    14  H    0.065027
    15  H    0.066976
    16  H    0.099168
    17  H    0.099861
    18  H    0.090821
    19  H    0.070564
 Sum of Mulliken charges =   0.00000

 Dipole moment (field-independent basis, Debye):
    X=             -1.4163    Y=              2.1597    Z=              1.1258  Tot=              2.8174
 Quadrupole moment (field-independent basis, Debye-Ang):
   XX=            -49.9040   YY=            -55.3595   ZZ=            -52.2602
   XY=             -0.1936   XZ=              2.7181   YZ=             -0.7721

  Exact polarizability:  85.991   0.147  68.691   3.466  -0.764  67.438
 Approx polarizability: 114.467   0.720 105.903   3.540   1.712 105.210

                      1                      2                      3
                      A                      A                      A
 Frequencies --    137.1545               251.2298               279.9411
 Red. masses --      3.9379                 2.9286                 1.1175
 Frc consts  --      0.0436                 0.1089                 0.0516
 IR Inten    --      0.3198                 3.7209                93.7476

                      4                      5                      6
                      A                      A                      A
 Frequencies --    319.3014               363.4956               431.2049
 Red. masses --      2.0884                 4.0423                 3.1042
 Frc consts  --      0.1254                 0.3147                 0.3401
 IR Inten    --      0.2261                14.3541                 6.3568

                      7                      8                      9
                      A                      A                      A
 Frequencies --    474.9096               603.1753               688.8189
 Red. masses --      3.6062                 4.5957                 3.5318
 Frc consts  --      0.4792                 0.9851                 0.9873
 IR Inten    --      4.2183                 7.7042                 2.0109

                     10                     11                     12
                      A                      A                      A
 Frequencies --    697.2971               792.6750               848.5346
 Red. masses --      4.2196                 2.7862                 2.4496
 Frc consts  --      1.2088                 1.0315                 1.0392
 IR Inten    --      2.1575                 4.4836                 4.6211

                     13                     14                     15
                      A                      A                      A
 Frequencies --    902.6279               914.5876               947.6955
 Red. masses --      2.5266                 3.4008                 3.3845
 Frc consts  --      1.2128                 1.6760                 1.7909
 IR Inten    --      1.3677                13.0542                 1.2180

                     16                     17                     18
                      A                      A                      A
 Frequencies --    957.2990               957.8815               963.2675
 Red. masses --      1.9660                 2.6054                 1.6630
 Frc consts  --      1.0615                 1.4085                 0.9092
 IR Inten    --      6.8129                19.0735                11.1848

                     19                     20                     21
                      A                      A                      A
 Frequencies --   1003.2486              1016.1047              1026.4214
 Red. masses --      1.9250                 3.1477                 1.3440
 Frc consts  --      1.1415                 1.9148                 0.8343
 IR Inten    --     11.7387                61.8740                 5.0348

                     22                     23                     24
                      A                      A                      A
 Frequencies --   1047.2132              1051.1921              1087.3884
 Red. masses --      1.8733                 1.6739                 3.5288
 Frc consts  --      1.2104                 1.0898                 2.4584
 IR Inten    --      6.6384                19.5763                24.4548

                     25                     26                     27
                      A                      A                      A
 Frequencies --   1105.5624              1163.1803              1164.4335
 Red. masses --      2.2604                 1.5459                 1.2716
 Frc consts  --      1.6278                 1.2324                 1.0159
 IR Inten    --      9.6105                26.6172                17.9392

                     28                     29                     30
                      A                      A                      A
 Frequencies --   1196.5471              1216.2747              1231.5631
 Red. masses --      1.2534                 1.4894                 1.4916
 Frc consts  --      1.0573                 1.2981                 1.3329
 IR Inten    --      9.5590                10.6508                 7.4961

                     31                     32                     33
                      A                      A                      A
 Frequencies --   1247.2687              1255.8601              1273.3165
 Red. masses --      1.3986                 1.5244                 1.8772
 Frc consts  --      1.2819                 1.4165                 1.7933
 IR Inten    --      5.6162                20.5965                17.1436

                     34                     35                     36
                      A                      A                      A
 Frequencies --   1279.3046              1296.1457              1336.8580
 Red. masses --      1.4283                 1.5837                 1.4320
 Frc consts  --      1.3773                 1.5676                 1.5078
 IR Inten    --      1.3533                15.1175                13.8760

                     37                     38                     39
                      A                      A                      A
 Frequencies --   1351.8365              1391.1156              1427.5277
 Red. masses --      1.4920                 1.6077                 1.4918
 Frc consts  --      1.6064                 1.8331                 1.7911
 IR Inten    --      5.7150                 9.9296                 7.4613

                     40                     41                     42
                      A                      A                      A
 Frequencies --   1489.4262              1526.3007              2991.7076
 Red. masses --      1.1007                 1.0974                 1.0847
 Frc consts  --      1.4386                 1.5063                 5.7201
 IR Inten    --      0.8290                 0.4536                56.6477

                     43                     44                     45
                      A                      A                      A
 Frequencies --   3017.0406              3043.5193              3054.3011
 Red. masses --      1.0558                 1.0590                 1.1102
 Frc consts  --      5.6624                 5.7797                 6.1021
 IR Inten    --     75.8156                43.2439                34.5677

                     46                     47                     48
                      A                      A                      A
 Frequencies --   3089.0970              3100.8613              3106.8023
 Red. masses --      1.1062                 1.0867                 1.0893
 Frc consts  --      6.2194                 6.1562                 6.1947
 IR Inten    --     22.6043                36.7782                53.2263

                     49                     50                     51
                      A                      A                      A
 Frequencies --   3119.2699              3150.4245              3819.0395
 Red. masses --      1.0898                 1.0921                 1.0663
 Frc consts  --      6.2472                 6.3864                 9.1626
 IR Inten    --     27.3827                20.9624                19.2979

 - Thermochemistry -
 -------------------
 Temperature   298.150 Kelvin.  Pressure   1.00000 Atm.
 Atom     1 has atomic number  8 and mass  15.99491

 Molecular mass:   126.06808 amu.
 Principal axes and moments of inertia in atomic units:
                           1         2         3
     Eigenvalues --   489.772221260.042131362.94952
           X            0.99986  -0.00408   0.01593
           Y            0.00487   0.99873  -0.05014
           Z           -0.01570   0.05021   0.99862
 This molecule is an asymmetric top.
 Rotational symmetry number  1.
 Warning -- assumption of classical behavior for rotation
           may cause significant error
 Rotational temperatures (Kelvin)      0.17685     0.06874     0.06355
 Rotational constants (GHZ):           3.68486     1.43229     1.32414
 Zero-point vibrational energy     425913.9 (Joules/Mol)
                                  101.79587 (Kcal/Mol)
 Warning -- explicit consideration of   8 degrees of freedom as
           vibrations may cause significant error
 Vibrational temperatures:    197.33   361.46   402.77   459.40   522.99
          (Kelvin)            620.41   683.29   867.83   991.06  1003.25
                             1140.48  1220.85  1298.68  1315.89  1363.52
                             1377.34  1378.18  1385.93  1443.45  1461.95
                             1476.79  1506.70  1512.43  1564.51  1590.66
                             1673.55  1675.36  1721.56  1749.95  1771.94
                             1794.54  1806.90  1832.02  1840.63  1864.86
                             1923.44  1944.99  2001.50  2053.89  2142.95
                             2196.00  4304.39  4340.84  4378.94  4394.45
                             4444.52  4461.44  4469.99  4487.93  4532.75
                             5494.74

 Zero-point correction=                           0.162222 (Hartree/Particle)
 Thermal correction to Energy=                    0.169140
 Thermal correction to Enthalpy=                  0.170084
 Thermal correction to Gibbs Free Energy=         0.131162
 Sum of electronic and zero-point Energies=           -423.009509
 Sum of electronic and thermal Energies=              -423.002591
 Sum of electronic and thermal Enthalpies=            -423.001647
 Sum of electronic and thermal Free Energies=         -423.040568

                     E (Thermal)             CV                S
                      KCal/Mol        Cal/Mol-Kelvin    Cal/Mol-Kelvin
 Total                  106.137             28.648             81.917
 Electronic               0.000              0.000              0.000
 Translational            0.889              2.981             40.409
 Rotational               0.889              2.981             28.222
 Vibrational            104.359             22.687             13.287
 Vibration     1          0.614              1.916              2.843
 Vibration     2          0.663              1.761              1.722
 Vibration     3          0.680              1.711              1.534
 Vibration     4          0.705              1.637              1.314
 Vibration     5          0.737              1.547              1.107
 Vibration     6          0.792              1.402              0.855
 Vibration     7          0.832              1.306              0.724
 Vibration     8          0.962              1.025              0.444

 Optimization completed.
    -- Stationary point found.
 Normal termination of Gaussian 09 at Tue Jan 28 04:14:39 2020.
