 Gaussian 09, Revision D.01,
 Gaussian 09:  ES64L-G09RevD.01 24-Apr-2013

 -----------------------------
 # b3lyp 6-31G(2df,p) opt Freq
 -----------------------------

 -----
 titel
 -----
 Symbolic Z-matrix:
 Charge =  0 Multiplicity = 1

 SCF Done:  E(RB3LYP) =  -423.153273392     A.U. after   14 cycles
 Optimization completed.
    -- Stationary point found.
 Normal termination of Gaussian 09 at Mon Jan 27 15:44:47 2020.

 ----------------------------------------------------------------------
 #N Geom=AllCheck Guess=TCheck SCRF=Check GenChk RB3LYP/6-31G(2df,p) Fr
 eq
 ----------------------------------------------------------------------

 Structure from the checkpoint file:  "/scratch/puck/g09_30096a4b-0ea2-4440-8c37-9f27b6bbbfe0/Gau-163742.chk"
 -----
 titel
 -----
 Charge =  0 Multiplicity = 1

                         Standard orientation:
 ---------------------------------------------------------------------
 Center     Atomic      Atomic             Coordinates (Angstroms)
 Number     Number       Type             X           Y           Z
 ---------------------------------------------------------------------
      1          8           0       -1.790700    1.656651    0.121881
      2          6           0       -1.144402    0.452301   -0.251817
      3          6           0       -2.081978   -0.673206    0.161618
      4          8           0       -1.982164   -1.808370   -0.226225
      5          6           0        0.215705    0.283635    0.436307
      6          6           0        1.300816    1.291381   -0.089509
      7          6           0        2.120203    0.106010   -0.612221
      8          6           0        2.435822   -0.837737    0.513096
      9          6           0        1.064802   -0.878272   -0.098989
     10          1           0       -1.174363    2.383078   -0.013961
     11          1           0       -1.003589    0.384156   -1.342955
     12          1           0       -2.867919   -0.355591    0.881868
     13          1           0        0.062489    0.289299    1.522633
     14          1           0        0.918046    1.929892   -0.892478
     15          1           0        1.789348    1.926810    0.656619
     16          1           0        2.673199    0.091531   -1.543205
     17          1           0        3.080912   -1.671162    0.254337
     18          1           0        2.579342   -0.461727    1.524309
     19          1           0        0.659634   -1.767198   -0.563327
 ---------------------------------------------------------------------

 SCF Done:  E(RB3LYP) =  -423.153273392     A.U. after    1 cycles

 The electronic state is 1-A.
 Alpha  occ. eigenvalues --  -19.15017 -19.14416 -10.27089 -10.24360 -10.20307
 Alpha  occ. eigenvalues --  -10.19795 -10.19755 -10.19407 -10.19001  -1.05283
 Alpha  occ. eigenvalues --   -1.03208  -0.90122  -0.76682  -0.71312  -0.65053
 Alpha  occ. eigenvalues --   -0.59220  -0.57726  -0.53919  -0.52433  -0.50866
 Alpha  occ. eigenvalues --   -0.47848  -0.45596  -0.43344  -0.43090  -0.41529
 Alpha  occ. eigenvalues --   -0.39009  -0.37676  -0.36112  -0.33999  -0.32862
 Alpha  occ. eigenvalues --   -0.30130  -0.27614  -0.26759  -0.24983
 Alpha virt. eigenvalues --   -0.02785   0.06223   0.09645   0.10829   0.11260
 Alpha virt. eigenvalues --    0.12503   0.13429   0.14340   0.14626   0.16828
 Alpha virt. eigenvalues --    0.17030   0.18329   0.20333   0.21636   0.22411

 Mulliken charges:
               1
     1  O   -0.443574
     2  C    0.018307
     3  C    0.148611
     4  O   -0.246304
     5  C   -0.008052
     6  C   -0.280094
     7  C   -0.034530
     8  C   -0.286988
     9  C   -0.045360
    10  H    0.291742
    11  H    0.092704
    12  H    0.095770
    13  H    0.076510
    14  H    0.097596
    15  H    0.101426
    16  H    0.088209
    17  H    0.115713
    18  H    0.104454
    19  H    0.113862
 Sum of Mulliken charges =   0.00000

 Dipole moment (field-independent basis, Debye):
    X=              1.9347    Y=              2.0820    Z=             -0.0350  Tot=              2.8424
 Quadrupole moment (field-independent basis, Debye-Ang):
   XX=            -56.6444   YY=            -55.1580   ZZ=            -52.0202
   XY=             -2.5359   XZ=             -0.8634   YZ=             -1.2486

  Exact polarizability:  85.395  -0.777  77.965  -2.693   0.952  63.391
 Approx polarizability: 111.280   0.852 120.365  -4.101   3.784  99.867

                      1                      2                      3
                      A                      A                      A
 Frequencies --     77.3587                93.7715               141.5015
 Red. masses --      3.3586                 4.1734                 3.0824
 Frc consts  --      0.0118                 0.0216                 0.0364
 IR Inten    --      6.3761                 9.4946                 1.3275

                      4                      5                      6
                      A                      A                      A
 Frequencies --    154.0461               238.3119               271.8038
 Red. masses --      3.0697                 1.3739                 2.2341
 Frc consts  --      0.0429                 0.0460                 0.0972
 IR Inten    --      2.2544                67.8547                27.2903

                      7                      8                      9
                      A                      A                      A
 Frequencies --    351.9744               378.2990               435.4518
 Red. masses --      2.1933                 5.3371                 2.4752
 Frc consts  --      0.1601                 0.4500                 0.2765
 IR Inten    --      4.0123                 6.3984                 6.5082

                     10                     11                     12
                      A                      A                      A
 Frequencies --    449.9019               581.8656               716.4415
 Red. masses --      3.2945                 4.6184                 2.5539
 Frc consts  --      0.3929                 0.9213                 0.7724
 IR Inten    --      6.5324                11.5224                 1.1533

                     13                     14                     15
                      A                      A                      A
 Frequencies --    780.2260               814.2973               856.4070
 Red. masses --      1.8104                 2.1320                 2.5334
 Frc consts  --      0.6493                 0.8329                 1.0948
 IR Inten    --      7.7135                 1.3930                 7.9959

                     16                     17                     18
                      A                      A                      A
 Frequencies --    914.3649               926.5346               965.2635
 Red. masses --      1.7037                 1.7859                 1.9095
 Frc consts  --      0.8392                 0.9033                 1.0482
 IR Inten    --      1.0533                 2.8320                12.5115

                     19                     20                     21
                      A                      A                      A
 Frequencies --    989.2035               993.8797              1007.2538
 Red. masses --      1.9270                 2.3079                 1.3559
 Frc consts  --      1.1109                 1.3432                 0.8105
 IR Inten    --     12.9029                36.9978                 1.0473

                     22                     23                     24
                      A                      A                      A
 Frequencies --   1041.0391              1068.4792              1081.2072
 Red. masses --      2.4423                 1.2109                 1.7008
 Frc consts  --      1.5595                 0.8145                 1.1715
 IR Inten    --     26.0846                 1.6193                 0.3530

                     25                     26                     27
                      A                      A                      A
 Frequencies --   1087.9695              1105.6244              1142.4910
 Red. masses --      1.5242                 3.7014                 2.1565
 Frc consts  --      1.0630                 2.6659                 1.6584
 IR Inten    --      4.6335                50.7393                 2.6074

                     28                     29                     30
                      A                      A                      A
 Frequencies --   1167.1445              1208.3139              1230.3148
 Red. masses --      1.7009                 1.6075                 1.3220
 Frc consts  --      1.3652                 1.3828                 1.1790
 IR Inten    --      6.0349                 5.4008                29.8661

                     31                     32                     33
                      A                      A                      A
 Frequencies --   1245.4547              1252.6642              1279.4344
 Red. masses --      1.2412                 1.4659                 1.2925
 Frc consts  --      1.1344                 1.3553                 1.2466
 IR Inten    --     19.9805                 6.4775                23.3990

                     34                     35                     36
                      A                      A                      A
 Frequencies --   1302.1801              1352.8990              1363.1651
 Red. masses --      1.7258                 1.6780                 1.3411
 Frc consts  --      1.7242                 1.8096                 1.4683
 IR Inten    --      6.4713                 4.1404                21.6960

                     37                     38                     39
                      A                      A                      A
 Frequencies --   1385.2766              1418.5676              1479.4627
 Red. masses --      1.6004                 1.3978                 1.1301
 Frc consts  --      1.8095                 1.6573                 1.4574
 IR Inten    --     19.0742                 0.5183                 1.1192

                     40                     41                     42
                      A                      A                      A
 Frequencies --   1494.3466              1834.2883              2898.5627
 Red. masses --      1.1914                10.6925                 1.0846
 Frc consts  --      1.5676                21.1965                 5.3687
 IR Inten    --      1.5419               117.7805                95.3637

                     43                     44                     45
                      A                      A                      A
 Frequencies --   2974.5060              3027.5828              3035.1461
 Red. masses --      1.0815                 1.0817                 1.0607
 Frc consts  --      5.6376                 5.8417                 5.7572
 IR Inten    --     23.3942                37.5303                45.2423

                     46                     47                     48
                      A                      A                      A
 Frequencies --   3082.4197              3101.9071              3184.2323
 Red. masses --      1.1077                 1.0583                 1.0937
 Frc consts  --      6.2011                 5.9996                 6.5338
 IR Inten    --     30.7128                24.2947                14.2615

                     49                     50                     51
                      A                      A                      A
 Frequencies --   3197.3450              3213.4449              3825.7630
 Red. masses --      1.1074                 1.0961                 1.0660
 Frc consts  --      6.6700                 6.6685                 9.1928
 IR Inten    --     10.5065                 7.8732                17.7428

 - Thermochemistry -
 -------------------
 Temperature   298.150 Kelvin.  Pressure   1.00000 Atm.
 Atom     1 has atomic number  8 and mass  15.99491

 Molecular mass:   126.06808 amu.
 Principal axes and moments of inertia in atomic units:
                           1         2         3
     Eigenvalues --   664.594251440.791711937.00044
           X            0.99983  -0.01846  -0.00122
           Y            0.01845   0.99980  -0.00810
           Z            0.00136   0.00808   0.99997
 This molecule is an asymmetric top.
 Rotational symmetry number  1.
 Warning -- assumption of classical behavior for rotation
           may cause significant error
 Rotational temperatures (Kelvin)      0.13033     0.06012     0.04472
 Rotational constants (GHZ):           2.71555     1.25260     0.93172
 Zero-point vibrational energy     414023.9 (Joules/Mol)
                                   98.95409 (Kcal/Mol)
 Warning -- explicit consideration of  11 degrees of freedom as
           vibrations may cause significant error
 Vibrational temperatures:    111.30   134.92   203.59   221.64   342.88
          (Kelvin)            391.06   506.41   544.29   626.52   647.31
                              837.17  1030.80  1122.57  1171.59  1232.18
                             1315.57  1333.07  1388.80  1423.24  1429.97
                             1449.21  1497.82  1537.30  1555.61  1565.34
                             1590.74  1643.79  1679.26  1738.49  1770.15
                             1791.93  1802.30  1840.82  1873.54  1946.52
                             1961.29  1993.10  2041.00  2128.61  2150.03
                             2639.13  4170.38  4279.65  4356.01  4366.89
                             4434.91  4462.95  4581.39  4600.26  4623.42
                             5504.41

 Zero-point correction=                           0.157693 (Hartree/Particle)
 Thermal correction to Energy=                    0.166592
 Thermal correction to Enthalpy=                  0.167536
 Thermal correction to Gibbs Free Energy=         0.123656
 Sum of electronic and zero-point Energies=           -422.995580
 Sum of electronic and thermal Energies=              -422.986681
 Sum of electronic and thermal Enthalpies=            -422.985737
 Sum of electronic and thermal Free Energies=         -423.029617

                     E (Thermal)             CV                S
                      KCal/Mol        Cal/Mol-Kelvin    Cal/Mol-Kelvin
 Total                  104.538             32.939             92.354
 Electronic               0.000              0.000              0.000
 Translational            0.889              2.981             40.409
 Rotational               0.889              2.981             29.007
 Vibrational            102.761             26.977             22.938
 Vibration     1          0.599              1.964              3.957
 Vibration     2          0.603              1.954              3.580
 Vibration     3          0.615              1.912              2.783
 Vibration     4          0.620              1.898              2.622
 Vibration     5          0.656              1.782              1.815
 Vibration     6          0.675              1.725              1.585
 Vibration     7          0.729              1.571              1.157
 Vibration     8          0.749              1.516              1.046
 Vibration     9          0.796              1.393              0.841
 Vibration    10          0.809              1.361              0.796
 Vibration    11          0.939              1.071              0.482

 Optimization completed.
    -- Stationary point found.
 Normal termination of Gaussian 09 at Mon Jan 27 16:25:48 2020.
