 Gaussian 09, Revision D.01,
 Gaussian 09:  ES64L-G09RevD.01 24-Apr-2013

 -----------------------------
 # b3lyp 6-31G(2df,p) opt Freq
 -----------------------------

 -----
 titel
 -----
 Symbolic Z-matrix:
 Charge =  0 Multiplicity = 1

 SCF Done:  E(RB3LYP) =  -423.212289774     A.U. after   14 cycles
 Optimization completed.
    -- Stationary point found.
 Normal termination of Gaussian 09 at Tue Jan 28 00:43:31 2020.

 ----------------------------------------------------------------------
 #N Geom=AllCheck Guess=TCheck SCRF=Check GenChk RB3LYP/6-31G(2df,p) Fr
 eq
 ----------------------------------------------------------------------

 Structure from the checkpoint file:  "/scratch/puck/g09_20c49ebb-0377-4cff-b4cf-c3e0d11097a4/Gau-37437.chk"
 -----
 titel
 -----
 Charge =  0 Multiplicity = 1

                         Standard orientation:
 ---------------------------------------------------------------------
 Center     Atomic      Atomic             Coordinates (Angstroms)
 Number     Number       Type             X           Y           Z
 ---------------------------------------------------------------------
      1          6           0        2.546701    0.232172   -0.409463
      2          6           0        1.479543   -0.348521    0.540056
      3          6           0        0.480285    0.739311    1.008988
      4          6           0       -0.548585    0.993447   -0.075569
      5          8           0       -0.701368    2.057762   -0.624955
      6          6           0       -1.376303   -0.245749   -0.449203
      7          8           0       -2.411153   -0.446675    0.525177
      8          6           0       -0.495022   -1.459244   -0.572976
      9          6           0        0.756520   -1.503441   -0.109795
     10          1           0        3.144770    0.992518    0.102370
     11          1           0        3.224197   -0.550493   -0.764600
     12          1           0        2.080409    0.697279   -1.283548
     13          1           0        2.003914   -0.733901    1.424354
     14          1           0       -0.045807    0.382142    1.902892
     15          1           0        0.988558    1.673291    1.258337
     16          1           0       -1.891416   -0.023627   -1.388718
     17          1           0       -2.050833   -1.017619    1.212199
     18          1           0       -0.944246   -2.335674   -1.033926
     19          1           0        1.331781   -2.420472   -0.223361
 ---------------------------------------------------------------------

 SCF Done:  E(RB3LYP) =  -423.212289774     A.U. after    1 cycles

 The electronic state is 1-A.
 Alpha  occ. eigenvalues --  -19.14824 -19.13008 -10.26361 -10.24020 -10.21279
 Alpha  occ. eigenvalues --  -10.20366 -10.19693 -10.19413 -10.18694  -1.04316
 Alpha  occ. eigenvalues --   -1.02250  -0.84508  -0.76855  -0.73270  -0.69023
 Alpha  occ. eigenvalues --   -0.61995  -0.57835  -0.53934  -0.48689  -0.48016
 Alpha  occ. eigenvalues --   -0.46612  -0.46285  -0.42966  -0.42364  -0.40794
 Alpha  occ. eigenvalues --   -0.40568  -0.38008  -0.36067  -0.34928  -0.34809
 Alpha  occ. eigenvalues --   -0.32827  -0.30557  -0.26857  -0.23128
 Alpha virt. eigenvalues --   -0.02134  -0.00096   0.07031   0.09693   0.11789
 Alpha virt. eigenvalues --    0.13041   0.13675   0.15045   0.16209   0.16870
 Alpha virt. eigenvalues --    0.17694   0.18494   0.19820   0.21151   0.21754

 Mulliken charges:
               1
     1  C   -0.385907
     2  C   -0.042903
     3  C   -0.324497
     4  C    0.393739
     5  O   -0.317192
     6  C    0.008102
     7  O   -0.434073
     8  C   -0.129750
     9  C   -0.053631
    10  H    0.121720
    11  H    0.117770
    12  H    0.137071
    13  H    0.087024
    14  H    0.111706
    15  H    0.118132
    16  H    0.106785
    17  H    0.282418
    18  H    0.103863
    19  H    0.099623
 Sum of Mulliken charges =   0.00000

 Dipole moment (field-independent basis, Debye):
    X=              2.3414    Y=             -3.0295    Z=              1.3759  Tot=              4.0686
 Quadrupole moment (field-independent basis, Debye-Ang):
   XX=            -56.1532   YY=            -56.8375   ZZ=            -51.1007
   XY=              2.5486   XZ=              0.2948   YZ=              1.7921

  Exact polarizability:  90.290   0.044  77.271   5.490   0.202  64.385
 Approx polarizability: 131.910  -3.110 115.555  10.954  -6.154 101.567

                      1                      2                      3
                      A                      A                      A
 Frequencies --     63.4545                96.0344               180.4387
 Red. masses --      4.5990                 4.1861                 3.3248
 Frc consts  --      0.0109                 0.0227                 0.0638
 IR Inten    --      0.8003                 2.3373                 6.6416

                      4                      5                      6
                      A                      A                      A
 Frequencies --    223.2111               244.1120               277.7750
 Red. masses --      5.8913                 1.0499                 1.0991
 Frc consts  --      0.1729                 0.0369                 0.0500
 IR Inten    --     10.3331                 0.0188                64.3121

                      7                      8                      9
                      A                      A                      A
 Frequencies --    352.9305               368.4993               469.8104
 Red. masses --      2.6585                 2.1180                 3.9371
 Frc consts  --      0.1951                 0.1695                 0.5120
 IR Inten    --      1.1647                 0.3463                 0.7322

                     10                     11                     12
                      A                      A                      A
 Frequencies --    471.6121               480.0301               599.9479
 Red. masses --      4.0186                 3.8758                 3.9533
 Frc consts  --      0.5266                 0.5262                 0.8384
 IR Inten    --      0.2155                13.0057                 1.9007

                     13                     14                     15
                      A                      A                      A
 Frequencies --    654.1935               723.6671               783.6309
 Red. masses --      3.3545                 3.8756                 1.5975
 Frc consts  --      0.8458                 1.1958                 0.5780
 IR Inten    --      3.6596                 1.8893                18.9156

                     16                     17                     18
                      A                      A                      A
 Frequencies --    813.4591               880.8073               927.5618
 Red. masses --      2.2447                 2.5855                 2.5023
 Frc consts  --      0.8752                 1.1818                 1.2685
 IR Inten    --      4.2656                 7.7009                14.6097

                     19                     20                     21
                      A                      A                      A
 Frequencies --    955.5723               984.5038              1012.2420
 Red. masses --      1.9778                 2.1371                 1.2837
 Frc consts  --      1.0640                 1.2204                 0.7749
 IR Inten    --      4.0831                44.9622                 7.2392

                     22                     23                     24
                      A                      A                      A
 Frequencies --   1032.6140              1040.8248              1083.9135
 Red. masses --      2.9729                 2.1650                 1.8251
 Frc consts  --      1.8677                 1.3819                 1.2634
 IR Inten    --     52.8178                14.2199                 7.5155

                     25                     26                     27
                      A                      A                      A
 Frequencies --   1120.4809              1152.7669              1215.1153
 Red. masses --      1.7405                 1.3896                 1.2530
 Frc consts  --      1.2875                 1.0880                 1.0900
 IR Inten    --      2.6899                 9.8935                 3.4853

                     28                     29                     30
                      A                      A                      A
 Frequencies --   1246.0765              1255.5091              1283.8046
 Red. masses --      1.3675                 1.5320                 1.7673
 Frc consts  --      1.2510                 1.4228                 1.7162
 IR Inten    --     18.8122                13.5202                 9.9267

                     31                     32                     33
                      A                      A                      A
 Frequencies --   1329.3508              1335.0912              1373.6411
 Red. masses --      1.6610                 1.3326                 1.5313
 Frc consts  --      1.7294                 1.3995                 1.7024
 IR Inten    --      6.0079                 2.1523                 8.3360

                     34                     35                     36
                      A                      A                      A
 Frequencies --   1395.1092              1410.6165              1421.7904
 Red. masses --      1.2483                 1.2698                 1.4067
 Frc consts  --      1.4315                 1.4886                 1.6754
 IR Inten    --     27.8336                33.5799                 5.9161

                     37                     38                     39
                      A                      A                      A
 Frequencies --   1471.4716              1496.3113              1499.0685
 Red. masses --      1.1015                 1.0564                 1.0472
 Frc consts  --      1.4051                 1.3936                 1.3865
 IR Inten    --      8.7858                 2.1396                 6.5508

                     40                     41                     42
                      A                      A                      A
 Frequencies --   1707.0336              1827.4875              3011.9471
 Red. masses --      6.9117                11.3718                 1.0818
 Frc consts  --     11.8665                22.3764                 5.7823
 IR Inten    --      3.0324               158.3128                21.0142

                     43                     44                     45
                      A                      A                      A
 Frequencies --   3035.9381              3038.7704              3071.6433
 Red. masses --      1.0369                 1.0623                 1.0853
 Frc consts  --      5.6306                 5.7794                 6.0331
 IR Inten    --     28.0913                10.5597                16.7095

                     46                     47                     48
                      A                      A                      A
 Frequencies --   3107.7389              3112.6432              3113.4259
 Red. masses --      1.1019                 1.0996                 1.1019
 Frc consts  --      6.2700                 6.2767                 6.2932
 IR Inten    --     10.6624                21.4065                26.5653

                     49                     50                     51
                      A                      A                      A
 Frequencies --   3140.3916              3165.2275              3810.3360
 Red. masses --      1.0840                 1.0963                 1.0665
 Frc consts  --      6.2988                 6.4711                 9.1229
 IR Inten    --      8.2789                23.4042                19.0763

 - Thermochemistry -
 -------------------
 Temperature   298.150 Kelvin.  Pressure   1.00000 Atm.
 Atom     1 has atomic number  6 and mass  12.00000

 Molecular mass:   126.06808 amu.
 Principal axes and moments of inertia in atomic units:
                           1         2         3
     Eigenvalues --   754.991491188.639121593.90139
           X            0.99950   0.03160   0.00081
           Y           -0.03161   0.99913   0.02738
           Z            0.00005  -0.02739   0.99962
 This molecule is an asymmetric top.
 Rotational symmetry number  1.
 Warning -- assumption of classical behavior for rotation
           may cause significant error
 Rotational temperatures (Kelvin)      0.11472     0.07287     0.05434
 Rotational constants (GHZ):           2.39041     1.51833     1.13228
 Zero-point vibrational energy     417913.2 (Joules/Mol)
                                   99.88365 (Kcal/Mol)
 Warning -- explicit consideration of  12 degrees of freedom as
           vibrations may cause significant error
 Vibrational temperatures:     91.30   138.17   259.61   321.15   351.22
          (Kelvin)            399.66   507.79   530.19   675.95   678.54
                              690.66   863.19   941.24  1041.19  1127.47
                             1170.38  1267.28  1334.55  1374.85  1416.48
                             1456.39  1485.70  1497.51  1559.51  1612.12
                             1658.57  1748.28  1792.82  1806.40  1847.11
                             1912.64  1920.90  1976.36  2007.25  2029.56
                             2045.64  2117.12  2152.86  2156.82  2456.04
                             2629.34  4333.51  4368.03  4372.11  4419.40
                             4471.34  4478.39  4479.52  4518.32  4554.05
                             5482.22

 Zero-point correction=                           0.159175 (Hartree/Particle)
 Thermal correction to Energy=                    0.168085
 Thermal correction to Enthalpy=                  0.169029
 Thermal correction to Gibbs Free Energy=         0.125432
 Sum of electronic and zero-point Energies=           -423.053115
 Sum of electronic and thermal Energies=              -423.044205
 Sum of electronic and thermal Enthalpies=            -423.043261
 Sum of electronic and thermal Free Energies=         -423.086858

                     E (Thermal)             CV                S
                      KCal/Mol        Cal/Mol-Kelvin    Cal/Mol-Kelvin
 Total                  105.475             33.450             91.758
 Electronic               0.000              0.000              0.000
 Translational            0.889              2.981             40.409
 Rotational               0.889              2.981             28.749
 Vibrational            103.697             27.488             22.600
 Vibration     1          0.597              1.972              4.347
 Vibration     2          0.603              1.952              3.533
 Vibration     3          0.629              1.866              2.324
 Vibration     4          0.649              1.806              1.933
 Vibration     5          0.659              1.773              1.773
 Vibration     6          0.679              1.715              1.547
 Vibration     7          0.729              1.569              1.153
 Vibration     8          0.741              1.537              1.086
 Vibration     9          0.827              1.317              0.738
 Vibration    10          0.829              1.313              0.733
 Vibration    11          0.836              1.294              0.710
 Vibration    12          0.958              1.032              0.450

 Optimization completed.
    -- Stationary point found.
 Normal termination of Gaussian 09 at Tue Jan 28 02:53:08 2020.
