 Gaussian 09, Revision D.01,
 Gaussian 09:  ES64L-G09RevD.01 24-Apr-2013

 -----------------------------
 # b3lyp 6-31G(2df,p) opt Freq
 -----------------------------

 -----
 titel
 -----
 Symbolic Z-matrix:
 Charge =  0 Multiplicity = 1

 SCF Done:  E(RB3LYP) =  -423.122222615     A.U. after   13 cycles
 Optimization completed.
    -- Stationary point found.
 Normal termination of Gaussian 09 at Tue Jan 28 00:02:11 2020.

 ----------------------------------------------------------------------
 #N Geom=AllCheck Guess=TCheck SCRF=Check GenChk RB3LYP/6-31G(2df,p) Fr
 eq
 ----------------------------------------------------------------------

 Structure from the checkpoint file:  "/scratch/puck/g09_62a66a1c-aca2-431c-8384-de28c4ff1b3e/Gau-104147.chk"
 -----
 titel
 -----
 Charge =  0 Multiplicity = 1

                         Standard orientation:
 ---------------------------------------------------------------------
 Center     Atomic      Atomic             Coordinates (Angstroms)
 Number     Number       Type             X           Y           Z
 ---------------------------------------------------------------------
      1          6           0        2.319710   -1.012056   -0.262633
      2          6           0        0.935932   -0.911880    0.363748
      3          6           0       -0.286416   -0.888059   -0.610995
      4          6           0       -1.658143   -1.364089   -0.067948
      5          8           0       -2.046377   -0.006130    0.305023
      6          6           0       -0.760547    0.461868   -0.030838
      7          6           0       -0.317851    1.815949   -0.541787
      8          8           0        0.977453    1.601657    0.087535
      9          6           0        0.493997    0.487014    0.886158
     10          1           0        3.102190   -0.932981    0.499387
     11          1           0        2.446839   -1.969893   -0.778036
     12          1           0        2.475231   -0.205104   -0.983529
     13          1           0        0.815719   -1.672064    1.145268
     14          1           0       -0.105507   -1.049675   -1.674220
     15          1           0       -2.348805   -1.774451   -0.811137
     16          1           0       -1.621090   -2.027257    0.804488
     17          1           0       -0.239848    1.962259   -1.624820
     18          1           0       -0.847784    2.665562   -0.089472
     19          1           0        0.514351    0.706910    1.957383
 ---------------------------------------------------------------------

 SCF Done:  E(RB3LYP) =  -423.122222615     A.U. after    1 cycles

 The electronic state is 1-A.
 Alpha  occ. eigenvalues --  -19.14514 -19.14084 -10.24016 -10.24008 -10.23253
 Alpha  occ. eigenvalues --  -10.22631 -10.19474 -10.19333 -10.17455  -1.05985
 Alpha  occ. eigenvalues --   -1.03181  -0.82369  -0.72965  -0.71559  -0.68845
 Alpha  occ. eigenvalues --   -0.61143  -0.59095  -0.52157  -0.51060  -0.49581
 Alpha  occ. eigenvalues --   -0.47463  -0.45126  -0.43278  -0.42529  -0.40428
 Alpha  occ. eigenvalues --   -0.39002  -0.36851  -0.35858  -0.33532  -0.32806
 Alpha  occ. eigenvalues --   -0.30469  -0.28841  -0.24841  -0.24097
 Alpha virt. eigenvalues --    0.05570   0.08777   0.09710   0.10546   0.11469
 Alpha virt. eigenvalues --    0.13316   0.14078   0.15005   0.16240   0.17287
 Alpha virt. eigenvalues --    0.17516   0.18064   0.18312   0.19232   0.20277

 Mulliken charges:
               1
     1  C   -0.409930
     2  C   -0.009595
     3  C   -0.151570
     4  C   -0.113113
     5  O   -0.326743
     6  C    0.420301
     7  C   -0.168923
     8  O   -0.292236
     9  C    0.023790
    10  H    0.117862
    11  H    0.111489
    12  H    0.133044
    13  H    0.073261
    14  H    0.078304
    15  H    0.113558
    16  H    0.106651
    17  H    0.108060
    18  H    0.111122
    19  H    0.074669
 Sum of Mulliken charges =   0.00000

 Dipole moment (field-independent basis, Debye):
    X=             -0.0011    Y=             -1.5906    Z=             -0.5779  Tot=              1.6923
 Quadrupole moment (field-independent basis, Debye-Ang):
   XX=            -58.3800   YY=            -51.7394   ZZ=            -50.9904
   XY=             -1.1033   XZ=              1.9234   YZ=             -0.7673

  Exact polarizability:  77.666  -0.387  79.586   2.327  -1.514  67.172
 Approx polarizability: 108.110   0.844 111.700   2.821  -2.165 102.640

                      1                      2                      3
                      A                      A                      A
 Frequencies --    105.3228               214.0875               227.7268
 Red. masses --      3.2244                 1.0530                 2.6467
 Frc consts  --      0.0211                 0.0284                 0.0809
 IR Inten    --      0.3379                 0.0767                 1.7202

                      4                      5                      6
                      A                      A                      A
 Frequencies --    236.0007               277.3769               349.2498
 Red. masses --      2.6650                 3.3167                 2.4810
 Frc consts  --      0.0875                 0.1503                 0.1783
 IR Inten    --      3.5294                 4.3474                 1.5961

                      7                      8                      9
                      A                      A                      A
 Frequencies --    362.3253               520.5973               535.0206
 Red. masses --      3.5309                 5.2332                 3.2228
 Frc consts  --      0.2731                 0.8356                 0.5435
 IR Inten    --      3.4722                 1.4539                 3.6027

                     10                     11                     12
                      A                      A                      A
 Frequencies --    666.7585               770.7891               797.8501
 Red. masses --      3.2754                 2.0479                 4.0486
 Frc consts  --      0.8579                 0.7169                 1.5184
 IR Inten    --      3.7182                 0.6484                 7.3132

                     13                     14                     15
                      A                      A                      A
 Frequencies --    826.6009               885.2118               923.5549
 Red. masses --      2.1405                 2.1343                 2.9568
 Frc consts  --      0.8617                 0.9854                 1.4859
 IR Inten    --      2.7020                 4.5098                11.4962

                     16                     17                     18
                      A                      A                      A
 Frequencies --    953.7070               967.4133               968.7303
 Red. masses --      2.6089                 2.0870                 2.3273
 Frc consts  --      1.3981                 1.1508                 1.2868
 IR Inten    --      9.8186                41.6404                66.1725

                     19                     20                     21
                      A                      A                      A
 Frequencies --    979.9590              1009.2343              1034.5798
 Red. masses --      4.0520                 2.8838                 2.4513
 Frc consts  --      2.2926                 1.7306                 1.5459
 IR Inten    --     25.5686                17.3460                15.3550

                     22                     23                     24
                      A                      A                      A
 Frequencies --   1080.1087              1104.4503              1127.5277
 Red. masses --      2.1525                 2.0133                 1.5506
 Frc consts  --      1.4796                 1.4469                 1.1614
 IR Inten    --      2.7751                 6.8150                 5.6944

                     25                     26                     27
                      A                      A                      A
 Frequencies --   1138.3859              1150.5960              1167.6812
 Red. masses --      1.6149                 1.6049                 1.5079
 Frc consts  --      1.2330                 1.2518                 1.2114
 IR Inten    --     13.3959                 3.3713                 4.5839

                     28                     29                     30
                      A                      A                      A
 Frequencies --   1184.6245              1237.5029              1256.2835
 Red. masses --      1.5601                 1.9378                 1.6120
 Frc consts  --      1.2899                 1.7484                 1.4990
 IR Inten    --      6.6790                39.8927                 3.9013

                     31                     32                     33
                      A                      A                      A
 Frequencies --   1271.6249              1293.2380              1314.2662
 Red. masses --      1.6668                 1.5407                 1.4561
 Frc consts  --      1.5880                 1.5182                 1.4818
 IR Inten    --      0.6247                 4.4732                28.1053

                     34                     35                     36
                      A                      A                      A
 Frequencies --   1343.5084              1356.5234              1372.9785
 Red. masses --      1.8087                 1.6943                 1.9558
 Frc consts  --      1.9235                 1.8369                 2.1722
 IR Inten    --      3.2320                 2.9931                37.5606

                     37                     38                     39
                      A                      A                      A
 Frequencies --   1406.8373              1490.3623              1501.9874
 Red. masses --      1.2478                 1.0440                 1.0496
 Frc consts  --      1.4551                 1.3663                 1.3951
 IR Inten    --      3.1425                 3.2380                 3.4473

                     40                     41                     42
                      A                      A                      A
 Frequencies --   1513.1052              1517.5446              3007.7428
 Red. masses --      1.1038                 1.1316                 1.0589
 Frc consts  --      1.4889                 1.5354                 5.6440
 IR Inten    --      2.1353                 1.9422                74.9731

                     43                     44                     45
                      A                      A                      A
 Frequencies --   3026.4469              3029.5022              3036.0249
 Red. masses --      1.0622                 1.0721                 1.0419
 Frc consts  --      5.7323                 5.7975                 5.6582
 IR Inten    --     28.4011                52.5643                30.4827

                     46                     47                     48
                      A                      A                      A
 Frequencies --   3068.0979              3070.1381              3081.0871
 Red. masses --      1.1053                 1.0895                 1.1089
 Frc consts  --      6.1300                 6.0507                 6.2023
 IR Inten    --     53.9571                30.0870                28.4487

                     49                     50                     51
                      A                      A                      A
 Frequencies --   3098.4410              3105.7087              3120.0433
 Red. masses --      1.1013                 1.0907                 1.1002
 Frc consts  --      6.2295                 6.1985                 6.3103
 IR Inten    --     16.2193                38.0706                20.0484

 - Thermochemistry -
 -------------------
 Temperature   298.150 Kelvin.  Pressure   1.00000 Atm.
 Atom     1 has atomic number  6 and mass  12.00000

 Molecular mass:   126.06808 amu.
 Principal axes and moments of inertia in atomic units:
                           1         2         3
     Eigenvalues --   723.40787 963.248771434.40363
           X            0.99776  -0.06689   0.00189
           Y            0.06691   0.99773  -0.00810
           Z           -0.00134   0.00821   0.99997
 This molecule is an asymmetric top.
 Rotational symmetry number  1.
 Warning -- assumption of classical behavior for rotation
           may cause significant error
 Rotational temperatures (Kelvin)      0.11973     0.08992     0.06038
 Rotational constants (GHZ):           2.49478     1.87360     1.25818
 Zero-point vibrational energy     419198.2 (Joules/Mol)
                                  100.19077 (Kcal/Mol)
 Warning -- explicit consideration of   9 degrees of freedom as
           vibrations may cause significant error
 Vibrational temperatures:    151.54   308.02   327.65   339.55   399.08
          (Kelvin)            502.49   521.30   749.02   769.77   959.32
                             1108.99  1147.93  1189.29  1273.62  1328.79
                             1372.17  1391.89  1393.79  1409.94  1452.06
                             1488.53  1554.03  1589.06  1622.26  1637.88
                             1655.45  1680.03  1704.41  1780.49  1807.51
                             1829.58  1860.68  1890.93  1933.01  1951.73
                             1975.41  2024.12  2144.30  2161.02  2177.02
                             2183.41  4327.47  4354.38  4358.77  4368.16
                             4414.30  4417.24  4432.99  4457.96  4468.42
                             4489.04

 Zero-point correction=                           0.159664 (Hartree/Particle)
 Thermal correction to Energy=                    0.167327
 Thermal correction to Enthalpy=                  0.168271
 Thermal correction to Gibbs Free Energy=         0.127685
 Sum of electronic and zero-point Energies=           -422.962558
 Sum of electronic and thermal Energies=              -422.954896
 Sum of electronic and thermal Enthalpies=            -422.953952
 Sum of electronic and thermal Free Energies=         -422.994537

                     E (Thermal)             CV                S
                      KCal/Mol        Cal/Mol-Kelvin    Cal/Mol-Kelvin
 Total                  104.999             30.075             85.420
 Electronic               0.000              0.000              0.000
 Translational            0.889              2.981             40.409
 Rotational               0.889              2.981             28.393
 Vibrational            103.222             24.113             16.618
 Vibration     1          0.605              1.945              3.353
 Vibration     2          0.644              1.820              2.009
 Vibration     3          0.651              1.799              1.897
 Vibration     4          0.655              1.786              1.833
 Vibration     5          0.678              1.715              1.550
 Vibration     6          0.727              1.577              1.170
 Vibration     7          0.736              1.550              1.112
 Vibration     8          0.876              1.204              0.609
 Vibration     9          0.890              1.173              0.576

 Optimization completed.
    -- Stationary point found.
 Normal termination of Gaussian 09 at Tue Jan 28 00:51:09 2020.
