 Gaussian 09, Revision D.01,
 Gaussian 09:  ES64L-G09RevD.01 24-Apr-2013

 -----------------------------
 # b3lyp 6-31G(2df,p) opt Freq
 -----------------------------

 -----
 titel
 -----
 Symbolic Z-matrix:
 Charge =  0 Multiplicity = 1

 SCF Done:  E(RB3LYP) =  -423.192976131     A.U. after   14 cycles
 SCF Done:  E(RB3LYP) =  -423.192976279     A.U. after    6 cycles
 SCF Done:  E(RB3LYP) =  -423.192976465     A.U. after    6 cycles
 Optimization completed.
    -- Stationary point found.
 Normal termination of Gaussian 09 at Tue Jan 28 00:24:29 2020.

 ----------------------------------------------------------------------
 #N Geom=AllCheck Guess=TCheck SCRF=Check GenChk RB3LYP/6-31G(2df,p) Fr
 eq
 ----------------------------------------------------------------------

 Structure from the checkpoint file:  "/scratch/puck/g09_54c4d048-972c-422f-bf24-bdec091658a9/Gau-56589.chk"
 -----
 titel
 -----
 Charge =  0 Multiplicity = 1

                         Standard orientation:
 ---------------------------------------------------------------------
 Center     Atomic      Atomic             Coordinates (Angstroms)
 Number     Number       Type             X           Y           Z
 ---------------------------------------------------------------------
      1          6           0       -1.015104    2.001970    0.237596
      2          6           0       -0.351305    0.650629    0.188267
      3          6           0        0.333779    0.095572    1.463292
      4          6           0        0.833732   -1.301671    0.943353
      5          6           0        0.329813   -1.238520   -0.516629
      6          6           0        0.700849    0.234962   -0.916205
      7          8           0        2.021786    0.688935   -0.841200
      8          6           0       -1.063798   -0.627925   -0.291333
      9          8           0       -2.195274   -0.939136   -0.523028
     10          1           0       -1.761833    2.044767    1.037515
     11          1           0       -0.279840    2.793042    0.421311
     12          1           0       -1.525506    2.225203   -0.704369
     13          1           0        1.150107    0.746227    1.795464
     14          1           0       -0.368102    0.008243    2.296475
     15          1           0        1.921616   -1.413634    0.996604
     16          1           0        0.396918   -2.136935    1.495014
     17          1           0        0.503600   -2.091301   -1.168536
     18          1           0        0.348892    0.487005   -1.918804
     19          1           0        2.394255    0.448889    0.013105
 ---------------------------------------------------------------------

 SCF Done:  E(RB3LYP) =  -423.192976465     A.U. after    1 cycles

 The electronic state is 1-A.
 Alpha  occ. eigenvalues --  -19.15370 -19.13968 -10.26867 -10.24884 -10.20555
 Alpha  occ. eigenvalues --  -10.20307 -10.20279 -10.19887 -10.18258  -1.04994
 Alpha  occ. eigenvalues --   -1.03796  -0.89321  -0.75435  -0.73801  -0.66879
 Alpha  occ. eigenvalues --   -0.62815  -0.57220  -0.53288  -0.50380  -0.49059
 Alpha  occ. eigenvalues --   -0.46198  -0.45643  -0.41660  -0.41055  -0.40049
 Alpha  occ. eigenvalues --   -0.38744  -0.37888  -0.37597  -0.36153  -0.35459
 Alpha  occ. eigenvalues --   -0.34096  -0.32466  -0.27194  -0.22979
 Alpha virt. eigenvalues --   -0.01552   0.06259   0.09453   0.11108   0.13260
 Alpha virt. eigenvalues --    0.13510   0.14170   0.15402   0.16465   0.17108
 Alpha virt. eigenvalues --    0.17494   0.18010   0.18969   0.20307   0.21874

 Mulliken charges:
               1
     1  C   -0.503804
     2  C    0.161796
     3  C   -0.280748
     4  C   -0.253413
     5  C   -0.191655
     6  C    0.124538
     7  O   -0.443534
     8  C    0.409530
     9  O   -0.325511
    10  H    0.127372
    11  H    0.124530
    12  H    0.127896
    13  H    0.101377
    14  H    0.117789
    15  H    0.103382
    16  H    0.121422
    17  H    0.086025
    18  H    0.104946
    19  H    0.288064
 Sum of Mulliken charges =   0.00000

 Dipole moment (field-independent basis, Debye):
    X=              1.9835    Y=              0.2000    Z=              1.7753  Tot=              2.6695
 Quadrupole moment (field-independent basis, Debye-Ang):
   XX=            -60.1833   YY=            -53.3471   ZZ=            -52.0491
   XY=             -4.7634   XZ=              1.7208   YZ=              0.1000

  Exact polarizability:  78.176  -1.631  75.721   2.447   0.979  69.442
 Approx polarizability: 123.344   4.601 106.073   4.172   1.153 104.436

                      1                      2                      3
                      A                      A                      A
 Frequencies --    140.6142               160.8201               195.9769
 Red. masses --      3.2761                 1.3672                 2.1732
 Frc consts  --      0.0382                 0.0208                 0.0492
 IR Inten    --      3.3775                 0.5809                 8.1780

                      4                      5                      6
                      A                      A                      A
 Frequencies --    198.7530               254.5853               267.6974
 Red. masses --      1.3027                 3.5271                 3.5816
 Frc consts  --      0.0303                 0.1347                 0.1512
 IR Inten    --     45.1794                 9.2926                 0.9169

                      7                      8                      9
                      A                      A                      A
 Frequencies --    280.6352               351.6202               519.0222
 Red. masses --      1.6019                 3.3442                 3.5940
 Frc consts  --      0.0743                 0.2436                 0.5704
 IR Inten    --     11.4501                14.4892                 0.6691

                     10                     11                     12
                      A                      A                      A
 Frequencies --    538.3373               595.1602               696.2798
 Red. masses --      4.3188                 3.4150                 3.1913
 Frc consts  --      0.7374                 0.7127                 0.9116
 IR Inten    --      1.6448                 1.5192                 2.9204

                     13                     14                     15
                      A                      A                      A
 Frequencies --    740.0875               749.4178               771.1983
 Red. masses --      4.4038                 3.8843                 4.5396
 Frc consts  --      1.4212                 1.2853                 1.5907
 IR Inten    --      1.9633                11.9761                 9.7093

                     16                     17                     18
                      A                      A                      A
 Frequencies --    817.9859               865.0415               899.5187
 Red. masses --      3.5197                 1.3743                 2.7005
 Frc consts  --      1.3875                 0.6059                 1.2874
 IR Inten    --      0.1719                 3.3607                 0.9860

                     19                     20                     21
                      A                      A                      A
 Frequencies --    912.1628               966.7991               980.4097
 Red. masses --      2.0257                 1.6965                 1.7474
 Frc consts  --      0.9931                 0.9343                 0.9896
 IR Inten    --      3.8187                 6.1130                 2.2299

                     22                     23                     24
                      A                      A                      A
 Frequencies --   1055.3781              1087.0192              1115.2270
 Red. masses --      2.0043                 1.4681                 1.6627
 Frc consts  --      1.3153                 1.0221                 1.2184
 IR Inten    --     22.9513                35.2576                12.4631

                     25                     26                     27
                      A                      A                      A
 Frequencies --   1139.8909              1153.2905              1175.3662
 Red. masses --      1.7749                 2.5548                 2.3042
 Frc consts  --      1.3588                 2.0021                 1.8755
 IR Inten    --     27.7187                72.1539                 9.6119

                     28                     29                     30
                      A                      A                      A
 Frequencies --   1217.7884              1232.9678              1245.2646
 Red. masses --      1.6185                 1.4347                 1.1650
 Frc consts  --      1.4141                 1.2851                 1.0644
 IR Inten    --     26.9413                 4.6305                 1.0792

                     31                     32                     33
                      A                      A                      A
 Frequencies --   1255.2090              1302.8546              1316.8532
 Red. masses --      1.9489                 1.5486                 1.5540
 Frc consts  --      1.8092                 1.5488                 1.5877
 IR Inten    --      6.6595                13.0186                 0.8633

                     34                     35                     36
                      A                      A                      A
 Frequencies --   1364.2724              1414.4312              1448.9725
 Red. masses --      2.5835                 1.3432                 1.2097
 Frc consts  --      2.8331                 1.5832                 1.4964
 IR Inten    --      1.5218                 1.3549                62.6129

                     37                     38                     39
                      A                      A                      A
 Frequencies --   1489.3693              1491.5618              1504.9811
 Red. masses --      1.0497                 1.0501                 1.0763
 Frc consts  --      1.3719                 1.3764                 1.4363
 IR Inten    --      4.9157                 7.7221                 0.9184

                     40                     41                     42
                      A                      A                      A
 Frequencies --   1522.0887              1898.7387              3031.5461
 Red. masses --      1.0996                12.3599                 1.0360
 Frc consts  --      1.5010                26.2540                 5.6094
 IR Inten    --      2.1999               262.5659                20.6154

                     43                     44                     45
                      A                      A                      A
 Frequencies --   3039.3432              3053.2248              3090.2553
 Red. masses --      1.0653                 1.0647                 1.0997
 Frc consts  --      5.7982                 5.8480                 6.1874
 IR Inten    --     31.3475                42.7179                 4.0324

                     46                     47                     48
                      A                      A                      A
 Frequencies --   3097.0396              3098.3047              3104.9896
 Red. masses --      1.1008                 1.0871                 1.1008
 Frc consts  --      6.2207                 6.1486                 6.2526
 IR Inten    --     15.5616                14.1993                19.9720

                     49                     50                     51
                      A                      A                      A
 Frequencies --   3108.7484              3152.6369              3823.7114
 Red. masses --      1.1009                 1.0912                 1.0652
 Frc consts  --      6.2685                 6.3898                 9.1758
 IR Inten    --     29.5328                19.3210                13.3738

 - Thermochemistry -
 -------------------
 Temperature   298.150 Kelvin.  Pressure   1.00000 Atm.
 Atom     1 has atomic number  6 and mass  12.00000

 Molecular mass:   126.06808 amu.
 Principal axes and moments of inertia in atomic units:
                           1         2         3
     Eigenvalues --   829.608851041.124371256.74725
           X            0.98470  -0.17366   0.01455
           Y            0.17369   0.98480  -0.00070
           Z           -0.01421   0.00321   0.99989
 This molecule is an asymmetric top.
 Rotational symmetry number  1.
 Warning -- assumption of classical behavior for rotation
           may cause significant error
 Rotational temperatures (Kelvin)      0.10440     0.08319     0.06892
 Rotational constants (GHZ):           2.17541     1.73345     1.43604
 Zero-point vibrational energy     418294.9 (Joules/Mol)
                                   99.97488 (Kcal/Mol)
 Warning -- explicit consideration of  11 degrees of freedom as
           vibrations may cause significant error
 Vibrational temperatures:    202.31   231.38   281.97   285.96   366.29
          (Kelvin)            385.16   403.77   505.90   746.76   774.55
                              856.30  1001.79  1064.82  1078.24  1109.58
                             1176.90  1244.60  1294.21  1312.40  1391.01
                             1410.59  1518.45  1563.98  1604.56  1640.05
                             1659.33  1691.09  1752.12  1773.96  1791.66
                             1805.96  1874.51  1894.66  1962.88  2035.05
                             2084.75  2142.87  2146.02  2165.33  2189.94
                             2731.86  4361.71  4372.93  4392.90  4446.18
                             4455.94  4457.76  4467.38  4472.79  4535.94
                             5501.46

 Zero-point correction=                           0.159320 (Hartree/Particle)
 Thermal correction to Energy=                    0.167860
 Thermal correction to Enthalpy=                  0.168804
 Thermal correction to Gibbs Free Energy=         0.126656
 Sum of electronic and zero-point Energies=           -423.033656
 Sum of electronic and thermal Energies=              -423.025116
 Sum of electronic and thermal Enthalpies=            -423.024172
 Sum of electronic and thermal Free Energies=         -423.066320

                     E (Thermal)             CV                S
                      KCal/Mol        Cal/Mol-Kelvin    Cal/Mol-Kelvin
 Total                  105.334             32.858             88.707
 Electronic               0.000              0.000              0.000
 Translational            0.889              2.981             40.409
 Rotational               0.889              2.981             28.475
 Vibrational            103.556             26.897             19.824
 Vibration     1          0.615              1.913              2.796
 Vibration     2          0.622              1.890              2.540
 Vibration     3          0.636              1.845              2.171
 Vibration     4          0.637              1.842              2.145
 Vibration     5          0.665              1.755              1.699
 Vibration     6          0.673              1.732              1.611
 Vibration     7          0.680              1.709              1.530
 Vibration     8          0.728              1.572              1.159
 Vibration     9          0.874              1.208              0.612
 Vibration    10          0.893              1.165              0.569
 Vibration    11          0.953              1.042              0.458

 Normal termination of Gaussian 09 at Tue Jan 28 01:43:52 2020.
