 Gaussian 09, Revision D.01,
 Gaussian 09:  ES64L-G09RevD.01 24-Apr-2013

 -----------------------------
 # b3lyp 6-31G(2df,p) opt Freq
 -----------------------------

 -----
 titel
 -----
 Symbolic Z-matrix:
 Charge =  0 Multiplicity = 1

 SCF Done:  E(RB3LYP) =  -423.150004735     A.U. after   14 cycles
 Optimization completed.
    -- Stationary point found.
 Normal termination of Gaussian 09 at Mon Jan 27 12:09:57 2020.

 ----------------------------------------------------------------------
 #N Geom=AllCheck Guess=TCheck SCRF=Check GenChk RB3LYP/6-31G(2df,p) Fr
 eq
 ----------------------------------------------------------------------

 Structure from the checkpoint file:  "/scratch/puck/g09_6c9f3157-18d7-4b4f-8c9c-9261766fcf8d/Gau-44876.chk"
 -----
 titel
 -----
 Charge =  0 Multiplicity = 1

                         Standard orientation:
 ---------------------------------------------------------------------
 Center     Atomic      Atomic             Coordinates (Angstroms)
 Number     Number       Type             X           Y           Z
 ---------------------------------------------------------------------
      1          6           0       -2.567038   -0.556168    0.318912
      2          8           0       -2.336254    0.633700   -0.443287
      3          6           0       -1.372296   -0.414431   -0.522828
      4          6           0       -0.028086   -0.111382    0.049399
      5          6           0        0.189702    0.973246    1.070492
      6          6           0        0.807392    1.085459   -0.316379
      7          6           0        2.215961    0.551317   -0.509964
      8          6           0        2.150339   -0.846750    0.146552
      9          8           0        0.782684   -1.260392    0.105354
     10          1           0       -2.471446   -0.441606    1.396895
     11          1           0       -3.398259   -1.171189   -0.021221
     12          1           0       -1.346324   -0.944282   -1.475894
     13          1           0       -0.655391    1.623524    1.265885
     14          1           0        0.824688    0.772031    1.927084
     15          1           0        0.431489    1.848920   -0.986983
     16          1           0        2.432283    0.473708   -1.580648
     17          1           0        2.994998    1.171127   -0.055515
     18          1           0        2.745561   -1.603363   -0.371827
     19          1           0        2.495123   -0.803075    1.188588
 ---------------------------------------------------------------------

 SCF Done:  E(RB3LYP) =  -423.150004735     A.U. after    1 cycles

 The electronic state is 1-A.
 Alpha  occ. eigenvalues --  -19.15410 -19.14294 -10.23901 -10.23791 -10.23233
 Alpha  occ. eigenvalues --  -10.23038 -10.19030 -10.19002 -10.18242  -1.07399
 Alpha  occ. eigenvalues --   -1.04359  -0.84834  -0.76462  -0.68478  -0.65395
 Alpha  occ. eigenvalues --   -0.63395  -0.57430  -0.55130  -0.52697  -0.49534
 Alpha  occ. eigenvalues --   -0.47693  -0.45277  -0.44571  -0.41070  -0.40480
 Alpha  occ. eigenvalues --   -0.38831  -0.38136  -0.35484  -0.34136  -0.33122
 Alpha  occ. eigenvalues --   -0.30275  -0.28307  -0.26906  -0.23089
 Alpha virt. eigenvalues --    0.08724   0.09343   0.10309   0.11240   0.11828
 Alpha virt. eigenvalues --    0.12419   0.14040   0.14585   0.15983   0.17090
 Alpha virt. eigenvalues --    0.17595   0.18635   0.20426   0.20837   0.22258

 Mulliken charges:
               1
     1  C   -0.173243
     2  O   -0.236338
     3  C   -0.014404
     4  C    0.451399
     5  C   -0.370888
     6  C   -0.114780
     7  C   -0.242388
     8  C   -0.097973
     9  O   -0.307553
    10  H    0.117876
    11  H    0.117986
    12  H    0.096635
    13  H    0.131281
    14  H    0.111349
    15  H    0.102276
    16  H    0.109617
    17  H    0.106704
    18  H    0.111367
    19  H    0.101074
 Sum of Mulliken charges =   0.00000

 Dipole moment (field-independent basis, Debye):
    X=              1.1803    Y=             -0.2361    Z=              0.2619  Tot=              1.2319
 Quadrupole moment (field-independent basis, Debye-Ang):
   XX=            -49.9139   YY=            -55.7772   ZZ=            -51.3064
   XY=              3.5683   XZ=             -1.7573   YZ=              1.0351

  Exact polarizability:  90.369   2.036  66.248  -3.797   1.506  67.947
 Approx polarizability: 114.875   1.237 104.372  -5.393   0.909 103.852

                      1                      2                      3
                      A                      A                      A
 Frequencies --     73.7345               149.9577               186.3598
 Red. masses --      3.7613                 3.0290                 3.2519
 Frc consts  --      0.0120                 0.0401                 0.0665
 IR Inten    --      2.2021                 2.3572                 3.7115

                      4                      5                      6
                      A                      A                      A
 Frequencies --    226.1998               301.8540               377.7533
 Red. masses --      2.2600                 2.9480                 4.9517
 Frc consts  --      0.0681                 0.1583                 0.4163
 IR Inten    --      4.2603                 2.0819                 1.2306

                      7                      8                      9
                      A                      A                      A
 Frequencies --    422.2452               493.1486               647.6568
 Red. masses --      2.2388                 3.9244                 2.6276
 Frc consts  --      0.2352                 0.5623                 0.6494
 IR Inten    --      0.6893                 5.4594                 3.7155

                     10                     11                     12
                      A                      A                      A
 Frequencies --    667.7693               708.1760               821.0156
 Red. masses --      2.2464                 5.0242                 1.7932
 Frc consts  --      0.5902                 1.4846                 0.7122
 IR Inten    --      0.7592                 7.3751                 3.4182

                     13                     14                     15
                      A                      A                      A
 Frequencies --    861.8537               869.2137               878.3781
 Red. masses --      1.7259                 2.3307                 3.2413
 Frc consts  --      0.7553                 1.0375                 1.4734
 IR Inten    --      2.5971                 0.9177                15.8774

                     16                     17                     18
                      A                      A                      A
 Frequencies --    908.5741               927.5743               950.5175
 Red. masses --      3.9215                 2.1378                 2.1937
 Frc consts  --      1.9073                 1.0837                 1.1677
 IR Inten    --     36.0996                 4.9080                24.6582

                     19                     20                     21
                      A                      A                      A
 Frequencies --    976.6561              1017.9030              1024.4158
 Red. masses --      2.5359                 1.7018                 1.5746
 Frc consts  --      1.4252                 1.0389                 0.9736
 IR Inten    --     10.9219                23.0361                19.0768

                     22                     23                     24
                      A                      A                      A
 Frequencies --   1063.7143              1081.6700              1097.1447
 Red. masses --      1.4688                 1.5762                 2.3917
 Frc consts  --      0.9792                 1.0865                 1.6962
 IR Inten    --     11.0161                 6.1285                34.6377

                     25                     26                     27
                      A                      A                      A
 Frequencies --   1103.8025              1136.6461              1151.8868
 Red. masses --      1.3984                 1.9085                 1.3834
 Frc consts  --      1.0039                 1.4528                 1.0815
 IR Inten    --      5.7611                 5.7773                 1.5509

                     28                     29                     30
                      A                      A                      A
 Frequencies --   1171.2426              1213.1183              1220.7539
 Red. masses --      1.3559                 2.6401                 1.2578
 Frc consts  --      1.0959                 2.2891                 1.1044
 IR Inten    --      1.5365                73.5794                 0.8386

                     31                     32                     33
                      A                      A                      A
 Frequencies --   1236.4107              1269.3805              1288.6395
 Red. masses --      1.3519                 1.7870                 1.4610
 Frc consts  --      1.2176                 1.6965                 1.4294
 IR Inten    --      8.1386                 6.4945                 5.4611

                     34                     35                     36
                      A                      A                      A
 Frequencies --   1325.0815              1387.1801              1391.5694
 Red. masses --      1.5205                 1.6324                 1.3955
 Frc consts  --      1.5730                 1.8507                 1.5922
 IR Inten    --      9.5750                 5.5017                 1.0552

                     37                     38                     39
                      A                      A                      A
 Frequencies --   1448.2979              1480.3162              1495.9371
 Red. masses --      1.6059                 1.8394                 1.1458
 Frc consts  --      1.9846                 2.3749                 1.5107
 IR Inten    --      6.2876                 6.4538                 1.7319

                     40                     41                     42
                      A                      A                      A
 Frequencies --   1522.8250              1529.4917              3009.5461
 Red. masses --      1.3926                 1.1166                 1.0699
 Frc consts  --      1.9028                 1.5390                 5.7096
 IR Inten    --      1.7133                 1.5324                49.4607

                     43                     44                     45
                      A                      A                      A
 Frequencies --   3046.1386              3081.9346              3090.0096
 Red. masses --      1.0602                 1.0958                 1.0498
 Frc consts  --      5.7960                 6.1323                 5.9060
 IR Inten    --     33.1192                29.2998                24.8608

                     46                     47                     48
                      A                      A                      A
 Frequencies --   3094.6032              3104.7537              3132.3930
 Red. masses --      1.1036                 1.0879                 1.0541
 Frc consts  --      6.2271                 6.1787                 6.0937
 IR Inten    --     36.3759                27.2898                 8.6564

                     49                     50                     51
                      A                      A                      A
 Frequencies --   3181.9311              3183.1980              3224.8222
 Red. masses --      1.1192                 1.0923                 1.1160
 Frc consts  --      6.6765                 6.5208                 6.8381
 IR Inten    --     21.9992                 8.2840                 4.0669

 - Thermochemistry -
 -------------------
 Temperature   298.150 Kelvin.  Pressure   1.00000 Atm.
 Atom     1 has atomic number  6 and mass  12.00000

 Molecular mass:   126.06808 amu.
 Principal axes and moments of inertia in atomic units:
                           1         2         3
     Eigenvalues --   464.854851471.037451645.26514
           X            0.99980   0.01783  -0.00884
           Y           -0.01759   0.99949   0.02662
           Z            0.00931  -0.02646   0.99961
 This molecule is an asymmetric top.
 Rotational symmetry number  1.
 Warning -- assumption of classical behavior for rotation
           may cause significant error
 Rotational temperatures (Kelvin)      0.18632     0.05888     0.05264
 Rotational constants (GHZ):           3.88238     1.22685     1.09693
 Zero-point vibrational energy     420220.6 (Joules/Mol)
                                  100.43513 (Kcal/Mol)
 Warning -- explicit consideration of   8 degrees of freedom as
           vibrations may cause significant error
 Vibrational temperatures:    106.09   215.76   268.13   325.45   434.30
          (Kelvin)            543.50   607.52   709.53   931.83   960.77
                             1018.91  1181.26  1240.01  1250.60  1263.79
                             1307.23  1334.57  1367.58  1405.19  1464.53
                             1473.90  1530.45  1556.28  1578.54  1588.12
                             1635.38  1657.31  1685.15  1745.40  1756.39
                             1778.92  1826.35  1854.06  1906.49  1995.84
                             2002.16  2083.78  2129.84  2152.32  2191.00
                             2200.59  4330.06  4382.71  4434.21  4445.83
                             4452.44  4467.04  4506.81  4578.08  4579.91
                             4639.79

 Zero-point correction=                           0.160054 (Hartree/Particle)
 Thermal correction to Energy=                    0.167852
 Thermal correction to Enthalpy=                  0.168796
 Thermal correction to Gibbs Free Energy=         0.127522
 Sum of electronic and zero-point Energies=           -422.989951
 Sum of electronic and thermal Energies=              -422.982153
 Sum of electronic and thermal Enthalpies=            -422.981208
 Sum of electronic and thermal Free Energies=         -423.022483

                     E (Thermal)             CV                S
                      KCal/Mol        Cal/Mol-Kelvin    Cal/Mol-Kelvin
 Total                  105.329             30.256             86.870
 Electronic               0.000              0.000              0.000
 Translational            0.889              2.981             40.409
 Rotational               0.889              2.981             28.511
 Vibrational            103.551             24.294             17.951
 Vibration     1          0.599              1.966              4.051
 Vibration     2          0.618              1.903              2.673
 Vibration     3          0.632              1.859              2.264
 Vibration     4          0.650              1.801              1.909
 Vibration     5          0.694              1.670              1.407
 Vibration     6          0.748              1.518              1.048
 Vibration     7          0.785              1.422              0.884
 Vibration     8          0.849              1.265              0.675

 Normal termination of Gaussian 09 at Mon Jan 27 12:52:29 2020.
