 Gaussian 09, Revision D.01,
 Gaussian 09:  ES64L-G09RevD.01 24-Apr-2013

 -----------------------------
 # b3lyp 6-31G(2df,p) opt Freq
 -----------------------------

 -----
 titel
 -----
 Symbolic Z-matrix:
 Charge =  0 Multiplicity = 1

 SCF Done:  E(RB3LYP) =  -423.243690361     A.U. after   14 cycles
 SCF Done:  E(RB3LYP) =  -423.243690365     A.U. after    8 cycles
 SCF Done:  E(RB3LYP) =  -423.243689926     A.U. after    8 cycles
 SCF Done:  E(RB3LYP) =  -423.243690247     A.U. after    7 cycles
 SCF Done:  E(RB3LYP) =  -423.243690722     A.U. after    7 cycles
 Optimization completed.
    -- Stationary point found.
 Normal termination of Gaussian 09 at Mon Jan 27 16:31:34 2020.

 ----------------------------------------------------------------------
 #N Geom=AllCheck Guess=TCheck SCRF=Check GenChk RB3LYP/6-31G(2df,p) Fr
 eq
 ----------------------------------------------------------------------

 Structure from the checkpoint file:  "/scratch/puck/g09_abcca6cd-8bab-492a-8cb2-18a4ec09a331/Gau-83357.chk"
 -----
 titel
 -----
 Charge =  0 Multiplicity = 1

                         Standard orientation:
 ---------------------------------------------------------------------
 Center     Atomic      Atomic             Coordinates (Angstroms)
 Number     Number       Type             X           Y           Z
 ---------------------------------------------------------------------
      1          6           0       -1.985592   -0.798089   -0.892367
      2          6           0       -0.764037   -0.484339   -0.025227
      3          6           0       -1.022897   -0.894861    1.443371
      4          6           0        0.555447   -1.107083   -0.530066
      5          6           0        1.661525   -0.126354   -0.135154
      6          8           0        2.814390   -0.404321    0.066500
      7          6           0        1.041469    1.264704   -0.031294
      8          6           0       -0.468806    1.033637   -0.006531
      9          8           0       -1.310587    1.892875    0.035003
     10          1           0       -1.804664   -0.541600   -1.941263
     11          1           0       -2.234767   -1.862831   -0.841615
     12          1           0       -2.848682   -0.220986   -0.551007
     13          1           0       -0.165409   -0.673428    2.088815
     14          1           0       -1.893271   -0.366506    1.841593
     15          1           0       -1.210830   -1.971940    1.500506
     16          1           0        0.764232   -2.107931   -0.145044
     17          1           0        0.554506   -1.171625   -1.627210
     18          1           0        1.398450    1.821376    0.839687
     19          1           0        1.307350    1.861350   -0.912877
 ---------------------------------------------------------------------

 SCF Done:  E(RB3LYP) =  -423.243690722     A.U. after    1 cycles

 The electronic state is 1-A.
 Alpha  occ. eigenvalues --  -19.14264 -19.14062 -10.28101 -10.27842 -10.21611
 Alpha  occ. eigenvalues --  -10.20496 -10.20084 -10.19529 -10.18641  -1.05481
 Alpha  occ. eigenvalues --   -1.05069  -0.85630  -0.77579  -0.71566  -0.70171
 Alpha  occ. eigenvalues --   -0.62556  -0.55488  -0.52610  -0.49217  -0.47648
 Alpha  occ. eigenvalues --   -0.46111  -0.44990  -0.43751  -0.42822  -0.41666
 Alpha  occ. eigenvalues --   -0.40663  -0.39217  -0.37840  -0.37667  -0.35656
 Alpha  occ. eigenvalues --   -0.35161  -0.34096  -0.26610  -0.23976
 Alpha virt. eigenvalues --   -0.03996  -0.01600   0.07014   0.10926   0.12158
 Alpha virt. eigenvalues --    0.13524   0.13973   0.14324   0.16008   0.16412
 Alpha virt. eigenvalues --    0.17522   0.18271   0.19048   0.20439   0.22615

 Mulliken charges:
               1
     1  C   -0.431366
     2  C    0.158540
     3  C   -0.420436
     4  C   -0.360090
     5  C    0.386054
     6  O   -0.300777
     7  C   -0.442058
     8  C    0.386927
     9  O   -0.321912
    10  H    0.115584
    11  H    0.115821
    12  H    0.140360
    13  H    0.123710
    14  H    0.138854
    15  H    0.125828
    16  H    0.129332
    17  H    0.129000
    18  H    0.161866
    19  H    0.164763
 Sum of Mulliken charges =   0.00000

 Dipole moment (field-independent basis, Debye):
    X=             -1.0358    Y=             -1.2842    Z=             -0.4287  Tot=              1.7046
 Quadrupole moment (field-independent basis, Debye-Ang):
   XX=            -64.7276   YY=            -55.4327   ZZ=            -50.2236
   XY=              7.1275   XZ=             -1.0895   YZ=             -0.2236

  Exact polarizability:  84.828   0.263  76.286   1.400   0.132  64.167
 Approx polarizability: 124.034  -8.568 113.575   3.201  -0.357  95.706

                      1                      2                      3
                      A                      A                      A
 Frequencies --     41.9430                71.4256               201.0783
 Red. masses --      3.0681                 3.6093                 1.4535
 Frc consts  --      0.0032                 0.0108                 0.0346
 IR Inten    --     11.2653                 1.9128                 0.3373

                      4                      5                      6
                      A                      A                      A
 Frequencies --    214.5655               253.1264               289.3382
 Red. masses --      1.6489                 1.1450                 2.4343
 Frc consts  --      0.0447                 0.0432                 0.1201
 IR Inten    --      0.6988                 0.6067                 1.6649

                      7                      8                      9
                      A                      A                      A
 Frequencies --    324.6398               342.9982               412.4509
 Red. masses --      2.5550                 2.5983                 3.9638
 Frc consts  --      0.1586                 0.1801                 0.3973
 IR Inten    --      0.6316                 4.5484                 5.7100

                     10                     11                     12
                      A                      A                      A
 Frequencies --    417.0025               541.8571               547.3350
 Red. masses --      2.0357                 3.1046                 2.8989
 Frc consts  --      0.2086                 0.5371                 0.5117
 IR Inten    --      4.4028                 4.3553                 4.0178

                     13                     14                     15
                      A                      A                      A
 Frequencies --    580.4524               597.6697               707.4781
 Red. masses --      4.8170                 3.9784                 3.4249
 Frc consts  --      0.9562                 0.8373                 1.0100
 IR Inten    --      1.8887                 1.0973                 5.7356

                     16                     17                     18
                      A                      A                      A
 Frequencies --    779.1889               815.5562               871.1383
 Red. masses --      2.0472                 3.0186                 2.4810
 Frc consts  --      0.7323                 1.1829                 1.1093
 IR Inten    --      0.7604                 4.3090                 6.9675

                     19                     20                     21
                      A                      A                      A
 Frequencies --    941.6978               955.0391               968.1858
 Red. masses --      1.7844                 1.7004                 1.5415
 Frc consts  --      0.9323                 0.9138                 0.8514
 IR Inten    --      2.1138                 0.3114                 0.9367

                     22                     23                     24
                      A                      A                      A
 Frequencies --   1028.6128              1051.2077              1076.4896
 Red. masses --      1.6918                 1.5878                 2.2200
 Frc consts  --      1.0546                 1.0338                 1.5157
 IR Inten    --      8.0897                 3.2424                10.7765

                     25                     26                     27
                      A                      A                      A
 Frequencies --   1169.2716              1190.3307              1204.2242
 Red. masses --      1.6463                 4.3805                 1.7345
 Frc consts  --      1.3261                 3.6569                 1.4820
 IR Inten    --     25.5213                90.8520                 4.2081

                     28                     29                     30
                      A                      A                      A
 Frequencies --   1226.9704              1249.3524              1252.7930
 Red. masses --      2.0760                 2.2951                 1.9807
 Frc consts  --      1.8414                 2.1107                 1.8316
 IR Inten    --     10.2142                22.7956                 9.3533

                     31                     32                     33
                      A                      A                      A
 Frequencies --   1313.1106              1395.6793              1398.5166
 Red. masses --      2.2708                 1.2065                 1.0774
 Frc consts  --      2.3069                 1.3847                 1.2416
 IR Inten    --      5.0976                 4.0172                20.1379

                     34                     35                     36
                      A                      A                      A
 Frequencies --   1417.2330              1455.9581              1482.6956
 Red. masses --      1.2036                 1.0915                 1.0451
 Frc consts  --      1.4244                 1.3632                 1.3537
 IR Inten    --      3.7886                 6.4945                 0.6644

                     37                     38                     39
                      A                      A                      A
 Frequencies --   1487.6618              1501.5541              1507.2637
 Red. masses --      1.0497                 1.0585                 1.0568
 Frc consts  --      1.3688                 1.4061                 1.4146
 IR Inten    --      4.1166                 5.7445                 8.7565

                     40                     41                     42
                      A                      A                      A
 Frequencies --   1829.4863              1865.0651              3022.6246
 Red. masses --     12.4118                12.6413                 1.0665
 Frc consts  --     24.4762                25.9078                 5.7411
 IR Inten    --    346.4624                48.0972                10.1795

                     43                     44                     45
                      A                      A                      A
 Frequencies --   3029.5963              3037.5347              3049.6584
 Red. masses --      1.0354                 1.0363                 1.0654
 Frc consts  --      5.5992                 5.6333                 5.8380
 IR Inten    --     17.5017                17.6817                 0.4448

                     46                     47                     48
                      A                      A                      A
 Frequencies --   3095.7244              3103.0997              3104.5322
 Red. masses --      1.1012                 1.1014                 1.0957
 Frc consts  --      6.2178                 6.2488                 6.2223
 IR Inten    --     17.5078                19.9525                 0.5213

                     49                     50                     51
                      A                      A                      A
 Frequencies --   3107.5730              3119.1794              3124.6319
 Red. masses --      1.0951                 1.1020                 1.1007
 Frc consts  --      6.2310                 6.3169                 6.3316
 IR Inten    --     12.9004                 6.3494                19.7795

 - Thermochemistry -
 -------------------
 Temperature   298.150 Kelvin.  Pressure   1.00000 Atm.
 Atom     1 has atomic number  6 and mass  12.00000

 Molecular mass:   126.06808 amu.
 Principal axes and moments of inertia in atomic units:
                           1         2         3
     Eigenvalues --   729.300581277.533471596.89223
           X            0.99701   0.07725   0.00093
           Y           -0.07724   0.99701  -0.00281
           Z           -0.00115   0.00273   1.00000
 This molecule is an asymmetric top.
 Rotational symmetry number  1.
 Warning -- assumption of classical behavior for rotation
           may cause significant error
 Rotational temperatures (Kelvin)      0.11876     0.06780     0.05424
 Rotational constants (GHZ):           2.47462     1.41268     1.13016
 Zero-point vibrational energy     411346.7 (Joules/Mol)
                                   98.31422 (Kcal/Mol)
 Warning -- explicit consideration of  14 degrees of freedom as
           vibrations may cause significant error
 Vibrational temperatures:     60.35   102.77   289.31   308.71   364.19
          (Kelvin)            416.29   467.08   493.50   593.42   599.97
                              779.61   787.49   835.14   859.91  1017.90
                             1121.08  1173.40  1253.37  1354.89  1374.09
                             1393.00  1479.94  1512.45  1548.83  1682.32
                             1712.62  1732.61  1765.33  1797.54  1802.49
                             1889.27  2008.07  2012.15  2039.08  2094.80
                             2133.27  2140.41  2160.40  2168.61  2632.22
                             2683.41  4348.88  4358.91  4370.33  4387.77
                             4454.05  4464.66  4466.72  4471.10  4487.80
                             4495.64

 Zero-point correction=                           0.156674 (Hartree/Particle)
 Thermal correction to Energy=                    0.165937
 Thermal correction to Enthalpy=                  0.166881
 Thermal correction to Gibbs Free Energy=         0.122236
 Sum of electronic and zero-point Energies=           -423.087017
 Sum of electronic and thermal Energies=              -423.077754
 Sum of electronic and thermal Enthalpies=            -423.076809
 Sum of electronic and thermal Free Energies=         -423.121455

                     E (Thermal)             CV                S
                      KCal/Mol        Cal/Mol-Kelvin    Cal/Mol-Kelvin
 Total                  104.127             34.517             93.964
 Electronic               0.000              0.000              0.000
 Translational            0.889              2.981             40.409
 Rotational               0.889              2.981             28.788
 Vibrational            102.350             28.555             24.767
 Vibration     1          0.595              1.980              5.165
 Vibration     2          0.598              1.968              4.114
 Vibration     3          0.638              1.838              2.123
 Vibration     4          0.644              1.819              2.004
 Vibration     5          0.664              1.758              1.709
 Vibration     6          0.686              1.694              1.478
 Vibration     7          0.709              1.626              1.287
 Vibration     8          0.722              1.590              1.198
 Vibration     9          0.776              1.443              0.918
 Vibration    10          0.780              1.433              0.902
 Vibration    11          0.897              1.158              0.561
 Vibration    12          0.903              1.146              0.550
 Vibration    13          0.937              1.074              0.485
 Vibration    14          0.956              1.037              0.454

 Normal termination of Gaussian 09 at Mon Jan 27 17:15:06 2020.
