 Gaussian 09, Revision D.01,
 Gaussian 09:  ES64L-G09RevD.01 24-Apr-2013

 -----------------------------
 # b3lyp 6-31G(2df,p) opt Freq
 -----------------------------

 -----
 titel
 -----
 Symbolic Z-matrix:
 Charge =  0 Multiplicity = 1

 SCF Done:  E(RB3LYP) =  -423.209392084     A.U. after   14 cycles
 Optimization completed.
    -- Stationary point found.
 Normal termination of Gaussian 09 at Mon Jan 27 16:14:43 2020.

 ----------------------------------------------------------------------
 #N Geom=AllCheck Guess=TCheck SCRF=Check GenChk RB3LYP/6-31G(2df,p) Fr
 eq
 ----------------------------------------------------------------------

 Structure from the checkpoint file:  "/scratch/puck/g09_89996548-8d19-430b-9a83-d40126d710fc/Gau-56971.chk"
 -----
 titel
 -----
 Charge =  0 Multiplicity = 1

                         Standard orientation:
 ---------------------------------------------------------------------
 Center     Atomic      Atomic             Coordinates (Angstroms)
 Number     Number       Type             X           Y           Z
 ---------------------------------------------------------------------
      1          6           0        2.275003    0.055514   -0.740738
      2          6           0        0.991387   -0.225380    0.040078
      3          8           0        1.278952   -0.997367    1.209616
      4          6           0       -0.117982   -0.921084   -0.784865
      5          6           0       -1.438822   -0.458935   -0.145902
      6          8           0       -2.471480   -1.079751   -0.136121
      7          6           0       -1.188892    0.860326    0.509925
      8          6           0       -0.460750    1.883581   -0.356712
      9          6           0        0.318124    1.034677    0.588964
     10          1           0        2.711319   -0.876415   -1.120072
     11          1           0        2.088185    0.708151   -1.598787
     12          1           0        3.011905    0.536788   -0.091054
     13          1           0        1.708163   -1.812642    0.928610
     14          1           0       -0.099964   -0.622343   -1.839587
     15          1           0       -0.040455   -2.009853   -0.753224
     16          1           0       -1.877844    1.201729    1.271207
     17          1           0       -0.394524    1.714697   -1.426406
     18          1           0       -0.614869    2.921199   -0.083650
     19          1           0        0.779900    1.483439    1.460504
 ---------------------------------------------------------------------

 SCF Done:  E(RB3LYP) =  -423.209392084     A.U. after    1 cycles

 The electronic state is 1-A.
 Alpha  occ. eigenvalues --  -19.14065 -19.12106 -10.26346 -10.25186 -10.20651
 Alpha  occ. eigenvalues --  -10.20382 -10.19927 -10.18875 -10.18489  -1.03398
 Alpha  occ. eigenvalues --   -1.02513  -0.89143  -0.77529  -0.72627  -0.65410
 Alpha  occ. eigenvalues --   -0.63974  -0.56268  -0.54052  -0.51639  -0.48298
 Alpha  occ. eigenvalues --   -0.46130  -0.45018  -0.42431  -0.42192  -0.41736
 Alpha  occ. eigenvalues --   -0.39315  -0.37743  -0.37312  -0.35531  -0.32841
 Alpha  occ. eigenvalues --   -0.31628  -0.29231  -0.27899  -0.23494
 Alpha virt. eigenvalues --   -0.00800   0.06213   0.09056   0.09847   0.11608
 Alpha virt. eigenvalues --    0.12799   0.14754   0.15010   0.17283   0.17597
 Alpha virt. eigenvalues --    0.18235   0.18744   0.19224   0.21939   0.23136

 Mulliken charges:
               1
     1  C   -0.437520
     2  C    0.363398
     3  O   -0.472993
     4  C   -0.391891
     5  C    0.430146
     6  O   -0.334966
     7  C   -0.147454
     8  C   -0.311697
     9  C   -0.028137
    10  H    0.108638
    11  H    0.118096
    12  H    0.125851
    13  H    0.278034
    14  H    0.121537
    15  H    0.119007
    16  H    0.107853
    17  H    0.120544
    18  H    0.127586
    19  H    0.103968
 Sum of Mulliken charges =   0.00000

 Dipole moment (field-independent basis, Debye):
    X=              3.0015    Y=              1.3376    Z=             -1.1298  Tot=              3.4749
 Quadrupole moment (field-independent basis, Debye-Ang):
   XX=            -60.2163   YY=            -49.2692   ZZ=            -53.4708
   XY=             -6.9511   XZ=             -1.7934   YZ=              1.3275

  Exact polarizability:  82.408   1.168  78.401  -1.989   1.611  64.510
 Approx polarizability: 118.661   8.322 115.431  -0.979  -0.101 100.698

                      1                      2                      3
                      A                      A                      A
 Frequencies --     93.6223               175.5305               244.4796
 Red. masses --      4.6854                 3.4832                 1.9041
 Frc consts  --      0.0242                 0.0632                 0.0671
 IR Inten    --      2.3550                 2.0782                 0.4360

                      4                      5                      6
                      A                      A                      A
 Frequencies --    252.8296               288.4644               344.8210
 Red. masses --      1.2941                 1.0893                 2.3780
 Frc consts  --      0.0487                 0.0534                 0.1666
 IR Inten    --      0.2475                81.4925                 4.4999

                      7                      8                      9
                      A                      A                      A
 Frequencies --    351.7929               406.0576               460.5497
 Red. masses --      3.4175                 2.9623                 3.5812
 Frc consts  --      0.2492                 0.2878                 0.4475
 IR Inten    --     18.2089                 5.0302                 5.8686

                     10                     11                     12
                      A                      A                      A
 Frequencies --    480.2003               538.7893               579.5410
 Red. masses --      3.2217                 2.7358                 4.0252
 Frc consts  --      0.4377                 0.4679                 0.7965
 IR Inten    --      3.9798                 2.6634                 5.7373

                     13                     14                     15
                      A                      A                      A
 Frequencies --    658.4808               747.1726               789.0716
 Red. masses --      4.1997                 2.1460                 2.8535
 Frc consts  --      1.0729                 0.7059                 1.0468
 IR Inten    --      4.7563                 0.5694                12.2077

                     16                     17                     18
                      A                      A                      A
 Frequencies --    841.4701               867.8050               897.8091
 Red. masses --      1.9159                 2.1778                 1.8634
 Frc consts  --      0.7993                 0.9663                 0.8850
 IR Inten    --      3.1231                 7.5936                 9.1949

                     19                     20                     21
                      A                      A                      A
 Frequencies --    934.0593               946.2631               959.7540
 Red. masses --      2.2043                 2.1502                 2.0447
 Frc consts  --      1.1331                 1.1343                 1.1097
 IR Inten    --      2.6514                22.3144                12.7725

                     22                     23                     24
                      A                      A                      A
 Frequencies --   1004.3663              1048.7888              1072.6185
 Red. masses --      2.0313                 1.3409                 1.2539
 Frc consts  --      1.2073                 0.8690                 0.8500
 IR Inten    --     24.1295                 6.9829                 3.6770

                     25                     26                     27
                      A                      A                      A
 Frequencies --   1102.0230              1105.9511              1112.9888
 Red. masses --      1.5470                 1.2440                 1.6986
 Frc consts  --      1.1070                 0.8965                 1.2397
 IR Inten    --     62.3653                 2.1372                 4.0832

                     28                     29                     30
                      A                      A                      A
 Frequencies --   1177.7539              1195.9254              1199.7917
 Red. masses --      1.5798                 1.9658                 2.1517
 Frc consts  --      1.2911                 1.6565                 1.8249
 IR Inten    --     12.5539                52.1054                26.8216

                     31                     32                     33
                      A                      A                      A
 Frequencies --   1227.3187              1273.9918              1321.6508
 Red. masses --      2.3765                 1.9108                 1.8975
 Frc consts  --      2.1091                 1.8272                 1.9529
 IR Inten    --     11.1244                13.3244                27.8379

                     34                     35                     36
                      A                      A                      A
 Frequencies --   1352.0246              1395.3351              1409.8410
 Red. masses --      2.0761                 1.9905                 1.2675
 Frc consts  --      2.2360                 2.2834                 1.4844
 IR Inten    --     19.4132                23.6443                 8.5656

                     37                     38                     39
                      A                      A                      A
 Frequencies --   1447.9754              1488.7080              1494.2782
 Red. masses --      1.1424                 1.0812                 1.0971
 Frc consts  --      1.4112                 1.4118                 1.4433
 IR Inten    --      4.2695                 0.4379                 2.7639

                     40                     41                     42
                      A                      A                      A
 Frequencies --   1497.2762              1839.5268              3027.6852
 Red. masses --      1.1451                12.2352                 1.0380
 Frc consts  --      1.5125                24.3935                 5.6064
 IR Inten    --      6.2339               282.4073                19.4066

                     43                     44                     45
                      A                      A                      A
 Frequencies --   3047.1632              3095.0256              3113.6647
 Red. masses --      1.0657                 1.0977                 1.0979
 Frc consts  --      5.8298                 6.1954                 6.2712
 IR Inten    --      7.3209                20.7313                 8.1846

                     46                     47                     48
                      A                      A                      A
 Frequencies --   3117.8192              3135.3536              3184.3021
 Red. masses --      1.1016                 1.0548                 1.0909
 Frc consts  --      6.3092                 6.1096                 6.5171
 IR Inten    --     20.2876                12.6473                 5.7601

                     49                     50                     51
                      A                      A                      A
 Frequencies --   3205.4187              3221.1982              3806.1354
 Red. masses --      1.0956                 1.1128                 1.0660
 Frc consts  --      6.6322                 6.8030                 9.0990
 IR Inten    --      2.4865                 7.6547                14.2194

 - Thermochemistry -
 -------------------
 Temperature   298.150 Kelvin.  Pressure   1.00000 Atm.
 Atom     1 has atomic number  6 and mass  12.00000

 Molecular mass:   126.06808 amu.
 Principal axes and moments of inertia in atomic units:
                           1         2         3
     Eigenvalues --   705.477001189.468381459.12782
           X            0.99882  -0.04012  -0.02727
           Y            0.04078   0.99888   0.02417
           Z            0.02627  -0.02525   0.99934
 This molecule is an asymmetric top.
 Rotational symmetry number  1.
 Warning -- assumption of classical behavior for rotation
           may cause significant error
 Rotational temperatures (Kelvin)      0.12277     0.07282     0.05936
 Rotational constants (GHZ):           2.55819     1.51727     1.23686
 Zero-point vibrational energy     416183.6 (Joules/Mol)
                                   99.47027 (Kcal/Mol)
 Warning -- explicit consideration of  12 degrees of freedom as
           vibrations may cause significant error
 Vibrational temperatures:    134.70   252.55   351.75   363.76   415.04
          (Kelvin)            496.12   506.15   584.23   662.63   690.90
                              775.20   833.83   947.41  1075.01  1135.30
                             1210.69  1248.58  1291.75  1343.90  1361.46
                             1380.87  1445.06  1508.97  1543.26  1585.56
                             1591.22  1601.34  1694.52  1720.67  1726.23
                             1765.84  1832.99  1901.56  1945.26  2007.57
                             2028.44  2083.31  2141.92  2149.93  2154.24
                             2646.67  4356.16  4384.18  4453.05  4479.86
                             4485.84  4511.07  4581.49  4611.88  4634.58
                             5476.17

 Zero-point correction=                           0.158516 (Hartree/Particle)
 Thermal correction to Energy=                    0.166929
 Thermal correction to Enthalpy=                  0.167873
 Thermal correction to Gibbs Free Energy=         0.125990
 Sum of electronic and zero-point Energies=           -423.050876
 Sum of electronic and thermal Energies=              -423.042464
 Sum of electronic and thermal Enthalpies=            -423.041519
 Sum of electronic and thermal Free Energies=         -423.083402

                     E (Thermal)             CV                S
                      KCal/Mol        Cal/Mol-Kelvin    Cal/Mol-Kelvin
 Total                  104.749             33.394             88.149
 Electronic               0.000              0.000              0.000
 Translational            0.889              2.981             40.409
 Rotational               0.889              2.981             28.595
 Vibrational            102.972             27.432             19.146
 Vibration     1          0.603              1.954              3.583
 Vibration     2          0.627              1.873              2.375
 Vibration     3          0.660              1.772              1.770
 Vibration     4          0.664              1.758              1.711
 Vibration     5          0.685              1.695              1.483
 Vibration     6          0.723              1.586              1.190
 Vibration     7          0.728              1.572              1.158
 Vibration     8          0.771              1.457              0.941
 Vibration     9          0.818              1.338              0.765
 Vibration    10          0.837              1.294              0.710
 Vibration    11          0.894              1.164              0.568
 Vibration    12          0.936              1.076              0.486

 Optimization completed.
    -- Stationary point found.
 Normal termination of Gaussian 09 at Mon Jan 27 16:59:07 2020.
