 Gaussian 09, Revision D.01,
 Gaussian 09:  ES64L-G09RevD.01 24-Apr-2013

 -----------------------------
 # b3lyp 6-31G(2df,p) opt Freq
 -----------------------------

 -----
 titel
 -----
 Symbolic Z-matrix:
 Charge =  0 Multiplicity = 1

 SCF Done:  E(RB3LYP) =  -423.134304981     A.U. after   13 cycles
 Optimization completed.
    -- Stationary point found.
 Normal termination of Gaussian 09 at Mon Jan 27 18:48:35 2020.

 ----------------------------------------------------------------------
 #N Geom=AllCheck Guess=TCheck SCRF=Check GenChk RB3LYP/6-31G(2df,p) Fr
 eq
 ----------------------------------------------------------------------

 Structure from the checkpoint file:  "/scratch/puck/g09_ed574d6a-a0c9-4bef-8d73-db35dd44360f/Gau-19958.chk"
 -----
 titel
 -----
 Charge =  0 Multiplicity = 1

                         Standard orientation:
 ---------------------------------------------------------------------
 Center     Atomic      Atomic             Coordinates (Angstroms)
 Number     Number       Type             X           Y           Z
 ---------------------------------------------------------------------
      1          8           0       -1.223440   -1.226708    1.217824
      2          6           0       -0.839328   -0.486774    0.101643
      3          6           0       -1.777555    0.649278   -0.391740
      4          8           0       -0.726890    1.643016   -0.278562
      5          6           0        0.233322    0.647661    0.048049
      6          6           0        1.439214    0.789346    0.954283
      7          6           0        2.115431   -0.341647    0.106509
      8          6           0        1.014626   -0.212184   -0.999752
      9          6           0       -0.092971   -1.301242   -0.981515
     10          1           0       -1.598357   -0.628065    1.873725
     11          1           0       -2.161126    0.559397   -1.414898
     12          1           0       -2.611944    0.868576    0.287959
     13          1           0        1.939022    1.753067    0.816344
     14          1           0        1.292054    0.616694    2.024748
     15          1           0        3.129618   -0.120054   -0.228944
     16          1           0        2.116854   -1.314965    0.602745
     17          1           0        1.351310    0.182785   -1.958362
     18          1           0       -0.644852   -1.432478   -1.916547
     19          1           0        0.233618   -2.282044   -0.625726
 ---------------------------------------------------------------------

 SCF Done:  E(RB3LYP) =  -423.134304981     A.U. after    1 cycles

 The electronic state is 1-A.
 Alpha  occ. eigenvalues --  -19.15097 -19.13649 -10.23837 -10.23152 -10.22451
 Alpha  occ. eigenvalues --  -10.18627 -10.18268 -10.18265 -10.18149  -1.05207
 Alpha  occ. eigenvalues --   -1.02376  -0.85705  -0.76423  -0.68429  -0.66066
 Alpha  occ. eigenvalues --   -0.61682  -0.59074  -0.53867  -0.50705  -0.48427
 Alpha  occ. eigenvalues --   -0.48093  -0.43959  -0.41877  -0.41164  -0.39560
 Alpha  occ. eigenvalues --   -0.38984  -0.36472  -0.35283  -0.32974  -0.32326
 Alpha  occ. eigenvalues --   -0.30903  -0.28655  -0.25346  -0.22841
 Alpha virt. eigenvalues --    0.06365   0.07607   0.10356   0.10939   0.11524
 Alpha virt. eigenvalues --    0.12634   0.13356   0.14805   0.16147   0.17378
 Alpha virt. eigenvalues --    0.18099   0.19167   0.20566   0.22044   0.23492

 Mulliken charges:
               1
     1  O   -0.472249
     2  C    0.290369
     3  C   -0.157546
     4  O   -0.331686
     5  C    0.409778
     6  C   -0.325522
     7  C   -0.231411
     8  C   -0.085033
     9  C   -0.290893
    10  H    0.283515
    11  H    0.106881
    12  H    0.095490
    13  H    0.114409
    14  H    0.096099
    15  H    0.107801
    16  H    0.110922
    17  H    0.069394
    18  H    0.099551
    19  H    0.110130
 Sum of Mulliken charges =   0.00000

 Dipole moment (field-independent basis, Debye):
    X=             -0.0897    Y=             -0.3095    Z=              0.3095  Tot=              0.4467
 Quadrupole moment (field-independent basis, Debye-Ang):
   XX=            -49.1911   YY=            -59.5843   ZZ=            -50.2207
   XY=             -0.2965   XZ=             -1.1819   YZ=              2.3045

  Exact polarizability:  84.077  -0.700  68.559   0.951   3.014  71.376
 Approx polarizability: 112.327  -0.415 105.500  -0.682   1.879 105.701

                      1                      2                      3
                      A                      A                      A
 Frequencies --     92.6580               169.9322               220.9979
 Red. masses --      2.7544                 2.4979                 2.4493
 Frc consts  --      0.0139                 0.0425                 0.0705
 IR Inten    --      1.6586                 0.5300                 5.5245

                      4                      5                      6
                      A                      A                      A
 Frequencies --    310.1686               348.0957               381.3123
 Red. masses --      1.1804                 3.1203                 3.2179
 Frc consts  --      0.0669                 0.2228                 0.2757
 IR Inten    --     75.7690                 2.8037                10.9323

                      7                      8                      9
                      A                      A                      A
 Frequencies --    396.0143               490.9032               502.1624
 Red. masses --      1.9885                 4.3551                 2.6498
 Frc consts  --      0.1837                 0.6184                 0.3937
 IR Inten    --     15.2121                 2.6327                 8.7942

                     10                     11                     12
                      A                      A                      A
 Frequencies --    609.3650               695.6841               711.9015
 Red. masses --      4.0704                 3.6282                 1.7413
 Frc consts  --      0.8905                 1.0346                 0.5199
 IR Inten    --      2.3265                 5.8637                 1.0978

                     13                     14                     15
                      A                      A                      A
 Frequencies --    796.9996               805.2118               864.7629
 Red. masses --      1.6206                 2.8881                 2.1599
 Frc consts  --      0.6065                 1.1033                 0.9516
 IR Inten    --      3.8573                 6.8912                 1.7848

                     16                     17                     18
                      A                      A                      A
 Frequencies --    901.0868               917.0718               922.5202
 Red. masses --      2.3910                 1.8877                 2.8299
 Frc consts  --      1.1438                 0.9354                 1.4190
 IR Inten    --      4.5534                15.2450                 2.8564

                     19                     20                     21
                      A                      A                      A
 Frequencies --    976.4153               991.2111              1008.1051
 Red. masses --      1.5334                 7.2086                 2.1915
 Frc consts  --      0.8613                 4.1728                 1.3122
 IR Inten    --      1.8737                78.2758                 1.6883

                     22                     23                     24
                      A                      A                      A
 Frequencies --   1058.9513              1080.8688              1100.4992
 Red. masses --      1.8846                 2.7046                 1.7747
 Frc consts  --      1.2452                 1.8616                 1.2663
 IR Inten    --      7.8081                29.8272                 6.4258

                     25                     26                     27
                      A                      A                      A
 Frequencies --   1110.1665              1148.9035              1160.5917
 Red. masses --      2.4645                 1.1878                 1.6367
 Frc consts  --      1.7896                 0.9238                 1.2989
 IR Inten    --     44.9250                 1.8675                12.5506

                     28                     29                     30
                      A                      A                      A
 Frequencies --   1194.5267              1216.4670              1227.7837
 Red. masses --      1.7165                 1.3416                 1.7234
 Frc consts  --      1.4430                 1.1697                 1.5307
 IR Inten    --     29.0198                 4.3193                 6.0342

                     31                     32                     33
                      A                      A                      A
 Frequencies --   1258.4280              1262.5937              1277.1198
 Red. masses --      1.5019                 1.7148                 1.7554
 Frc consts  --      1.4013                 1.6107                 1.6869
 IR Inten    --     11.3210                20.7280                45.3174

                     34                     35                     36
                      A                      A                      A
 Frequencies --   1293.7360              1313.9742              1357.1282
 Red. masses --      1.4989                 3.0594                 2.0096
 Frc consts  --      1.4781                 3.1122                 2.1807
 IR Inten    --     17.8116                38.1833                39.9598

                     37                     38                     39
                      A                      A                      A
 Frequencies --   1381.7314              1470.0954              1475.6384
 Red. masses --      1.8748                 1.0913                 1.1062
 Frc consts  --      2.1089                 1.3895                 1.4192
 IR Inten    --     28.0549                 1.1416                 3.6008

                     40                     41                     42
                      A                      A                      A
 Frequencies --   1492.5085              1511.8690              3006.1098
 Red. masses --      1.1380                 1.1137                 1.0575
 Frc consts  --      1.4936                 1.4999                 5.6304
 IR Inten    --      5.7172                 0.7122                71.7486

                     43                     44                     45
                      A                      A                      A
 Frequencies --   3046.9283              3053.3975              3061.5413
 Red. masses --      1.0576                 1.0598                 1.1074
 Frc consts  --      5.7851                 5.8217                 6.1156
 IR Inten    --     43.7478                23.4048                40.3234

                     46                     47                     48
                      A                      A                      A
 Frequencies --   3070.4784              3095.1749              3103.8203
 Red. masses --      1.0597                 1.1067                 1.0991
 Frc consts  --      5.8862                 6.2470                 6.2384
 IR Inten    --     29.6728                16.3656                 9.5994

                     49                     50                     51
                      A                      A                      A
 Frequencies --   3111.1366              3130.3275              3796.0938
 Red. masses --      1.0998                 1.1060                 1.0657
 Frc consts  --      6.2719                 6.3854                 9.0484
 IR Inten    --     21.6673                39.0479                17.0714

 - Thermochemistry -
 -------------------
 Temperature   298.150 Kelvin.  Pressure   1.00000 Atm.
 Atom     1 has atomic number  8 and mass  15.99491

 Molecular mass:   126.06808 amu.
 Principal axes and moments of inertia in atomic units:
                           1         2         3
     Eigenvalues --   729.545331023.959371182.20038
           X            0.99974  -0.01277   0.01885
           Y            0.01103   0.99590   0.08974
           Z           -0.01992  -0.08951   0.99579
 This molecule is an asymmetric top.
 Rotational symmetry number  1.
 Warning -- assumption of classical behavior for rotation
           may cause significant error
 Rotational temperatures (Kelvin)      0.11872     0.08459     0.07326
 Rotational constants (GHZ):           2.47379     1.76251     1.52660
 Zero-point vibrational energy     418580.3 (Joules/Mol)
                                  100.04310 (Kcal/Mol)
 Warning -- explicit consideration of  10 degrees of freedom as
           vibrations may cause significant error
 Vibrational temperatures:    133.31   244.49   317.97   446.26   500.83
          (Kelvin)            548.62   569.78   706.30   722.50   876.74
                             1000.93  1024.27  1146.70  1158.52  1244.20
                             1296.46  1319.46  1327.30  1404.84  1426.13
                             1450.44  1523.59  1555.13  1583.37  1597.28
                             1653.01  1669.83  1718.66  1750.22  1766.50
                             1810.60  1816.59  1837.49  1861.40  1890.51
                             1952.60  1988.00  2115.14  2123.11  2147.38
                             2175.24  4325.12  4383.84  4393.15  4404.87
                             4417.73  4453.26  4465.70  4476.23  4503.84
                             5461.73

 Zero-point correction=                           0.159429 (Hartree/Particle)
 Thermal correction to Energy=                    0.167168
 Thermal correction to Enthalpy=                  0.168112
 Thermal correction to Gibbs Free Energy=         0.127456
 Sum of electronic and zero-point Energies=           -422.974876
 Sum of electronic and thermal Energies=              -422.967137
 Sum of electronic and thermal Enthalpies=            -422.966193
 Sum of electronic and thermal Free Energies=         -423.006849

                     E (Thermal)             CV                S
                      KCal/Mol        Cal/Mol-Kelvin    Cal/Mol-Kelvin
 Total                  104.900             31.018             85.568
 Electronic               0.000              0.000              0.000
 Translational            0.889              2.981             40.409
 Rotational               0.889              2.981             28.270
 Vibrational            103.122             25.056             16.890
 Vibration     1          0.602              1.954              3.603
 Vibration     2          0.625              1.879              2.436
 Vibration     3          0.648              1.809              1.951
 Vibration     4          0.699              1.654              1.361
 Vibration     5          0.726              1.579              1.175
 Vibration     6          0.751              1.510              1.034
 Vibration     7          0.763              1.479              0.977
 Vibration     8          0.847              1.270              0.681
 Vibration     9          0.858              1.245              0.653
 Vibration    10          0.968              1.012              0.434

 Optimization completed.
    -- Stationary point found.
 Normal termination of Gaussian 09 at Mon Jan 27 20:32:31 2020.
