 Gaussian 09, Revision D.01,
 Gaussian 09:  ES64L-G09RevD.01 24-Apr-2013

 -----------------------------
 # b3lyp 6-31G(2df,p) opt Freq
 -----------------------------

 -----
 titel
 -----
 Symbolic Z-matrix:
 Charge =  0 Multiplicity = 1

 SCF Done:  E(RB3LYP) =  -423.157433506     A.U. after   14 cycles
 Optimization completed.
    -- Stationary point found.
 Normal termination of Gaussian 09 at Mon Jan 27 17:37:41 2020.

 ----------------------------------------------------------------------
 #N Geom=AllCheck Guess=TCheck SCRF=Check GenChk RB3LYP/6-31G(2df,p) Fr
 eq
 ----------------------------------------------------------------------

 Structure from the checkpoint file:  "/scratch/puck/g09_8d1e8f54-09e7-414b-8238-d3446a8b1c92/Gau-40989.chk"
 -----
 titel
 -----
 Charge =  0 Multiplicity = 1

                         Standard orientation:
 ---------------------------------------------------------------------
 Center     Atomic      Atomic             Coordinates (Angstroms)
 Number     Number       Type             X           Y           Z
 ---------------------------------------------------------------------
      1          6           0        2.649614    0.556071   -0.065386
      2          6           0        1.239253    0.065956   -0.036045
      3          8           0        0.743395   -0.515086    1.179082
      4          6           0        0.654241   -1.292744   -0.025877
      5          6           0       -0.585170   -0.803591   -0.814916
      6          8           0       -1.842242   -0.798199   -0.195864
      7          6           0       -1.957339    0.371266    0.625364
      8          6           0       -1.028462    1.450861    0.014097
      9          6           0        0.008440    0.642845   -0.778100
     10          1           0        3.311798   -0.154687    0.436077
     11          1           0        2.992384    0.691107   -1.096377
     12          1           0        2.736928    1.521789    0.445738
     13          1           0        1.122689   -2.271346   -0.011045
     14          1           0       -0.668053   -1.272209   -1.799584
     15          1           0       -3.011831    0.665293    0.620678
     16          1           0       -1.656797    0.140904    1.651629
     17          1           0       -1.588444    2.101606   -0.663494
     18          1           0       -0.582441    2.076739    0.791176
     19          1           0        0.251079    1.063095   -1.755363
 ---------------------------------------------------------------------

 SCF Done:  E(RB3LYP) =  -423.157433506     A.U. after    1 cycles

 The electronic state is 1-A.
 Alpha  occ. eigenvalues --  -19.15050 -19.13259 -10.24259 -10.23127 -10.22930
 Alpha  occ. eigenvalues --  -10.21739 -10.19081 -10.18972 -10.18287  -1.07906
 Alpha  occ. eigenvalues --   -1.02581  -0.80284  -0.75293  -0.74222  -0.64746
 Alpha  occ. eigenvalues --   -0.62000  -0.56798  -0.53975  -0.51567  -0.48615
 Alpha  occ. eigenvalues --   -0.46684  -0.44041  -0.43066  -0.42034  -0.40435
 Alpha  occ. eigenvalues --   -0.39135  -0.37422  -0.35874  -0.33676  -0.33079
 Alpha  occ. eigenvalues --   -0.31471  -0.28369  -0.26592  -0.22891
 Alpha virt. eigenvalues --    0.07895   0.08651   0.11105   0.11500   0.13415
 Alpha virt. eigenvalues --    0.13995   0.14150   0.14787   0.15213   0.16238
 Alpha virt. eigenvalues --    0.18193   0.18505   0.19679   0.20143   0.21958

 Mulliken charges:
               1
     1  C   -0.505139
     2  C    0.408296
     3  O   -0.282903
     4  C   -0.080928
     5  C    0.096610
     6  O   -0.263567
     7  C   -0.068305
     8  C   -0.247574
     9  C   -0.134034
    10  H    0.135998
    11  H    0.125233
    12  H    0.131177
    13  H    0.098669
    14  H    0.082571
    15  H    0.096775
    16  H    0.116469
    17  H    0.104229
    18  H    0.109020
    19  H    0.077402
 Sum of Mulliken charges =   0.00000

 Dipole moment (field-independent basis, Debye):
    X=              1.4914    Y=              1.1619    Z=             -1.4642  Tot=              2.3912
 Quadrupole moment (field-independent basis, Debye-Ang):
   XX=            -52.8691   YY=            -51.3485   ZZ=            -53.7189
   XY=             -2.9169   XZ=             -2.0013   YZ=              1.2272

  Exact polarizability:  82.708  -1.219  73.765  -1.058   0.929  65.277
 Approx polarizability: 107.305   2.258 111.023  -0.388   1.378 105.288

                      1                      2                      3
                      A                      A                      A
 Frequencies --    119.3351               197.7315               208.3435
 Red. masses --      3.3718                 1.1104                 1.9802
 Frc consts  --      0.0283                 0.0256                 0.0506
 IR Inten    --      1.1980                 0.4286                 0.9650

                      4                      5                      6
                      A                      A                      A
 Frequencies --    227.8340               253.0158               342.6748
 Red. masses --      2.6783                 3.4615                 4.1117
 Frc consts  --      0.0819                 0.1306                 0.2845
 IR Inten    --      5.2280                 0.2149                 3.2040

                      7                      8                      9
                      A                      A                      A
 Frequencies --    487.0174               561.1344               622.0818
 Red. masses --      2.5778                 4.4781                 4.8733
 Frc consts  --      0.3602                 0.8308                 1.1111
 IR Inten    --      0.6730                12.7126                 6.6221

                     10                     11                     12
                      A                      A                      A
 Frequencies --    670.6249               702.6381               772.8126
 Red. masses --      2.8719                 4.5619                 3.6324
 Frc consts  --      0.7610                 1.3270                 1.2782
 IR Inten    --      2.9122                 6.4511                 3.2553

                     13                     14                     15
                      A                      A                      A
 Frequencies --    826.1138               848.0263               880.6899
 Red. masses --      2.9489                 2.6017                 2.4719
 Frc consts  --      1.1857                 1.1024                 1.1296
 IR Inten    --      9.7483                 9.8826                10.6564

                     16                     17                     18
                      A                      A                      A
 Frequencies --    893.3550               914.6351               946.7191
 Red. masses --      1.9120                 2.3479                 2.3251
 Frc consts  --      0.8991                 1.1572                 1.2278
 IR Inten    --      0.6238                 8.1466                 9.3703

                     19                     20                     21
                      A                      A                      A
 Frequencies --    970.6917               999.8638              1034.6685
 Red. masses --      2.8500                 1.7722                 1.8805
 Frc consts  --      1.5822                 1.0439                 1.1861
 IR Inten    --     19.6277                 3.8645                 1.7715

                     22                     23                     24
                      A                      A                      A
 Frequencies --   1052.3467              1071.9229              1115.2099
 Red. masses --      1.9968                 1.7468                 2.4801
 Frc consts  --      1.3029                 1.1826                 1.8173
 IR Inten    --      3.2027                 6.4183                24.7462

                     25                     26                     27
                      A                      A                      A
 Frequencies --   1131.3334              1159.4047              1195.9316
 Red. masses --      2.8716                 2.0730                 1.6999
 Frc consts  --      2.1655                 1.6418                 1.4325
 IR Inten    --    102.2173                19.1404                 6.0584

                     28                     29                     30
                      A                      A                      A
 Frequencies --   1222.6935              1234.2023              1260.4481
 Red. masses --      1.3725                 1.3166                 1.4929
 Frc consts  --      1.2089                 1.1817                 1.3974
 IR Inten    --      3.5406                13.1608                 0.0318

                     31                     32                     33
                      A                      A                      A
 Frequencies --   1268.0792              1297.6715              1328.3848
 Red. masses --      1.4125                 1.6496                 1.3726
 Frc consts  --      1.3382                 1.6366                 1.4270
 IR Inten    --      3.7022                 5.9144                 4.4070

                     34                     35                     36
                      A                      A                      A
 Frequencies --   1348.5261              1400.2391              1404.5281
 Red. masses --      1.4682                 1.3479                 1.2681
 Frc consts  --      1.5730                 1.5571                 1.4739
 IR Inten    --      9.1243                 7.3011                 1.5667

                     37                     38                     39
                      A                      A                      A
 Frequencies --   1461.7880              1482.1096              1483.5230
 Red. masses --      2.8587                 1.1435                 1.0895
 Frc consts  --      3.5990                 1.4800                 1.4128
 IR Inten    --     10.4286                 7.1027                 4.4984

                     40                     41                     42
                      A                      A                      A
 Frequencies --   1493.9941              1518.1739              3032.9410
 Red. masses --      1.1231                 1.1034                 1.0365
 Frc consts  --      1.4769                 1.4984                 5.6178
 IR Inten    --      1.9788                 0.2155                23.0326

                     43                     44                     45
                      A                      A                      A
 Frequencies --   3043.9090              3058.2655              3072.9201
 Red. masses --      1.0566                 1.0630                 1.0876
 Frc consts  --      5.7681                 5.8580                 6.0507
 IR Inten    --     58.0496                29.2605                28.7907

                     46                     47                     48
                      A                      A                      A
 Frequencies --   3084.8586              3094.2507              3100.4840
 Red. masses --      1.1062                 1.0991                 1.0893
 Frc consts  --      6.2024                 6.2003                 6.1694
 IR Inten    --     20.6212                12.6948                17.5379

                     49                     50                     51
                      A                      A                      A
 Frequencies --   3112.3269              3121.0654              3172.8262
 Red. masses --      1.1041                 1.1011                 1.0941
 Frc consts  --      6.3015                 6.3195                 6.4894
 IR Inten    --     40.7211                14.8352                23.3621

 - Thermochemistry -
 -------------------
 Temperature   298.150 Kelvin.  Pressure   1.00000 Atm.
 Atom     1 has atomic number  6 and mass  12.00000

 Molecular mass:   126.06808 amu.
 Principal axes and moments of inertia in atomic units:
                           1         2         3
     Eigenvalues --   545.342111188.712791341.77229
           X            0.99977  -0.01256  -0.01766
           Y            0.01304   0.99954   0.02745
           Z            0.01731  -0.02768   0.99947
 This molecule is an asymmetric top.
 Rotational symmetry number  1.
 Warning -- assumption of classical behavior for rotation
           may cause significant error
 Rotational temperatures (Kelvin)      0.15882     0.07286     0.06455
 Rotational constants (GHZ):           3.30937     1.51823     1.34504
 Zero-point vibrational energy     420513.5 (Joules/Mol)
                                  100.50513 (Kcal/Mol)
 Warning -- explicit consideration of   8 degrees of freedom as
           vibrations may cause significant error
 Vibrational temperatures:    171.70   284.49   299.76   327.80   364.03
          (Kelvin)            493.03   700.71   807.35   895.04   964.88
                             1010.94  1111.90  1188.59  1220.12  1267.11
                             1285.34  1315.95  1362.12  1396.61  1438.58
                             1488.66  1514.09  1542.26  1604.54  1627.73
                             1668.12  1720.68  1759.18  1775.74  1813.50
                             1824.48  1867.06  1911.25  1940.23  2014.63
                             2020.80  2103.18  2132.42  2134.46  2149.52
                             2184.31  4363.72  4379.50  4400.16  4421.24
                             4438.42  4451.93  4460.90  4477.94  4490.51
                             4564.98

 Zero-point correction=                           0.160165 (Hartree/Particle)
 Thermal correction to Energy=                    0.167790
 Thermal correction to Enthalpy=                  0.168734
 Thermal correction to Gibbs Free Energy=         0.128284
 Sum of electronic and zero-point Energies=           -422.997268
 Sum of electronic and thermal Energies=              -422.989643
 Sum of electronic and thermal Enthalpies=            -422.988699
 Sum of electronic and thermal Free Energies=         -423.029149

                     E (Thermal)             CV                S
                      KCal/Mol        Cal/Mol-Kelvin    Cal/Mol-Kelvin
 Total                  105.290             30.077             85.134
 Electronic               0.000              0.000              0.000
 Translational            0.889              2.981             40.409
 Rotational               0.889              2.981             28.255
 Vibrational            103.512             24.115             16.470
 Vibration     1          0.609              1.933              3.111
 Vibration     2          0.637              1.843              2.154
 Vibration     3          0.642              1.828              2.058
 Vibration     4          0.651              1.799              1.896
 Vibration     5          0.664              1.758              1.709
 Vibration     6          0.722              1.590              1.200
 Vibration     7          0.843              1.279              0.691
 Vibration     8          0.917              1.115              0.522

 Optimization completed.
    -- Stationary point found.
 Normal termination of Gaussian 09 at Mon Jan 27 18:33:17 2020.
