 Gaussian 09, Revision D.01,
 Gaussian 09:  ES64L-G09RevD.01 24-Apr-2013

 -----------------------------
 # b3lyp 6-31G(2df,p) opt Freq
 -----------------------------

 -----
 titel
 -----
 Symbolic Z-matrix:
 Charge =  0 Multiplicity = 1

 SCF Done:  E(RB3LYP) =  -423.147882880     A.U. after   14 cycles
 SCF Done:  E(RB3LYP) =  -423.147882816     A.U. after    7 cycles
 SCF Done:  E(RB3LYP) =  -423.147882864     A.U. after    7 cycles
 SCF Done:  E(RB3LYP) =  -423.147882821     A.U. after    7 cycles
 Optimization completed.
    -- Stationary point found.
 Normal termination of Gaussian 09 at Tue Jan 28 08:48:18 2020.

 ----------------------------------------------------------------------
 #N Geom=AllCheck Guess=TCheck SCRF=Check GenChk RB3LYP/6-31G(2df,p) Fr
 eq
 ----------------------------------------------------------------------

 Structure from the checkpoint file:  "/scratch/puck/g09_9bd2e55e-ec76-4f96-8929-38a5f0072959/Gau-79820.chk"
 -----
 titel
 -----
 Charge =  0 Multiplicity = 1

                         Standard orientation:
 ---------------------------------------------------------------------
 Center     Atomic      Atomic             Coordinates (Angstroms)
 Number     Number       Type             X           Y           Z
 ---------------------------------------------------------------------
      1          6           0        0.683386    2.190319    0.205383
      2          6           0       -0.010796    0.929371   -0.279967
      3          8           0       -1.391865    1.056579    0.035628
      4          6           0       -2.147085   -0.069137   -0.381695
      5          6           0       -1.603049   -1.332651    0.268877
      6          8           0       -0.227307   -1.492728   -0.043631
      7          6           0        0.537507   -0.362747    0.374711
      8          6           0        1.933925   -0.604707    0.033507
      9          6           0        3.088054   -0.770783   -0.255094
     10          1           0        0.584061    2.288703    1.291032
     11          1           0        1.744765    2.168950   -0.051073
     12          1           0        0.222949    3.066108   -0.258641
     13          1           0        0.108672    0.815940   -1.370038
     14          1           0       -3.183320    0.115657   -0.082411
     15          1           0       -2.107810   -0.171846   -1.478097
     16          1           0       -1.742705   -1.275154    1.360780
     17          1           0       -2.112459   -2.225678   -0.104875
     18          1           0        0.439446   -0.242720    1.468453
     19          1           0        4.108116   -0.928755   -0.505446
 ---------------------------------------------------------------------

 SCF Done:  E(RB3LYP) =  -423.147882821     A.U. after    1 cycles

 The electronic state is 1-A.
 Alpha  occ. eigenvalues --  -19.14788 -19.14526 -10.25592 -10.23847 -10.23189
 Alpha  occ. eigenvalues --  -10.23100 -10.18580 -10.18094 -10.17702  -1.05911
 Alpha  occ. eigenvalues --   -1.02095  -0.81247  -0.74983  -0.72479  -0.68818
 Alpha  occ. eigenvalues --   -0.63355  -0.58595  -0.54291  -0.50285  -0.49572
 Alpha  occ. eigenvalues --   -0.49142  -0.46904  -0.45670  -0.41453  -0.39501
 Alpha  occ. eigenvalues --   -0.38887  -0.37249  -0.36507  -0.35103  -0.30833
 Alpha  occ. eigenvalues --   -0.29008  -0.27967  -0.27393  -0.23740
 Alpha virt. eigenvalues --    0.03165   0.04798   0.10090   0.10963   0.11810
 Alpha virt. eigenvalues --    0.12400   0.13208   0.14859   0.16199   0.16637
 Alpha virt. eigenvalues --    0.16738   0.18319   0.18830   0.19938   0.21086

 Mulliken charges:
               1
     1  C   -0.412331
     2  C    0.112203
     3  O   -0.263436
     4  C   -0.081219
     5  C   -0.075536
     6  O   -0.265935
     7  C   -0.076173
     8  C    0.307079
     9  C   -0.417084
    10  H    0.123711
    11  H    0.133750
    12  H    0.127897
    13  H    0.080234
    14  H    0.108013
    15  H    0.096827
    16  H    0.095476
    17  H    0.110753
    18  H    0.096850
    19  H    0.198921
 Sum of Mulliken charges =   0.00000

 Dipole moment (field-independent basis, Debye):
    X=             -0.3003    Y=              0.2455    Z=             -0.0157  Tot=              0.3882
 Quadrupole moment (field-independent basis, Debye-Ang):
   XX=            -45.7630   YY=            -56.3637   ZZ=            -52.7796
   XY=              3.4339   XZ=             -0.5867   YZ=             -0.7256

  Exact polarizability: 103.175   0.964  70.843  -3.683   0.645  61.075
 Approx polarizability: 144.970  -3.418  96.709 -10.806   3.704  95.201

                      1                      2                      3
                      A                      A                      A
 Frequencies --     95.9877               143.9052               179.1543
 Red. masses --      3.5348                 3.8836                 2.9615
 Frc consts  --      0.0192                 0.0474                 0.0560
 IR Inten    --      0.1780                 0.3159                 4.8373

                      4                      5                      6
                      A                      A                      A
 Frequencies --    208.8921               274.7544               303.8461
 Red. masses --      1.0545                 3.7575                 2.8094
 Frc consts  --      0.0271                 0.1671                 0.1528
 IR Inten    --      0.1881                 3.2866                 1.5379

                      7                      8                      9
                      A                      A                      A
 Frequencies --    355.1105               427.6960               446.2981
 Red. masses --      2.0600                 4.3609                 6.5302
 Frc consts  --      0.1531                 0.4700                 0.7664
 IR Inten    --      1.5694                 1.8863                 0.0744

                     10                     11                     12
                      A                      A                      A
 Frequencies --    453.1289               511.4199               556.5169
 Red. masses --      3.3389                 5.9052                 5.5917
 Frc consts  --      0.4039                 0.9100                 1.0204
 IR Inten    --      9.2677                 2.9724                 0.2508

                     13                     14                     15
                      A                      A                      A
 Frequencies --    609.8994               630.2772               674.2251
 Red. masses --      2.0213                 1.2293                 1.2611
 Frc consts  --      0.4430                 0.2877                 0.3378
 IR Inten    --      8.5816                44.9523                33.5887

                     16                     17                     18
                      A                      A                      A
 Frequencies --    851.0696               881.4818               909.7415
 Red. masses --      2.1164                 2.1586                 2.5548
 Frc consts  --      0.9032                 0.9882                 1.2458
 IR Inten    --      3.2450                10.4275                18.8323

                     19                     20                     21
                      A                      A                      A
 Frequencies --    925.5021              1004.4443              1035.0165
 Red. masses --      2.3532                 3.0998                 2.7546
 Frc consts  --      1.1876                 1.8426                 1.7386
 IR Inten    --      8.2293                37.1933                11.3484

                     22                     23                     24
                      A                      A                      A
 Frequencies --   1073.8260              1120.6347              1124.3609
 Red. masses --      2.3245                 5.4676                 2.0855
 Frc consts  --      1.5792                 4.0455                 1.5533
 IR Inten    --      7.7299                19.4381                 5.4057

                     25                     26                     27
                      A                      A                      A
 Frequencies --   1140.8281              1152.5901              1162.4230
 Red. masses --      3.3433                 3.4201                 2.0341
 Frc consts  --      2.5637                 2.6770                 1.6194
 IR Inten    --    123.2268               125.4117                 5.8976

                     28                     29                     30
                      A                      A                      A
 Frequencies --   1270.7263              1286.1734              1298.9841
 Red. masses --      1.1697                 1.2780                 1.2367
 Frc consts  --      1.1128                 1.2456                 1.2294
 IR Inten    --      4.6262                27.9380                23.3347

                     31                     32                     33
                      A                      A                      A
 Frequencies --   1354.8896              1370.1451              1374.6094
 Red. masses --      1.3410                 1.3234                 1.2323
 Frc consts  --      1.4504                 1.4638                 1.3719
 IR Inten    --     11.3981                20.4564                10.1318

                     34                     35                     36
                      A                      A                      A
 Frequencies --   1399.7877              1411.5594              1417.9874
 Red. masses --      1.2981                 1.3768                 1.3446
 Frc consts  --      1.4986                 1.6163                 1.5929
 IR Inten    --      3.1389                16.0702                 3.5998

                     37                     38                     39
                      A                      A                      A
 Frequencies --   1484.1886              1485.4732              1488.0774
 Red. masses --      1.0972                 1.0488                 1.0922
 Frc consts  --      1.4240                 1.3635                 1.4250
 IR Inten    --      6.5434                 3.4910                 0.0398

                     40                     41                     42
                      A                      A                      A
 Frequencies --   1498.6407              2243.2986              2944.7084
 Red. masses --      1.0600                 5.9108                 1.0791
 Frc consts  --      1.4027                17.5255                 5.5131
 IR Inten    --      2.7699                 1.3640                14.4921

                     43                     44                     45
                      A                      A                      A
 Frequencies --   2974.0244              2977.2890              2985.9266
 Red. masses --      1.0729                 1.0801                 1.0675
 Frc consts  --      5.5912                 5.6408                 5.6074
 IR Inten    --     38.9165                12.0025                96.9353

                     46                     47                     48
                      A                      A                      A
 Frequencies --   3048.4425              3086.3110              3090.7120
 Red. masses --      1.0360                 1.0952                 1.0946
 Frc consts  --      5.6724                 6.1466                 6.1607
 IR Inten    --     14.6876                39.8685                35.2242

                     49                     50                     51
                      A                      A                      A
 Frequencies --   3119.7935              3138.9742              3503.1143
 Red. masses --      1.1007                 1.1017                 1.1633
 Frc consts  --      6.3118                 6.3955                 8.4109
 IR Inten    --     19.5736                13.8104                65.8495

 - Thermochemistry -
 -------------------
 Temperature   298.150 Kelvin.  Pressure   1.00000 Atm.
 Atom     1 has atomic number  6 and mass  12.00000

 Molecular mass:   126.06808 amu.
 Principal axes and moments of inertia in atomic units:
                           1         2         3
     Eigenvalues --   713.459771237.471461831.30164
           X            0.99821   0.05980   0.00076
           Y           -0.05980   0.99821  -0.00117
           Z           -0.00083   0.00112   1.00000
 This molecule is an asymmetric top.
 Rotational symmetry number  1.
 Warning -- assumption of classical behavior for rotation
           may cause significant error
 Rotational temperatures (Kelvin)      0.12140     0.06999     0.04730
 Rotational constants (GHZ):           2.52956     1.45841     0.98550
 Zero-point vibrational energy     415743.4 (Joules/Mol)
                                   99.36505 (Kcal/Mol)
 Warning -- explicit consideration of  13 degrees of freedom as
           vibrations may cause significant error
 Vibrational temperatures:    138.10   207.05   257.76   300.55   395.31
          (Kelvin)            437.17   510.92   615.36   642.12   651.95
                              735.82   800.70   877.51   906.83   970.06
                             1224.50  1268.25  1308.91  1331.59  1445.17
                             1489.16  1544.99  1612.34  1617.70  1641.40
                             1658.32  1672.47  1828.29  1850.51  1868.95
                             1949.38  1971.33  1977.75  2013.98  2030.92
                             2040.17  2135.41  2137.26  2141.01  2156.21
                             3227.60  4236.77  4278.95  4283.65  4296.08
                             4386.02  4440.51  4446.84  4488.68  4516.28
                             5040.19

 Zero-point correction=                           0.158348 (Hartree/Particle)
 Thermal correction to Energy=                    0.167107
 Thermal correction to Enthalpy=                  0.168051
 Thermal correction to Gibbs Free Energy=         0.125198
 Sum of electronic and zero-point Energies=           -422.989535
 Sum of electronic and thermal Energies=              -422.980776
 Sum of electronic and thermal Enthalpies=            -422.979832
 Sum of electronic and thermal Free Energies=         -423.022685

                     E (Thermal)             CV                S
                      KCal/Mol        Cal/Mol-Kelvin    Cal/Mol-Kelvin
 Total                  104.861             33.561             90.192
 Electronic               0.000              0.000              0.000
 Translational            0.889              2.981             40.409
 Rotational               0.889              2.981             28.871
 Vibrational            103.084             27.599             20.912
 Vibration     1          0.603              1.952              3.534
 Vibration     2          0.616              1.909              2.751
 Vibration     3          0.629              1.868              2.337
 Vibration     4          0.642              1.827              2.053
 Vibration     5          0.677              1.720              1.566
 Vibration     6          0.695              1.666              1.396
 Vibration     7          0.731              1.565              1.143
 Vibration     8          0.789              1.410              0.866
 Vibration     9          0.806              1.369              0.807
 Vibration    10          0.812              1.354              0.786
 Vibration    11          0.867              1.225              0.630
 Vibration    12          0.912              1.125              0.531
 Vibration    13          0.969              1.011              0.433

 Optimization completed.
    -- Stationary point found.
 Normal termination of Gaussian 09 at Tue Jan 28 09:42:01 2020.
