 Gaussian 09, Revision D.01,
 Gaussian 09:  ES64L-G09RevD.01 24-Apr-2013

 -----------------------------
 # b3lyp 6-31G(2df,p) opt Freq
 -----------------------------

 -----
 titel
 -----
 Symbolic Z-matrix:
 Charge =  0 Multiplicity = 1

 SCF Done:  E(RB3LYP) =  -423.136245751     A.U. after   14 cycles
 Optimization completed.
    -- Stationary point found.
 Normal termination of Gaussian 09 at Mon Jan 27 13:57:13 2020.

 ----------------------------------------------------------------------
 #N Geom=AllCheck Guess=TCheck SCRF=Check GenChk RB3LYP/6-31G(2df,p) Fr
 eq
 ----------------------------------------------------------------------

 Structure from the checkpoint file:  "/scratch/puck/g09_ba3066cb-2f4f-47b3-9a1d-6452ce6626cd/Gau-76322.chk"
 -----
 titel
 -----
 Charge =  0 Multiplicity = 1

                         Standard orientation:
 ---------------------------------------------------------------------
 Center     Atomic      Atomic             Coordinates (Angstroms)
 Number     Number       Type             X           Y           Z
 ---------------------------------------------------------------------
      1          6           0        3.508805   -0.264845    0.066758
      2          6           0        2.085174    0.034794    0.023524
      3          6           0        0.912675    0.314289   -0.005087
      4          6           0       -0.507834    0.578272   -0.053611
      5          6           0       -0.998035    1.867241   -0.576244
      6          8           0       -1.006551    1.602483    0.825970
      7          6           0       -1.394044   -0.667052   -0.147388
      8          6           0       -1.341857   -1.496063    1.135044
      9          8           0       -1.055083   -1.425251   -1.297445
     10          1           0        3.705620   -1.194548    0.611201
     11          1           0        3.924095   -0.371779   -0.941262
     12          1           0        4.059014    0.537772    0.569523
     13          1           0       -0.280548    2.616387   -0.905071
     14          1           0       -1.974604    1.902932   -1.057475
     15          1           0       -2.419806   -0.322563   -0.315219
     16          1           0       -1.988793   -2.371546    1.037105
     17          1           0       -0.320185   -1.838295    1.333087
     18          1           0       -1.674035   -0.900770    1.990645
     19          1           0       -0.126994   -1.675260   -1.208704
 ---------------------------------------------------------------------

 SCF Done:  E(RB3LYP) =  -423.136245751     A.U. after    1 cycles

 The electronic state is 1-A.
 Alpha  occ. eigenvalues --  -19.15742 -19.13445 -10.25937 -10.23815 -10.23724
 Alpha  occ. eigenvalues --  -10.21468 -10.19283 -10.18133 -10.17200  -1.07764
 Alpha  occ. eigenvalues --   -1.01834  -0.79319  -0.76365  -0.72375  -0.67843
 Alpha  occ. eigenvalues --   -0.64640  -0.61096  -0.52674  -0.50735  -0.47009
 Alpha  occ. eigenvalues --   -0.45388  -0.44361  -0.43808  -0.43682  -0.41610
 Alpha  occ. eigenvalues --   -0.41071  -0.38437  -0.36678  -0.33813  -0.32481
 Alpha  occ. eigenvalues --   -0.28773  -0.27074  -0.26704  -0.25010
 Alpha virt. eigenvalues --    0.02412   0.03883   0.09023   0.10600   0.10844
 Alpha virt. eigenvalues --    0.11659   0.13031   0.14505   0.15653   0.16377
 Alpha virt. eigenvalues --    0.17689   0.18337   0.19572   0.19992   0.20682

 Mulliken charges:
               1
     1  C   -0.505638
     2  C    0.140423
     3  C   -0.011123
     4  C    0.209907
     5  C   -0.222682
     6  O   -0.271287
     7  C    0.041328
     8  C   -0.409576
     9  O   -0.427644
    10  H    0.153524
    11  H    0.154226
    12  H    0.159516
    13  H    0.121088
    14  H    0.120283
    15  H    0.094599
    16  H    0.122308
    17  H    0.116775
    18  H    0.133315
    19  H    0.280658
 Sum of Mulliken charges =   0.00000

 Dipole moment (field-independent basis, Debye):
    X=              2.1157    Y=             -0.3456    Z=             -0.3939  Tot=              2.1797
 Quadrupole moment (field-independent basis, Debye-Ang):
   XX=            -44.6669   YY=            -53.1220   ZZ=            -56.6844
   XY=             -2.7402   XZ=             -0.5872   YZ=             -4.8679

  Exact polarizability: 106.057  -8.538  75.342   1.200  -4.171  61.517
 Approx polarizability: 152.985 -19.243 105.016   1.255  -0.519  94.212

                      1                      2                      3
                      A                      A                      A
 Frequencies --     22.9495                64.1186                81.6696
 Red. masses --      1.0183                 3.5379                 3.6505
 Frc consts  --      0.0003                 0.0086                 0.0143
 IR Inten    --      0.0048                 1.9424                 0.2481

                      4                      5                      6
                      A                      A                      A
 Frequencies --    126.3912               207.2799               233.5202
 Red. masses --      4.0904                 2.8362                 1.8076
 Frc consts  --      0.0385                 0.0718                 0.0581
 IR Inten    --      3.0131                 1.9003                 5.9038

                      7                      8                      9
                      A                      A                      A
 Frequencies --    253.8708               296.7677               313.6417
 Red. masses --      1.5898                 3.1380                 2.2967
 Frc consts  --      0.0604                 0.1628                 0.1331
 IR Inten    --      6.4273                 4.1943                29.4052

                     10                     11                     12
                      A                      A                      A
 Frequencies --    334.1222               368.1784               451.8100
 Red. masses --      1.6550                 2.8880                 5.2248
 Frc consts  --      0.1089                 0.2307                 0.6284
 IR Inten    --     44.7326                52.0875                 1.2606

                     13                     14                     15
                      A                      A                      A
 Frequencies --    473.3800               542.2455               587.9239
 Red. masses --      3.5072                 4.8895                 4.9987
 Frc consts  --      0.4631                 0.8471                 1.0180
 IR Inten    --      8.8468                 2.6255                 4.2120

                     16                     17                     18
                      A                      A                      A
 Frequencies --    628.1974               835.9031               859.2800
 Red. masses --      3.5753                 1.8708                 6.7924
 Frc consts  --      0.8313                 0.7702                 2.9549
 IR Inten    --     12.9409                 6.1334                23.9040

                     19                     20                     21
                      A                      A                      A
 Frequencies --    914.1650               954.5177              1015.1837
 Red. masses --      2.7702                 2.2480                 1.8995
 Frc consts  --      1.3640                 1.2067                 1.1534
 IR Inten    --      3.1869                23.6324                37.9670

                     22                     23                     24
                      A                      A                      A
 Frequencies --   1050.2008              1054.4300              1061.7430
 Red. masses --      1.4191                 1.3993                 2.2015
 Frc consts  --      0.9221                 0.9166                 1.4622
 IR Inten    --      2.5727                 0.2557                27.7543

                     25                     26                     27
                      A                      A                      A
 Frequencies --   1098.0840              1118.2918              1136.9247
 Red. masses --      2.0951                 1.9958                 1.5667
 Frc consts  --      1.4884                 1.4705                 1.1932
 IR Inten    --     23.3447                46.2442                20.2139

                     28                     29                     30
                      A                      A                      A
 Frequencies --   1163.5449              1273.9772              1284.0331
 Red. masses --      1.3393                 1.9082                 2.8043
 Frc consts  --      1.0683                 1.8247                 2.7241
 IR Inten    --      1.9925                 4.7379                 9.0626

                     31                     32                     33
                      A                      A                      A
 Frequencies --   1333.3512              1394.4394              1402.3159
 Red. masses --      1.6330                 1.4310                 1.6239
 Frc consts  --      1.7105                 1.6395                 1.8815
 IR Inten    --     13.6149                12.8716                31.0849

                     34                     35                     36
                      A                      A                      A
 Frequencies --   1413.6233              1421.7264              1475.1733
 Red. masses --      1.3051                 1.2758                 1.0391
 Frc consts  --      1.5366                 1.5194                 1.3323
 IR Inten    --     10.1888                42.1115                 6.4346

                     37                     38                     39
                      A                      A                      A
 Frequencies --   1477.1339              1489.4745              1495.5838
 Red. masses --      1.0398                 1.0473                 1.0651
 Frc consts  --      1.3367                 1.3690                 1.4036
 IR Inten    --      6.0232                 4.4202                 1.8552

                     40                     41                     42
                      A                      A                      A
 Frequencies --   1520.1952              2359.8831              3030.5430
 Red. masses --      1.2486                11.8890                 1.0347
 Frc consts  --      1.7001                39.0099                 5.5988
 IR Inten    --      1.4448                15.7947                24.6009

                     43                     44                     45
                      A                      A                      A
 Frequencies --   3037.8256              3060.3010              3085.0119
 Red. masses --      1.0357                 1.0853                 1.0504
 Frc consts  --      5.6314                 5.9886                 5.8900
 IR Inten    --     10.7874                16.1302                26.1829

                     46                     47                     48
                      A                      A                      A
 Frequencies --   3092.5398              3095.1606              3111.4591
 Red. masses --      1.1004                 1.1001                 1.1000
 Frc consts  --      6.2008                 6.2094                 6.2743
 IR Inten    --      7.7903                 6.3552                26.3696

                     49                     50                     51
                      A                      A                      A
 Frequencies --   3126.3292              3178.7043              3778.7552
 Red. masses --      1.1026                 1.1200                 1.0655
 Frc consts  --      6.3497                 6.6674                 8.9637
 IR Inten    --     16.7076                19.1925                19.6645

 - Thermochemistry -
 -------------------
 Temperature   298.150 Kelvin.  Pressure   1.00000 Atm.
 Atom     1 has atomic number  6 and mass  12.00000

 Molecular mass:   126.06808 amu.
 Principal axes and moments of inertia in atomic units:
                           1         2         3
     Eigenvalues --   887.068791555.276731950.42037
           X            0.99998  -0.00320  -0.00536
           Y            0.00275   0.99668  -0.08136
           Z            0.00560   0.08134   0.99667
 This molecule is an asymmetric top.
 Rotational symmetry number  1.
 Warning -- assumption of classical behavior for rotation
           may cause significant error
 Rotational temperatures (Kelvin)      0.09764     0.05569     0.04441
 Rotational constants (GHZ):           2.03450     1.16040     0.92531
 Zero-point vibrational energy     407842.1 (Joules/Mol)
                                   97.47660 (Kcal/Mol)
 Warning -- explicit consideration of  15 degrees of freedom as
           vibrations may cause significant error
 Vibrational temperatures:     33.02    92.25   117.50   181.85   298.23
          (Kelvin)            335.98   365.26   426.98   451.26   480.73
                              529.73   650.05   681.09   780.17   845.89
                              903.83  1202.68  1236.31  1315.28  1373.34
                             1460.62  1511.00  1517.09  1527.61  1579.90
                             1608.97  1635.78  1674.08  1832.97  1847.43
                             1918.39  2006.28  2017.62  2033.89  2045.54
                             2122.44  2125.26  2143.02  2151.81  2187.22
                             3395.34  4360.27  4370.75  4403.09  4438.64
                             4449.47  4453.24  4476.69  4498.08  4573.44
                             5436.78

 Zero-point correction=                           0.155339 (Hartree/Particle)
 Thermal correction to Energy=                    0.165956
 Thermal correction to Enthalpy=                  0.166900
 Thermal correction to Gibbs Free Energy=         0.118274
 Sum of electronic and zero-point Energies=           -422.980907
 Sum of electronic and thermal Energies=              -422.970290
 Sum of electronic and thermal Enthalpies=            -422.969345
 Sum of electronic and thermal Free Energies=         -423.017972

                     E (Thermal)             CV                S
                      KCal/Mol        Cal/Mol-Kelvin    Cal/Mol-Kelvin
 Total                  104.139             37.170            102.343
 Electronic               0.000              0.000              0.000
 Translational            0.889              2.981             40.409
 Rotational               0.889              2.981             29.377
 Vibrational            102.362             31.208             32.557
 Vibration     1          0.593              1.985              6.361
 Vibration     2          0.597              1.971              4.326
 Vibration     3          0.600              1.962              3.850
 Vibration     4          0.611              1.927              3.000
 Vibration     5          0.641              1.829              2.068
 Vibration     6          0.654              1.790              1.852
 Vibration     7          0.665              1.756              1.704
 Vibration     8          0.690              1.680              1.435
 Vibration     9          0.701              1.648              1.343
 Vibration    10          0.716              1.607              1.240
 Vibration    11          0.741              1.538              1.087
 Vibration    12          0.810              1.357              0.790
 Vibration    13          0.830              1.309              0.728
 Vibration    14          0.897              1.157              0.560
 Vibration    15          0.945              1.058              0.471

 Optimization completed.
    -- Stationary point found.
 Normal termination of Gaussian 09 at Mon Jan 27 14:35:00 2020.
