 Gaussian 09, Revision D.01,
 Gaussian 09:  ES64L-G09RevD.01 24-Apr-2013

 -----------------------------
 # b3lyp 6-31G(2df,p) opt Freq
 -----------------------------

 -----
 titel
 -----
 Symbolic Z-matrix:
 Charge =  0 Multiplicity = 1

 SCF Done:  E(RB3LYP) =  -423.168926426     A.U. after   14 cycles
 Optimization completed.
    -- Stationary point found.
 Normal termination of Gaussian 09 at Tue Jan 28 13:30:34 2020.

 ----------------------------------------------------------------------
 #N Geom=AllCheck Guess=TCheck SCRF=Check GenChk RB3LYP/6-31G(2df,p) Fr
 eq
 ----------------------------------------------------------------------

 Structure from the checkpoint file:  "/scratch/puck/g09_b8a4b520-114d-4cff-b912-319af79c81ba/Gau-32016.chk"
 -----
 titel
 -----
 Charge =  0 Multiplicity = 1

                         Standard orientation:
 ---------------------------------------------------------------------
 Center     Atomic      Atomic             Coordinates (Angstroms)
 Number     Number       Type             X           Y           Z
 ---------------------------------------------------------------------
      1          8           0        2.891936   -0.995432   -0.001004
      2          6           0        2.168805    0.118640    0.500508
      3          6           0        1.059708    0.447396   -0.501986
      4          6           0       -0.005269   -0.679036   -0.610025
      5          6           0       -1.281003   -0.093412    0.003464
      6          6           0       -2.267348   -0.862304    0.780043
      7          8           0       -2.545778   -0.473337   -0.565017
      8          6           0       -1.010443    1.351615    0.220915
      9          6           0        0.254520    1.654151   -0.068974
     10          1           0        3.556048   -1.242436    0.648952
     11          1           0        1.718336   -0.102153    1.481836
     12          1           0        2.824653    0.994972    0.627786
     13          1           0        1.552083    0.623324   -1.466563
     14          1           0       -0.208732   -0.929167   -1.654738
     15          1           0        0.327386   -1.595233   -0.117320
     16          1           0       -2.104729   -1.928795    0.937624
     17          1           0       -2.867803   -0.370424    1.545950
     18          1           0       -1.776643    2.036335    0.564977
     19          1           0        0.696318    2.641429    0.015988
 ---------------------------------------------------------------------

 SCF Done:  E(RB3LYP) =  -423.168926426     A.U. after    1 cycles

 The electronic state is 1-A.
 Alpha  occ. eigenvalues --  -19.14218 -19.13810 -10.23770 -10.23020 -10.22671
 Alpha  occ. eigenvalues --  -10.19185 -10.18761 -10.18363 -10.17831  -1.06173
 Alpha  occ. eigenvalues --   -1.01893  -0.84334  -0.73506  -0.70420  -0.65768
 Alpha  occ. eigenvalues --   -0.62846  -0.55952  -0.54450  -0.51424  -0.49603
 Alpha  occ. eigenvalues --   -0.47370  -0.46053  -0.43143  -0.42398  -0.38729
 Alpha  occ. eigenvalues --   -0.37004  -0.35798  -0.35260  -0.34191  -0.32893
 Alpha  occ. eigenvalues --   -0.31678  -0.27099  -0.26025  -0.24152
 Alpha virt. eigenvalues --    0.00749   0.07433   0.09836   0.10547   0.11819
 Alpha virt. eigenvalues --    0.13682   0.14507   0.14676   0.15246   0.16952
 Alpha virt. eigenvalues --    0.18091   0.18790   0.19695   0.21309   0.22764

 Mulliken charges:
               1
     1  O   -0.418972
     2  C   -0.080531
     3  C   -0.036881
     4  C   -0.325632
     5  C    0.433289
     6  C   -0.250987
     7  O   -0.282400
     8  C   -0.147425
     9  C   -0.099698
    10  H    0.287822
    11  H    0.086790
    12  H    0.084833
    13  H    0.089384
    14  H    0.123028
    15  H    0.115525
    16  H    0.111013
    17  H    0.107414
    18  H    0.104173
    19  H    0.099254
 Sum of Mulliken charges =   0.00000

 Dipole moment (field-independent basis, Debye):
    X=              1.8917    Y=              0.5761    Z=              2.3834  Tot=              3.0970
 Quadrupole moment (field-independent basis, Debye-Ang):
   XX=            -53.2697   YY=            -50.9121   ZZ=            -52.5915
   XY=             -0.1250   XZ=             -0.1454   YZ=             -2.1274

  Exact polarizability:  96.370   5.426  76.419  -6.996  -0.694  61.268
 Approx polarizability: 135.827  11.150 109.784  -9.452  -1.752  97.267

                      1                      2                      3
                      A                      A                      A
 Frequencies --     35.6767               113.5149               159.9310
 Red. masses --      3.1117                 3.5041                 4.1079
 Frc consts  --      0.0023                 0.0266                 0.0619
 IR Inten    --      0.0439                 3.3319                 0.6740

                      4                      5                      6
                      A                      A                      A
 Frequencies --    247.3187               271.7236               321.3103
 Red. masses --      1.7120                 1.5381                 2.5696
 Frc consts  --      0.0617                 0.0669                 0.1563
 IR Inten    --     51.3898                49.6084                 1.3747

                      7                      8                      9
                      A                      A                      A
 Frequencies --    354.9336               378.9977               450.2794
 Red. masses --      3.8343                 2.0601                 3.0746
 Frc consts  --      0.2846                 0.1743                 0.3673
 IR Inten    --      9.8380                 1.7831                 8.1055

                     10                     11                     12
                      A                      A                      A
 Frequencies --    514.8069               566.4894               742.3739
 Red. masses --      4.6921                 3.1507                 3.2774
 Frc consts  --      0.7327                 0.5957                 1.0642
 IR Inten    --      8.3535                 4.1205                 7.3450

                     13                     14                     15
                      A                      A                      A
 Frequencies --    779.1836               813.9262               825.7163
 Red. masses --      2.7755                 1.6943                 5.2539
 Frc consts  --      0.9928                 0.6613                 2.1105
 IR Inten    --     12.7975                25.2295                11.5891

                     16                     17                     18
                      A                      A                      A
 Frequencies --    857.6774               913.4771               926.8988
 Red. masses --      2.5476                 1.4628                 1.7408
 Frc consts  --      1.1041                 0.7192                 0.8812
 IR Inten    --      4.7608                12.2447                 0.6219

                     19                     20                     21
                      A                      A                      A
 Frequencies --    972.5603               975.6832              1001.3627
 Red. masses --      1.5763                 2.2491                 2.2443
 Frc consts  --      0.8785                 1.2614                 1.3259
 IR Inten    --     10.9386                20.8203                 4.6563

                     22                     23                     24
                      A                      A                      A
 Frequencies --   1053.2079              1071.8513              1105.9312
 Red. masses --      1.9154                 4.6239                 2.0858
 Frc consts  --      1.2518                 3.1299                 1.5031
 IR Inten    --     15.6243                68.5590                19.2184

                     25                     26                     27
                      A                      A                      A
 Frequencies --   1124.3431              1130.6301              1162.8167
 Red. masses --      1.1759                 1.3159                 1.3377
 Frc consts  --      0.8759                 0.9911                 1.0657
 IR Inten    --      0.5856                 4.1633                 1.4387

                     28                     29                     30
                      A                      A                      A
 Frequencies --   1193.2196              1222.4477              1248.8117
 Red. masses --      1.1667                 1.3692                 1.9069
 Frc consts  --      0.9787                 1.2056                 1.7521
 IR Inten    --      7.8565                 5.3205                25.0835

                     31                     32                     33
                      A                      A                      A
 Frequencies --   1258.2683              1276.1654              1316.2550
 Red. masses --      1.2794                 1.3271                 1.6520
 Frc consts  --      1.1934                 1.2734                 1.6863
 IR Inten    --      3.8069                11.1631                 5.8478

                     34                     35                     36
                      A                      A                      A
 Frequencies --   1340.1831              1360.6512              1426.7328
 Red. masses --      1.9313                 1.4734                 2.4254
 Frc consts  --      2.0438                 1.6072                 2.9088
 IR Inten    --      6.4393                 2.2704                16.9080

                     37                     38                     39
                      A                      A                      A
 Frequencies --   1451.1692              1486.8397              1519.8619
 Red. masses --      1.4454                 1.0861                 1.0845
 Frc consts  --      1.7934                 1.4146                 1.4760
 IR Inten    --     10.1002                 2.7894                 3.9360

                     40                     41                     42
                      A                      A                      A
 Frequencies --   1527.2642              1679.0093              2962.2338
 Red. masses --      1.3308                 6.7933                 1.0541
 Frc consts  --      1.8289                11.2834                 5.4498
 IR Inten    --      2.6828                 0.8686                54.4528

                     43                     44                     45
                      A                      A                      A
 Frequencies --   2991.7595              3030.7963              3067.3507
 Red. masses --      1.1046                 1.0858                 1.0500
 Frc consts  --      5.8253                 5.8766                 5.8203
 IR Inten    --     40.6774                41.9273                32.8161

                     46                     47                     48
                      A                      A                      A
 Frequencies --   3070.2274              3113.8577              3152.2011
 Red. masses --      1.0614                 1.1039                 1.1192
 Frc consts  --      5.8950                 6.3065                 6.5520
 IR Inten    --     12.6686                10.9988                25.0517

                     49                     50                     51
                      A                      A                      A
 Frequencies --   3182.7742              3212.3913              3832.0573
 Red. masses --      1.0862                 1.1032                 1.0664
 Frc consts  --      6.4832                 6.7075                 9.2265
 IR Inten    --      6.3078                13.3517                24.3254

 - Thermochemistry -
 -------------------
 Temperature   298.150 Kelvin.  Pressure   1.00000 Atm.
 Atom     1 has atomic number  8 and mass  15.99491

 Molecular mass:   126.06808 amu.
 Principal axes and moments of inertia in atomic units:
                           1         2         3
     Eigenvalues --   528.036631712.380211989.99181
           X            0.99996   0.00649  -0.00649
           Y           -0.00655   0.99994  -0.00920
           Z            0.00643   0.00925   0.99994
 This molecule is an asymmetric top.
 Rotational symmetry number  1.
 Warning -- assumption of classical behavior for rotation
           may cause significant error
 Rotational temperatures (Kelvin)      0.16403     0.05058     0.04352
 Rotational constants (GHZ):           3.41783     1.05394     0.90691
 Zero-point vibrational energy     417467.7 (Joules/Mol)
                                   99.77718 (Kcal/Mol)
 Warning -- explicit consideration of  11 degrees of freedom as
           vibrations may cause significant error
 Vibrational temperatures:     51.33   163.32   230.10   355.84   390.95
          (Kelvin)            462.29   510.67   545.29   647.85   740.69
                              815.05  1068.11  1121.07  1171.06  1188.02
                             1234.00  1314.29  1333.60  1399.30  1403.79
                             1440.74  1515.33  1542.15  1591.19  1617.68
                             1626.72  1673.03  1716.77  1758.83  1796.76
                             1810.37  1836.12  1893.80  1928.22  1957.67
                             2052.75  2087.91  2139.23  2186.74  2197.39
                             2415.72  4261.99  4304.47  4360.63  4413.23
                             4417.37  4480.14  4535.31  4579.30  4621.91
                             5513.47

 Zero-point correction=                           0.159005 (Hartree/Particle)
 Thermal correction to Energy=                    0.167607
 Thermal correction to Enthalpy=                  0.168551
 Thermal correction to Gibbs Free Energy=         0.125001
 Sum of electronic and zero-point Energies=           -423.009921
 Sum of electronic and thermal Energies=              -423.001320
 Sum of electronic and thermal Enthalpies=            -423.000376
 Sum of electronic and thermal Free Energies=         -423.043925

                     E (Thermal)             CV                S
                      KCal/Mol        Cal/Mol-Kelvin    Cal/Mol-Kelvin
 Total                  105.175             32.415             91.658
 Electronic               0.000              0.000              0.000
 Translational            0.889              2.981             40.409
 Rotational               0.889              2.981             28.977
 Vibrational            103.397             26.453             22.272
 Vibration     1          0.594              1.982              5.486
 Vibration     2          0.607              1.938              3.208
 Vibration     3          0.622              1.891              2.551
 Vibration     4          0.661              1.767              1.750
 Vibration     5          0.675              1.725              1.585
 Vibration     6          0.707              1.633              1.303
 Vibration     7          0.731              1.565              1.144
 Vibration     8          0.749              1.515              1.043
 Vibration     9          0.809              1.360              0.795
 Vibration    10          0.870              1.217              0.622
 Vibration    11          0.922              1.104              0.511

 Optimization completed.
    -- Stationary point found.
 Normal termination of Gaussian 09 at Tue Jan 28 14:11:02 2020.
