 Gaussian 09, Revision D.01,
 Gaussian 09:  ES64L-G09RevD.01 24-Apr-2013

 -----------------------------
 # b3lyp 6-31G(2df,p) opt Freq
 -----------------------------

 -----
 titel
 -----
 Symbolic Z-matrix:
 Charge =  0 Multiplicity = 1

 SCF Done:  E(RB3LYP) =  -423.179939147     A.U. after   14 cycles
 Optimization completed.
    -- Stationary point found.
 Normal termination of Gaussian 09 at Mon Jan 27 22:13:47 2020.

 ----------------------------------------------------------------------
 #N Geom=AllCheck Guess=TCheck SCRF=Check GenChk RB3LYP/6-31G(2df,p) Fr
 eq
 ----------------------------------------------------------------------

 Structure from the checkpoint file:  "/scratch/puck/g09_0a3e8fc7-75d7-4b1f-a0a0-9d77ea62c6d3/Gau-28472.chk"
 -----
 titel
 -----
 Charge =  0 Multiplicity = 1

                         Standard orientation:
 ---------------------------------------------------------------------
 Center     Atomic      Atomic             Coordinates (Angstroms)
 Number     Number       Type             X           Y           Z
 ---------------------------------------------------------------------
      1          6           0       -2.499724   -0.334178   -0.625217
      2          6           0       -1.140400   -0.662112   -0.013120
      3          6           0        0.059578   -0.675973   -0.981750
      4          6           0        1.315435   -0.877961   -0.233437
      5          8           0        1.321918   -1.724488    0.878182
      6          6           0        0.744010    0.534272   -0.223623
      7          6           0        1.510405    1.740505   -0.688215
      8          6           0       -0.476915    0.570367    0.647413
      9          8           0       -0.897904    1.408890    1.398015
     10          1           0       -2.441679    0.537323   -1.286194
     11          1           0       -2.880724   -1.178209   -1.208736
     12          1           0       -3.222541   -0.107478    0.163221
     13          1           0       -1.198977   -1.546292    0.626013
     14          1           0       -0.019053   -0.807707   -2.054248
     15          1           0        2.214675   -0.943897   -0.849467
     16          1           0        1.946046   -1.374558    1.522641
     17          1           0        2.094700    2.170243    0.132977
     18          1           0        2.204822    1.484288   -1.494483
     19          1           0        0.836291    2.521556   -1.053605
 ---------------------------------------------------------------------

 SCF Done:  E(RB3LYP) =  -423.179939147     A.U. after    1 cycles

 The electronic state is 1-A.
 Alpha  occ. eigenvalues --  -19.15421 -19.12442 -10.25959 -10.25382 -10.20859
 Alpha  occ. eigenvalues --  -10.20692 -10.19368 -10.19011 -10.18056  -1.04272
 Alpha  occ. eigenvalues --   -1.03261  -0.89858  -0.76847  -0.72535  -0.67180
 Alpha  occ. eigenvalues --   -0.60867  -0.58521  -0.52887  -0.50445  -0.47942
 Alpha  occ. eigenvalues --   -0.45398  -0.44286  -0.42544  -0.41321  -0.40315
 Alpha  occ. eigenvalues --   -0.39914  -0.38364  -0.37317  -0.35894  -0.34061
 Alpha  occ. eigenvalues --   -0.31122  -0.29419  -0.26313  -0.23188
 Alpha virt. eigenvalues --   -0.00489   0.07083   0.09776   0.09862   0.11239
 Alpha virt. eigenvalues --    0.11840   0.14373   0.15185   0.15795   0.16783
 Alpha virt. eigenvalues --    0.17252   0.18888   0.18996   0.20169   0.24539

 Mulliken charges:
               1
     1  C   -0.412140
     2  C   -0.106611
     3  C   -0.150260
     4  C    0.049465
     5  O   -0.415068
     6  C    0.132391
     7  C   -0.496554
     8  C    0.369865
     9  O   -0.334706
    10  H    0.117707
    11  H    0.118095
    12  H    0.137247
    13  H    0.109278
    14  H    0.104090
    15  H    0.095383
    16  H    0.292397
    17  H    0.134655
    18  H    0.120690
    19  H    0.134078
 Sum of Mulliken charges =   0.00000

 Dipole moment (field-independent basis, Debye):
    X=              1.9565    Y=             -0.7483    Z=             -1.9496  Tot=              2.8616
 Quadrupole moment (field-independent basis, Debye-Ang):
   XX=            -48.3689   YY=            -58.7148   ZZ=            -52.8743
   XY=              2.8985   XZ=              3.6106   YZ=             -3.0807

  Exact polarizability:  84.250   2.287  75.770  -1.386   3.320  69.620
 Approx polarizability: 112.248  -1.357 116.623  -4.206  12.343 111.316

                      1                      2                      3
                      A                      A                      A
 Frequencies --     80.0982               137.3694               165.1025
 Red. masses --      4.6457                 1.0435                 3.5180
 Frc consts  --      0.0176                 0.0116                 0.0565
 IR Inten    --      3.9174                 0.2535                 0.2884

                      4                      5                      6
                      A                      A                      A
 Frequencies --    206.5253               218.8911               226.7502
 Red. masses --      1.8872                 1.2982                 3.1854
 Frc consts  --      0.0474                 0.0366                 0.0965
 IR Inten    --      2.7318                 1.2220                 5.3072

                      7                      8                      9
                      A                      A                      A
 Frequencies --    234.5567               303.9000               347.6498
 Red. masses --      3.3896                 1.2053                 3.1282
 Frc consts  --      0.1099                 0.0656                 0.2228
 IR Inten    --      1.4318               106.1145                 0.5702

                     10                     11                     12
                      A                      A                      A
 Frequencies --    419.9398               484.1591               578.5461
 Red. masses --      3.6258                 3.4073                 4.6831
 Frc consts  --      0.3767                 0.4706                 0.9235
 IR Inten    --      6.1693                 4.1289                 1.1203

                     13                     14                     15
                      A                      A                      A
 Frequencies --    610.9061               692.1106               703.1385
 Red. masses --      4.6736                 4.8043                 3.9511
 Frc consts  --      1.0277                 1.3559                 1.1509
 IR Inten    --      5.6149                 3.9513                 8.7251

                     16                     17                     18
                      A                      A                      A
 Frequencies --    792.7406               871.6427               888.9690
 Red. masses --      2.7669                 2.2642                 2.3290
 Frc consts  --      1.0245                 1.0136                 1.0844
 IR Inten    --      1.4528                15.4060                13.1927

                     19                     20                     21
                      A                      A                      A
 Frequencies --    942.5159               946.4829               999.4623
 Red. masses --      1.3902                 3.3952                 1.5719
 Frc consts  --      0.7276                 1.7920                 0.9252
 IR Inten    --     18.4863                38.6669                 6.7778

                     22                     23                     24
                      A                      A                      A
 Frequencies --   1029.3759              1065.6416              1091.6897
 Red. masses --      1.4648                 1.6682                 1.9835
 Frc consts  --      0.9145                 1.1161                 1.3928
 IR Inten    --      2.9838                 5.6874                 8.1628

                     25                     26                     27
                      A                      A                      A
 Frequencies --   1112.2573              1118.2090              1162.8721
 Red. masses --      1.8035                 1.8480                 3.1343
 Frc consts  --      1.3146                 1.3614                 2.4972
 IR Inten    --     12.7736                25.1675                48.9707

                     28                     29                     30
                      A                      A                      A
 Frequencies --   1239.8532              1241.7671              1253.4769
 Red. masses --      1.5437                 1.5603                 1.8752
 Frc consts  --      1.3981                 1.4175                 1.7360
 IR Inten    --      3.8480                13.1111                77.7400

                     31                     32                     33
                      A                      A                      A
 Frequencies --   1315.1812              1345.8353              1351.8540
 Red. masses --      1.3357                 2.3652                 2.0354
 Frc consts  --      1.3612                 2.5241                 2.1916
 IR Inten    --      4.0175                17.8638                 5.3268

                     34                     35                     36
                      A                      A                      A
 Frequencies --   1407.5718              1413.7226              1464.6459
 Red. masses --      1.2178                 1.2572                 2.2176
 Frc consts  --      1.4215                 1.4804                 2.8029
 IR Inten    --      2.4315                 0.4450                13.9755

                     37                     38                     39
                      A                      A                      A
 Frequencies --   1481.9351              1494.6787              1496.4192
 Red. masses --      1.0446                 1.0475                 1.0503
 Frc consts  --      1.3516                 1.3788                 1.3857
 IR Inten    --      4.6220                 3.4736                 6.6395

                     40                     41                     42
                      A                      A                      A
 Frequencies --   1497.1996              1862.0882              3031.9708
 Red. masses --      1.0576                12.6534                 1.0353
 Frc consts  --      1.3967                25.8499                 5.6073
 IR Inten    --      4.9988               286.3328                27.9937

                     43                     44                     45
                      A                      A                      A
 Frequencies --   3035.3724              3080.5104              3083.1588
 Red. masses --      1.0354                 1.0858                 1.0865
 Frc consts  --      5.6206                 6.0709                 6.0853
 IR Inten    --     22.3494                 2.8416                28.7590

                     46                     47                     48
                      A                      A                      A
 Frequencies --   3095.1703              3104.4167              3106.2162
 Red. masses --      1.1002                 1.1000                 1.1014
 Frc consts  --      6.2102                 6.2457                 6.2613
 IR Inten    --     14.9629                27.9349                20.4771

                     49                     50                     51
                      A                      A                      A
 Frequencies --   3118.3505              3189.9992              3811.1026
 Red. masses --      1.1009                 1.0932                 1.0662
 Frc consts  --      6.3071                 6.5541                 9.1243
 IR Inten    --     15.2548                 7.3922                30.6767

 - Thermochemistry -
 -------------------
 Temperature   298.150 Kelvin.  Pressure   1.00000 Atm.
 Atom     1 has atomic number  6 and mass  12.00000

 Molecular mass:   126.06808 amu.
 Principal axes and moments of inertia in atomic units:
                           1         2         3
     Eigenvalues --   892.081321146.151151427.04739
           X            0.99080   0.13462   0.01385
           Y           -0.13369   0.98953  -0.05432
           Z           -0.02101   0.05197   0.99843
 This molecule is an asymmetric top.
 Rotational symmetry number  1.
 Warning -- assumption of classical behavior for rotation
           may cause significant error
 Rotational temperatures (Kelvin)      0.09709     0.07557     0.06069
 Rotational constants (GHZ):           2.02307     1.57461     1.26467
 Zero-point vibrational energy     412436.5 (Joules/Mol)
                                   98.57469 (Kcal/Mol)
 Warning -- explicit consideration of  13 degrees of freedom as
           vibrations may cause significant error
 Vibrational temperatures:    115.24   197.64   237.55   297.14   314.94
          (Kelvin)            326.24   337.47   437.24   500.19   604.20
                              696.60   832.40   878.96   995.79  1011.66
                             1140.58  1254.10  1279.03  1356.07  1361.78
                             1438.00  1481.04  1533.22  1570.70  1600.29
                             1608.85  1673.11  1783.87  1786.62  1803.47
                             1892.25  1936.35  1945.01  2025.18  2034.03
                             2107.30  2132.17  2150.51  2153.01  2154.13
                             2679.13  4362.32  4367.22  4432.16  4435.97
                             4453.25  4466.56  4469.15  4486.61  4589.69
                             5483.32

 Zero-point correction=                           0.157089 (Hartree/Particle)
 Thermal correction to Energy=                    0.166539
 Thermal correction to Enthalpy=                  0.167483
 Thermal correction to Gibbs Free Energy=         0.123111
 Sum of electronic and zero-point Energies=           -423.022850
 Sum of electronic and thermal Energies=              -423.013401
 Sum of electronic and thermal Enthalpies=            -423.012456
 Sum of electronic and thermal Free Energies=         -423.056828

                     E (Thermal)             CV                S
                      KCal/Mol        Cal/Mol-Kelvin    Cal/Mol-Kelvin
 Total                  104.505             34.900             93.388
 Electronic               0.000              0.000              0.000
 Translational            0.889              2.981             40.409
 Rotational               0.889              2.981             28.769
 Vibrational            102.727             28.938             24.211
 Vibration     1          0.600              1.963              3.888
 Vibration     2          0.614              1.916              2.840
 Vibration     3          0.624              1.885              2.491
 Vibration     4          0.641              1.831              2.074
 Vibration     5          0.647              1.812              1.968
 Vibration     6          0.650              1.800              1.905
 Vibration     7          0.654              1.788              1.844
 Vibration     8          0.695              1.666              1.395
 Vibration     9          0.725              1.580              1.177
 Vibration    10          0.783              1.427              0.892
 Vibration    11          0.840              1.285              0.699
 Vibration    12          0.935              1.078              0.488
 Vibration    13          0.970              1.009              0.431

 Optimization completed.
    -- Stationary point found.
 Normal termination of Gaussian 09 at Tue Jan 28 00:26:00 2020.
