 Gaussian 09, Revision D.01,
 Gaussian 09:  ES64L-G09RevD.01 24-Apr-2013

 -----------------------------
 # b3lyp 6-31G(2df,p) opt Freq
 -----------------------------

 -----
 titel
 -----
 Symbolic Z-matrix:
 Charge =  0 Multiplicity = 1

 SCF Done:  E(RB3LYP) =  -423.202992385     A.U. after   14 cycles
 Optimization completed.
    -- Stationary point found.
 Normal termination of Gaussian 09 at Tue Jan 28 08:13:29 2020.

 ----------------------------------------------------------------------
 #N Geom=AllCheck Guess=TCheck SCRF=Check GenChk RB3LYP/6-31G(2df,p) Fr
 eq
 ----------------------------------------------------------------------

 Structure from the checkpoint file:  "/scratch/puck/g09_bde45ac4-9acc-4ee4-88b6-f79941b924f4/Gau-14177.chk"
 -----
 titel
 -----
 Charge =  0 Multiplicity = 1

                         Standard orientation:
 ---------------------------------------------------------------------
 Center     Atomic      Atomic             Coordinates (Angstroms)
 Number     Number       Type             X           Y           Z
 ---------------------------------------------------------------------
      1          6           0       -2.871490   -0.516971    0.343139
      2          6           0       -1.370424   -0.200245    0.344995
      3          6           0       -1.133673    1.202673   -0.268118
      4          8           0        0.202717    1.499781   -0.604735
      5          6           0        1.182321    1.129785    0.341732
      6          6           0        1.710371   -0.292691    0.106016
      7          8           0        2.875639   -0.556555    0.322362
      8          6           0        0.776078   -1.310239   -0.432567
      9          6           0       -0.558865   -1.277861   -0.332908
     10          1           0       -3.250672   -0.608462   -0.680738
     11          1           0       -3.075241   -1.457450    0.863339
     12          1           0       -3.441632    0.272202    0.843084
     13          1           0       -1.044907   -0.153886    1.392948
     14          1           0       -1.694527    1.295308   -1.204287
     15          1           0       -1.530664    1.951169    0.437480
     16          1           0        2.031471    1.808148    0.224629
     17          1           0        0.823143    1.229359    1.378556
     18          1           0        1.271483   -2.170137   -0.874506
     19          1           0       -1.121218   -2.118767   -0.735260
 ---------------------------------------------------------------------

 SCF Done:  E(RB3LYP) =  -423.202992385     A.U. after    1 cycles

 The electronic state is 1-A.
 Alpha  occ. eigenvalues --  -19.15093 -19.12471 -10.26427 -10.24083 -10.23665
 Alpha  occ. eigenvalues --  -10.21069 -10.21039 -10.19339 -10.19279  -1.04822
 Alpha  occ. eigenvalues --   -1.03108  -0.83048  -0.77861  -0.72843  -0.66829
 Alpha  occ. eigenvalues --   -0.64628  -0.57968  -0.54007  -0.50766  -0.48344
 Alpha  occ. eigenvalues --   -0.46900  -0.45899  -0.44434  -0.42259  -0.41204
 Alpha  occ. eigenvalues --   -0.39615  -0.39416  -0.36913  -0.36058  -0.34880
 Alpha  occ. eigenvalues --   -0.31969  -0.28178  -0.26846  -0.23591
 Alpha virt. eigenvalues --   -0.05289   0.04555   0.08299   0.09711   0.10264
 Alpha virt. eigenvalues --    0.12577   0.13568   0.15336   0.16109   0.16295
 Alpha virt. eigenvalues --    0.16741   0.18485   0.18986   0.22222   0.23438

 Mulliken charges:
               1
     1  C   -0.421210
     2  C   -0.078268
     3  C   -0.058662
     4  O   -0.234608
     5  C   -0.207242
     6  C    0.356047
     7  O   -0.322909
     8  C   -0.156084
     9  C   -0.024023
    10  H    0.125340
    11  H    0.125558
    12  H    0.121661
    13  H    0.104056
    14  H    0.113268
    15  H    0.093895
    16  H    0.136590
    17  H    0.111498
    18  H    0.110516
    19  H    0.104577
 Sum of Mulliken charges =   0.00000

 Dipole moment (field-independent basis, Debye):
    X=             -3.7880    Y=             -0.0893    Z=              0.5951  Tot=              3.8355
 Quadrupole moment (field-independent basis, Debye-Ang):
   XX=            -60.1738   YY=            -52.7418   ZZ=            -53.0328
   XY=              2.7061   XZ=             -1.0729   YZ=              3.0615

  Exact polarizability: 106.293  -0.212  74.105   1.564   5.414  57.552
 Approx polarizability: 162.667  -1.541 103.526   4.878   5.707  92.093

                      1                      2                      3
                      A                      A                      A
 Frequencies --     69.6682               130.1568               229.5453
 Red. masses --      4.6083                 2.3581                 1.1854
 Frc consts  --      0.0132                 0.0235                 0.0368
 IR Inten    --      4.6642                 1.3097                 0.7492

                      4                      5                      6
                      A                      A                      A
 Frequencies --    255.4603               284.8474               289.1357
 Red. masses --      2.7021                 2.7194                 3.6920
 Frc consts  --      0.1039                 0.1300                 0.1819
 IR Inten    --      3.1956                 1.0096                 5.9568

                      7                      8                      9
                      A                      A                      A
 Frequencies --    342.0708               372.9783               425.0210
 Red. masses --      2.7570                 5.5112                 2.1911
 Frc consts  --      0.1901                 0.4517                 0.2332
 IR Inten    --      1.8972                 4.3195                 1.9782

                     10                     11                     12
                      A                      A                      A
 Frequencies --    476.4557               566.7404               625.9396
 Red. masses --      4.8102                 2.8887                 2.8169
 Frc consts  --      0.6434                 0.5467                 0.6503
 IR Inten    --     12.9427                 6.1023                 0.5031

                     13                     14                     15
                      A                      A                      A
 Frequencies --    697.9443               763.4340               801.3300
 Red. masses --      4.6116                 3.0798                 1.8793
 Frc consts  --      1.3236                 1.0576                 0.7110
 IR Inten    --      3.1881                 4.9944                44.7394

                     16                     17                     18
                      A                      A                      A
 Frequencies --    856.1973               921.6053               947.3858
 Red. masses --      2.3724                 1.7792                 1.4433
 Frc consts  --      1.0247                 0.8903                 0.7632
 IR Inten    --      1.4188                 1.7092                 2.7917

                     19                     20                     21
                      A                      A                      A
 Frequencies --    977.6484              1014.8697              1025.6958
 Red. masses --      3.3168                 1.2781                 2.2299
 Frc consts  --      1.8678                 0.7756                 1.3822
 IR Inten    --     19.6566                 1.4195                 2.1442

                     22                     23                     24
                      A                      A                      A
 Frequencies --   1084.5941              1110.4282              1149.4319
 Red. masses --      3.0190                 1.6749                 2.9324
 Frc consts  --      2.0924                 1.2168                 2.2827
 IR Inten    --      3.9355                 7.7553                33.7265

                     25                     26                     27
                      A                      A                      A
 Frequencies --   1173.2762              1215.6128              1248.9172
 Red. masses --      2.9018                 1.9216                 1.2025
 Frc consts  --      2.3535                 1.6730                 1.1051
 IR Inten    --     42.4703                25.1078                 0.9156

                     28                     29                     30
                      A                      A                      A
 Frequencies --   1280.3821              1303.2885              1329.2013
 Red. masses --      1.5363                 1.3629                 1.2595
 Frc consts  --      1.4839                 1.3639                 1.3111
 IR Inten    --     50.6192                15.6137                 1.5280

                     31                     32                     33
                      A                      A                      A
 Frequencies --   1344.9298              1355.0094              1396.0076
 Red. masses --      1.3792                 1.2702                 1.3396
 Frc consts  --      1.4698                 1.3740                 1.5382
 IR Inten    --      3.6464                 8.1289                 7.7135

                     34                     35                     36
                      A                      A                      A
 Frequencies --   1407.7359              1427.0153              1470.9668
 Red. masses --      1.3329                 1.3637                 1.0770
 Frc consts  --      1.5563                 1.6362                 1.3729
 IR Inten    --      4.4177                 0.4728                 7.4235

                     37                     38                     39
                      A                      A                      A
 Frequencies --   1495.8602              1501.5048              1504.4302
 Red. masses --      1.0585                 1.0518                 1.0754
 Frc consts  --      1.3955                 1.3972                 1.4341
 IR Inten    --      3.3513                 5.1204                 2.9707

                     40                     41                     42
                      A                      A                      A
 Frequencies --   1681.1075              1774.1133              2968.0446
 Red. masses --      7.5708                11.6583                 1.0699
 Frc consts  --     12.6061                21.6196                 5.5529
 IR Inten    --     15.5801               224.0250                65.5980

                     43                     44                     45
                      A                      A                      A
 Frequencies --   2981.6005              3010.6054              3034.6280
 Red. masses --      1.0690                 1.0804                 1.0356
 Frc consts  --      5.5994                 5.7696                 5.6189
 IR Inten    --     22.5098                11.8919                24.1344

                     46                     47                     48
                      A                      A                      A
 Frequencies --   3071.2780              3100.2693              3103.8789
 Red. masses --      1.0933                 1.0930                 1.1011
 Frc consts  --      6.0761                 6.1897                 6.2503
 IR Inten    --     28.2669                12.7971                27.2946

                     49                     50                     51
                      A                      A                      A
 Frequencies --   3111.2016              3141.1467              3178.8726
 Red. masses --      1.1019                 1.0861                 1.0935
 Frc consts  --      6.2840                 6.3136                 6.5107
 IR Inten    --     19.6755                 9.4025                 9.4113

 - Thermochemistry -
 -------------------
 Temperature   298.150 Kelvin.  Pressure   1.00000 Atm.
 Atom     1 has atomic number  6 and mass  12.00000

 Molecular mass:   126.06808 amu.
 Principal axes and moments of inertia in atomic units:
                           1         2         3
     Eigenvalues --   591.972801439.285271852.82844
           X            0.99978   0.02036  -0.00590
           Y           -0.02014   0.99921   0.03416
           Z            0.00659  -0.03403   0.99940
 This molecule is an asymmetric top.
 Rotational symmetry number  1.
 Warning -- assumption of classical behavior for rotation
           may cause significant error
 Rotational temperatures (Kelvin)      0.14631     0.06018     0.04675
 Rotational constants (GHZ):           3.04869     1.25391     0.97405
 Zero-point vibrational energy     418869.2 (Joules/Mol)
                                  100.11215 (Kcal/Mol)
 Warning -- explicit consideration of  11 degrees of freedom as
           vibrations may cause significant error
 Vibrational temperatures:    100.24   187.27   330.26   367.55   409.83
          (Kelvin)            416.00   492.16   536.63   611.51   685.51
                              815.41   900.59  1004.18  1098.41  1152.93
                             1231.88  1325.98  1363.08  1406.62  1460.17
                             1475.75  1560.49  1597.66  1653.77  1688.08
                             1748.99  1796.91  1842.18  1875.14  1912.42
                             1935.05  1949.55  2008.54  2025.42  2053.15
                             2116.39  2152.21  2160.33  2164.54  2418.74
                             2552.55  4270.35  4289.85  4331.58  4366.15
                             4418.88  4460.59  4465.78  4476.32  4519.40
                             4573.68

 Zero-point correction=                           0.159539 (Hartree/Particle)
 Thermal correction to Energy=                    0.168036
 Thermal correction to Enthalpy=                  0.168981
 Thermal correction to Gibbs Free Energy=         0.126375
 Sum of electronic and zero-point Energies=           -423.043454
 Sum of electronic and thermal Energies=              -423.034956
 Sum of electronic and thermal Enthalpies=            -423.034012
 Sum of electronic and thermal Free Energies=         -423.076618

                     E (Thermal)             CV                S
                      KCal/Mol        Cal/Mol-Kelvin    Cal/Mol-Kelvin
 Total                  105.444             32.266             89.672
 Electronic               0.000              0.000              0.000
 Translational            0.889              2.981             40.409
 Rotational               0.889              2.981             28.847
 Vibrational            103.667             26.305             20.416
 Vibration     1          0.598              1.969              4.163
 Vibration     2          0.612              1.923              2.944
 Vibration     3          0.652              1.796              1.883
 Vibration     4          0.666              1.754              1.693
 Vibration     5          0.683              1.702              1.504
 Vibration     6          0.686              1.694              1.479
 Vibration     7          0.721              1.591              1.202
 Vibration     8          0.744              1.528              1.068
 Vibration     9          0.787              1.416              0.875
 Vibration    10          0.833              1.302              0.720
 Vibration    11          0.923              1.103              0.511

 Optimization completed.
    -- Stationary point found.
 Normal termination of Gaussian 09 at Tue Jan 28 08:55:38 2020.
