 Gaussian 09, Revision D.01,
 Gaussian 09:  ES64L-G09RevD.01 24-Apr-2013

 -----------------------------
 # b3lyp 6-31G(2df,p) opt Freq
 -----------------------------

 -----
 titel
 -----
 Symbolic Z-matrix:
 Charge =  0 Multiplicity = 1

 SCF Done:  E(RB3LYP) =  -423.134227710     A.U. after   13 cycles
 Optimization completed.
    -- Stationary point found.
 Normal termination of Gaussian 09 at Mon Jan 27 18:45:09 2020.

 ----------------------------------------------------------------------
 #N Geom=AllCheck Guess=TCheck SCRF=Check GenChk RB3LYP/6-31G(2df,p) Fr
 eq
 ----------------------------------------------------------------------

 Structure from the checkpoint file:  "/scratch/puck/g09_c916d9d6-ec85-410e-b342-23ce236d6f05/Gau-54555.chk"
 -----
 titel
 -----
 Charge =  0 Multiplicity = 1

                         Standard orientation:
 ---------------------------------------------------------------------
 Center     Atomic      Atomic             Coordinates (Angstroms)
 Number     Number       Type             X           Y           Z
 ---------------------------------------------------------------------
      1          8           0       -0.606388    1.877032   -0.545295
      2          6           0       -0.612261    0.604028    0.013131
      3          6           0       -1.937667    0.020680    0.540766
      4          8           0       -1.698146   -1.249596   -0.097254
      5          6           0       -0.469310   -0.800188   -0.701505
      6          6           0        0.752127   -1.118623    0.169929
      7          6           0        2.088359   -0.631362   -0.450417
      8          6           0        1.952164    0.730842    0.291616
      9          6           0        0.601063    0.280938    0.901972
     10          1           0       -1.371637    1.966940   -1.123712
     11          1           0       -2.051581   -0.062736    1.628829
     12          1           0       -2.828698    0.519062    0.127793
     13          1           0       -0.428326   -0.996867   -1.777635
     14          1           0        0.734951   -2.080901    0.681359
     15          1           0        2.954098   -1.219497   -0.138358
     16          1           0        2.094224   -0.580639   -1.543815
     17          1           0        2.724566    0.883838    1.048546
     18          1           0        1.897468    1.624126   -0.332992
     19          1           0        0.464359    0.409287    1.977425
 ---------------------------------------------------------------------

 SCF Done:  E(RB3LYP) =  -423.134227710     A.U. after    1 cycles

 The electronic state is 1-A.
 Alpha  occ. eigenvalues --  -19.15255 -19.13359 -10.24031 -10.22933 -10.22505
 Alpha  occ. eigenvalues --  -10.18509 -10.18378 -10.18057 -10.17719  -1.05095
 Alpha  occ. eigenvalues --   -1.02494  -0.85842  -0.73525  -0.70711  -0.65769
 Alpha  occ. eigenvalues --   -0.61393  -0.57649  -0.53249  -0.51023  -0.50344
 Alpha  occ. eigenvalues --   -0.48734  -0.43582  -0.42797  -0.40450  -0.40042
 Alpha  occ. eigenvalues --   -0.38016  -0.37368  -0.34453  -0.32839  -0.31497
 Alpha  occ. eigenvalues --   -0.29343  -0.28155  -0.25410  -0.23885
 Alpha virt. eigenvalues --    0.05763   0.08075   0.09786   0.10732   0.11898
 Alpha virt. eigenvalues --    0.12725   0.14290   0.15533   0.16178   0.17045
 Alpha virt. eigenvalues --    0.18343   0.19013   0.19833   0.22106   0.23335

 Mulliken charges:
               1
     1  O   -0.469915
     2  C    0.345344
     3  C   -0.140658
     4  O   -0.290217
     5  C    0.025640
     6  C   -0.036225
     7  C   -0.237546
     8  C   -0.232505
     9  C   -0.070385
    10  H    0.284132
    11  H    0.105011
    12  H    0.086233
    13  H    0.072752
    14  H    0.075131
    15  H    0.104130
    16  H    0.097219
    17  H    0.099189
    18  H    0.118014
    19  H    0.064654
 Sum of Mulliken charges =   0.00000

 Dipole moment (field-independent basis, Debye):
    X=              0.0753    Y=              0.7342    Z=             -0.2702  Tot=              0.7859
 Quadrupole moment (field-independent basis, Debye-Ang):
   XX=            -51.5652   YY=            -57.3122   ZZ=            -50.1628
   XY=             -5.7022   XZ=              1.3877   YZ=             -1.1495

  Exact polarizability:  84.848  -3.284  69.993  -0.856   0.995  68.097
 Approx polarizability: 110.865  -2.431 107.002  -0.596   1.601 103.891

                      1                      2                      3
                      A                      A                      A
 Frequencies --     80.5931               192.4542               239.4342
 Red. masses --      2.4918                 2.6003                 3.4576
 Frc consts  --      0.0095                 0.0567                 0.1168
 IR Inten    --      0.8841                 5.2495                 0.3308

                      4                      5                      6
                      A                      A                      A
 Frequencies --    268.3701               322.2149               369.9466
 Red. masses --      1.8549                 1.3860                 2.8616
 Frc consts  --      0.0787                 0.0848                 0.2307
 IR Inten    --      8.8792                66.7534                 9.4712

                      7                      8                      9
                      A                      A                      A
 Frequencies --    419.2937               452.7471               603.4099
 Red. masses --      4.0698                 4.1744                 3.5970
 Frc consts  --      0.4216                 0.5041                 0.7716
 IR Inten    --     18.9844                 4.9868                 1.9454

                     10                     11                     12
                      A                      A                      A
 Frequencies --    662.0908               741.4939               795.7511
 Red. masses --      3.4741                 1.2953                 2.2723
 Frc consts  --      0.8973                 0.4196                 0.8478
 IR Inten    --      3.3757                 6.6977                 2.8256

                     13                     14                     15
                      A                      A                      A
 Frequencies --    824.8339               833.2870               881.7336
 Red. masses --      3.1821                 2.0744                 2.1858
 Frc consts  --      1.2756                 0.8487                 1.0012
 IR Inten    --      1.3459                 4.5280                14.0634

                     16                     17                     18
                      A                      A                      A
 Frequencies --    944.3649               956.5917               974.5918
 Red. masses --      2.2176                 2.4023                 2.9039
 Frc consts  --      1.1652                 1.2952                 1.6251
 IR Inten    --      3.9731                 1.6930                 8.1535

                     19                     20                     21
                      A                      A                      A
 Frequencies --    987.0446              1010.7776              1027.5925
 Red. masses --      1.6839                 2.7139                 2.6373
 Frc consts  --      0.9666                 1.6336                 1.6408
 IR Inten    --      5.1628                19.4833                 0.5917

                     22                     23                     24
                      A                      A                      A
 Frequencies --   1032.1262              1090.9477              1092.3376
 Red. masses --      4.7980                 2.2381                 1.9133
 Frc consts  --      3.0115                 1.5694                 1.3451
 IR Inten    --     77.0912                 2.4038                35.5463

                     25                     26                     27
                      A                      A                      A
 Frequencies --   1129.2267              1132.0245              1151.3490
 Red. masses --      1.7670                 1.8403                 1.1992
 Frc consts  --      1.3276                 1.3895                 0.9366
 IR Inten    --      7.4887                 7.7962                 6.8918

                     28                     29                     30
                      A                      A                      A
 Frequencies --   1193.9256              1206.4558              1232.7910
 Red. masses --      1.7085                 1.4587                 1.4162
 Frc consts  --      1.4349                 1.2510                 1.2681
 IR Inten    --      4.4366                 4.9494                10.5218

                     31                     32                     33
                      A                      A                      A
 Frequencies --   1255.5413              1264.3538              1278.0977
 Red. masses --      1.4288                 1.5476                 1.5885
 Frc consts  --      1.3270                 1.4577                 1.5289
 IR Inten    --     33.6631                 1.5220                26.1170

                     34                     35                     36
                      A                      A                      A
 Frequencies --   1285.5569              1298.4824              1310.8312
 Red. masses --      1.7701                 1.4062                 1.5794
 Frc consts  --      1.7235                 1.3969                 1.5990
 IR Inten    --     52.9806                15.2325                 9.6664

                     37                     38                     39
                      A                      A                      A
 Frequencies --   1364.2644              1391.1896              1476.8292
 Red. masses --      1.8006                 2.0070                 1.0814
 Frc consts  --      1.9745                 2.2886                 1.3896
 IR Inten    --     34.3541                 6.2361                 0.7492

                     40                     41                     42
                      A                      A                      A
 Frequencies --   1494.6459              1514.8601              2977.1524
 Red. masses --      1.1108                 1.1040                 1.0634
 Frc consts  --      1.4621                 1.4927                 5.5535
 IR Inten    --      2.5411                 0.8786                89.7810

                     43                     44                     45
                      A                      A                      A
 Frequencies --   3044.0047              3050.4681              3059.3634
 Red. masses --      1.1008                 1.0622                 1.0870
 Frc consts  --      6.0097                 5.8237                 5.9945
 IR Inten    --     42.6160                30.8905                61.6790

                     46                     47                     48
                      A                      A                      A
 Frequencies --   3069.5558              3086.7740              3099.2718
 Red. masses --      1.0633                 1.0858                 1.1030
 Frc consts  --      5.9028                 6.0956                 6.2422
 IR Inten    --     29.6668                39.8238                 8.2947

                     49                     50                     51
                      A                      A                      A
 Frequencies --   3115.1163              3128.3482              3803.5055
 Red. masses --      1.0917                 1.1057                 1.0658
 Frc consts  --      6.2417                 6.3755                 9.0846
 IR Inten    --     22.4109                34.5204                19.7686

 - Thermochemistry -
 -------------------
 Temperature   298.150 Kelvin.  Pressure   1.00000 Atm.
 Atom     1 has atomic number  8 and mass  15.99491

 Molecular mass:   126.06808 amu.
 Principal axes and moments of inertia in atomic units:
                           1         2         3
     Eigenvalues --   637.315941056.902011386.58842
           X            0.99933  -0.03593  -0.00661
           Y            0.03596   0.99934   0.00423
           Z            0.00645  -0.00446   0.99997
 This molecule is an asymmetric top.
 Rotational symmetry number  1.
 Warning -- assumption of classical behavior for rotation
           may cause significant error
 Rotational temperatures (Kelvin)      0.13590     0.08195     0.06247
 Rotational constants (GHZ):           2.83178     1.70758     1.30157
 Zero-point vibrational energy     419997.0 (Joules/Mol)
                                  100.38169 (Kcal/Mol)
 Warning -- explicit consideration of   9 degrees of freedom as
           vibrations may cause significant error
 Vibrational temperatures:    115.96   276.90   344.49   386.12   463.59
          (Kelvin)            532.27   603.27   651.40   868.17   952.60
                             1066.84  1144.91  1186.75  1198.91  1268.62
                             1358.73  1376.32  1402.22  1420.14  1454.28
                             1478.47  1485.00  1569.63  1571.63  1624.70
                             1628.73  1656.53  1717.79  1735.82  1773.71
                             1806.44  1819.12  1838.90  1849.63  1868.22
                             1885.99  1962.87  2001.61  2124.83  2150.46
                             2179.54  4283.45  4379.64  4388.94  4401.74
                             4416.40  4441.17  4459.16  4481.95  4500.99
                             5472.39

 Zero-point correction=                           0.159968 (Hartree/Particle)
 Thermal correction to Energy=                    0.167594
 Thermal correction to Enthalpy=                  0.168538
 Thermal correction to Gibbs Free Energy=         0.127950
 Sum of electronic and zero-point Energies=           -422.974259
 Sum of electronic and thermal Energies=              -422.966634
 Sum of electronic and thermal Enthalpies=            -422.965689
 Sum of electronic and thermal Free Energies=         -423.006278

                     E (Thermal)             CV                S
                      KCal/Mol        Cal/Mol-Kelvin    Cal/Mol-Kelvin
 Total                  105.167             30.348             85.426
 Electronic               0.000              0.000              0.000
 Translational            0.889              2.981             40.409
 Rotational               0.889              2.981             28.326
 Vibrational            103.389             24.386             16.691
 Vibration     1          0.600              1.962              3.876
 Vibration     2          0.634              1.850              2.204
 Vibration     3          0.657              1.780              1.807
 Vibration     4          0.673              1.731              1.607
 Vibration     5          0.707              1.631              1.299
 Vibration     6          0.742              1.534              1.080
 Vibration     7          0.782              1.428              0.894
 Vibration     8          0.811              1.355              0.788
 Vibration     9          0.962              1.025              0.444

 Normal termination of Gaussian 09 at Mon Jan 27 19:30:12 2020.
