 Gaussian 09, Revision D.01,
 Gaussian 09:  ES64L-G09RevD.01 24-Apr-2013

 -----------------------------
 # b3lyp 6-31G(2df,p) opt Freq
 -----------------------------

 -----
 titel
 -----
 Symbolic Z-matrix:
 Charge =  0 Multiplicity = 1

 SCF Done:  E(RB3LYP) =  -423.209736440     A.U. after   13 cycles
 Optimization completed.
    -- Stationary point found.
 Normal termination of Gaussian 09 at Tue Jan 28 08:09:04 2020.

 ----------------------------------------------------------------------
 #N Geom=AllCheck Guess=TCheck SCRF=Check GenChk RB3LYP/6-31G(2df,p) Fr
 eq
 ----------------------------------------------------------------------

 Structure from the checkpoint file:  "/scratch/puck/g09_dbe60773-1008-482b-9b69-0eff2104d368/Gau-127966.chk"
 -----
 titel
 -----
 Charge =  0 Multiplicity = 1

                         Standard orientation:
 ---------------------------------------------------------------------
 Center     Atomic      Atomic             Coordinates (Angstroms)
 Number     Number       Type             X           Y           Z
 ---------------------------------------------------------------------
      1          6           0        2.811730   -0.830542    0.677684
      2          6           0        2.302792    0.007481   -0.512760
      3          6           0        0.998418    0.697494   -0.179900
      4          8           0        0.910926    1.866283    0.120489
      5          6           0       -0.278384   -0.184216   -0.220987
      6          8           0       -0.191888   -1.348828   -0.558997
      7          6           0       -1.544376    0.474977    0.160801
      8          6           0       -2.814024   -0.005637   -0.535953
      9          6           0       -2.580937   -0.383269    0.881602
     10          1           0        2.102252   -1.623240    0.925944
     11          1           0        3.767956   -1.296435    0.424957
     12          1           0        2.963203   -0.204757    1.562356
     13          1           0        3.027232    0.783277   -0.772792
     14          1           0        2.147987   -0.650545   -1.372474
     15          1           0       -1.466362    1.519519    0.427123
     16          1           0       -3.555638    0.749866   -0.767536
     17          1           0       -2.672055   -0.772787   -1.288762
     18          1           0       -3.156024    0.103065    1.660843
     19          1           0       -2.282168   -1.405331    1.085484
 ---------------------------------------------------------------------

 SCF Done:  E(RB3LYP) =  -423.209736440     A.U. after    1 cycles

 The electronic state is 1-A.
 Alpha  occ. eigenvalues --  -19.15078 -19.14525 -10.27766 -10.27610 -10.20373
 Alpha  occ. eigenvalues --  -10.20323 -10.20280 -10.19363 -10.18714  -1.06294
 Alpha  occ. eigenvalues --   -1.04677  -0.86969  -0.78461  -0.69813  -0.65490
 Alpha  occ. eigenvalues --   -0.61201  -0.58602  -0.53153  -0.50150  -0.47740
 Alpha  occ. eigenvalues --   -0.46567  -0.45489  -0.43469  -0.42675  -0.39896
 Alpha  occ. eigenvalues --   -0.39419  -0.37922  -0.37195  -0.35700  -0.35463
 Alpha  occ. eigenvalues --   -0.31982  -0.30569  -0.29913  -0.23520
 Alpha virt. eigenvalues --   -0.07965   0.03437   0.09537   0.11162   0.11878
 Alpha virt. eigenvalues --    0.13958   0.14557   0.14880   0.16280   0.16677
 Alpha virt. eigenvalues --    0.17221   0.18092   0.20115   0.21547   0.22251

 Mulliken charges:
               1
     1  C   -0.391022
     2  C   -0.265946
     3  C    0.297780
     4  O   -0.283919
     5  C    0.276451
     6  O   -0.324803
     7  C   -0.107235
     8  C   -0.249232
     9  C   -0.248922
    10  H    0.143765
    11  H    0.126691
    12  H    0.129265
    13  H    0.119157
    14  H    0.130754
    15  H    0.120803
    16  H    0.125233
    17  H    0.138483
    18  H    0.125127
    19  H    0.137568
 Sum of Mulliken charges =   0.00000

 Dipole moment (field-independent basis, Debye):
    X=             -0.5189    Y=             -0.2309    Z=              0.2768  Tot=              0.6318
 Quadrupole moment (field-independent basis, Debye-Ang):
   XX=            -46.1457   YY=            -60.0479   ZZ=            -51.7212
   XY=             -3.4816   XZ=             -1.1352   YZ=             -1.7227

  Exact polarizability:  97.120  -2.516  74.345  -2.090   1.669  62.656
 Approx polarizability: 117.623  -3.783 129.629  -3.711   9.192  95.012

                      1                      2                      3
                      A                      A                      A
 Frequencies --     40.0269                58.2646                72.5864
 Red. masses --      4.6172                 2.4235                 3.6508
 Frc consts  --      0.0044                 0.0048                 0.0113
 IR Inten    --      4.2144                 0.5493                 0.3124

                      4                      5                      6
                      A                      A                      A
 Frequencies --    168.7501               203.7905               228.5339
 Red. masses --      2.6134                 3.2221                 1.3456
 Frc consts  --      0.0438                 0.0788                 0.0414
 IR Inten    --      3.9439                 4.2663                 0.3694

                      7                      8                      9
                      A                      A                      A
 Frequencies --    248.4054               293.7906               349.0452
 Red. masses --      2.7124                 5.1675                 3.1009
 Frc consts  --      0.0986                 0.2628                 0.2226
 IR Inten    --      0.8356                19.2088                 0.7788

                     10                     11                     12
                      A                      A                      A
 Frequencies --    493.1297               533.8461               571.9095
 Red. masses --      6.4326                 5.7164                 3.1661
 Frc consts  --      0.9216                 0.9598                 0.6101
 IR Inten    --      5.9020                 1.9006                29.3829

                     13                     14                     15
                      A                      A                      A
 Frequencies --    735.5210               782.9423               808.2084
 Red. masses --      2.0404                 2.4404                 1.2014
 Frc consts  --      0.6504                 0.8814                 0.4624
 IR Inten    --      4.6378                 1.2224                 0.1329

                     16                     17                     18
                      A                      A                      A
 Frequencies --    813.0150               831.4853               862.7813
 Red. masses --      2.0551                 1.8069                 2.8346
 Frc consts  --      0.8004                 0.7360                 1.2432
 IR Inten    --      1.6314                 2.2728                 7.7244

                     19                     20                     21
                      A                      A                      A
 Frequencies --    904.2412               938.8110              1005.5921
 Red. masses --      1.8246                 2.6789                 3.1242
 Frc consts  --      0.8790                 1.3911                 1.8614
 IR Inten    --      3.0305               116.2057                72.0763

                     22                     23                     24
                      A                      A                      A
 Frequencies --   1062.3677              1072.9091              1096.5489
 Red. masses --      1.2504                 1.7525                 1.3326
 Frc consts  --      0.8315                 1.1886                 0.9441
 IR Inten    --      9.7793                 4.1669                 2.5773

                     25                     26                     27
                      A                      A                      A
 Frequencies --   1099.0987              1114.4711              1143.4450
 Red. masses --      1.6686                 1.5745                 1.0958
 Frc consts  --      1.1876                 1.1522                 0.8441
 IR Inten    --     34.3766                 3.4088                 1.6498

                     28                     29                     30
                      A                      A                      A
 Frequencies --   1211.6506              1215.9342              1227.0384
 Red. masses --      1.3659                 1.9531                 2.5084
 Frc consts  --      1.1815                 1.7013                 2.2252
 IR Inten    --      0.4036                 1.4013                 6.9816

                     31                     32                     33
                      A                      A                      A
 Frequencies --   1292.8984              1330.5342              1400.3300
 Red. masses --      1.2851                 1.5296                 1.2255
 Frc consts  --      1.2656                 1.5955                 1.4159
 IR Inten    --     16.5320                 9.1621                 6.5764

                     34                     35                     36
                      A                      A                      A
 Frequencies --   1411.2959              1456.2156              1464.0324
 Red. masses --      2.0606                 1.0892                 1.0994
 Frc consts  --      2.4181                 1.3608                 1.3883
 IR Inten    --     61.2132                 2.5853                 6.8024

                     37                     38                     39
                      A                      A                      A
 Frequencies --   1486.3473              1499.7191              1509.0675
 Red. masses --      1.3519                 1.0426                 1.0559
 Frc consts  --      1.7597                 1.3816                 1.4168
 IR Inten    --     15.7827                 6.2760                 5.0216

                     40                     41                     42
                      A                      A                      A
 Frequencies --   1770.5857              1800.0293              3046.9121
 Red. masses --     11.4362                11.9479                 1.0346
 Frc consts  --     21.1234                22.8088                 5.6593
 IR Inten    --    100.9051               109.9915                20.7070

                     43                     44                     45
                      A                      A                      A
 Frequencies --   3062.3522              3111.3580              3121.3117
 Red. masses --      1.0567                 1.1029                 1.1034
 Frc consts  --      5.8386                 6.2903                 6.3338
 IR Inten    --      9.8896                 6.5727                13.9982

                     46                     47                     48
                      A                      A                      A
 Frequencies --   3137.4367              3140.9057              3142.4767
 Red. masses --      1.1036                 1.0490                 1.0576
 Frc consts  --      6.4007                 6.0974                 6.1536
 IR Inten    --     22.6334                13.2525                 8.3441

                     49                     50                     51
                      A                      A                      A
 Frequencies --   3221.0687              3228.0629              3243.9368
 Red. masses --      1.0914                 1.1192                 1.1148
 Frc consts  --      6.6718                 6.8714                 6.9120
 IR Inten    --      0.5043                 0.2345                 4.8960

 - Thermochemistry -
 -------------------
 Temperature   298.150 Kelvin.  Pressure   1.00000 Atm.
 Atom     1 has atomic number  6 and mass  12.00000

 Molecular mass:   126.06808 amu.
 Principal axes and moments of inertia in atomic units:
                           1         2         3
     Eigenvalues --   552.995821814.706532080.06402
           X            0.99975  -0.02208   0.00229
           Y            0.02214   0.99923  -0.03233
           Z           -0.00157   0.03237   0.99947
 This molecule is an asymmetric top.
 Rotational symmetry number  1.
 Warning -- assumption of classical behavior for rotation
           may cause significant error
 Rotational temperatures (Kelvin)      0.15663     0.04773     0.04164
 Rotational constants (GHZ):           3.26357     0.99451     0.86764
 Zero-point vibrational energy     413100.5 (Joules/Mol)
                                   98.73340 (Kcal/Mol)
 Warning -- explicit consideration of  12 degrees of freedom as
           vibrations may cause significant error
 Vibrational temperatures:     57.59    83.83   104.44   242.79   293.21
          (Kelvin)            328.81   357.40   422.70   502.20   709.50
                              768.08   822.85  1058.25  1126.48  1162.83
                             1169.75  1196.32  1241.35  1301.00  1350.74
                             1446.82  1528.51  1543.68  1577.69  1581.36
                             1603.47  1645.16  1743.29  1749.46  1765.43
                             1860.19  1914.34  2014.76  2030.54  2095.17
                             2106.41  2138.52  2157.76  2171.21  2547.47
                             2589.84  4383.82  4406.04  4476.54  4490.87
                             4514.07  4519.06  4521.32  4634.39  4644.46
                             4667.30

 Zero-point correction=                           0.157342 (Hartree/Particle)
 Thermal correction to Energy=                    0.167069
 Thermal correction to Enthalpy=                  0.168013
 Thermal correction to Gibbs Free Energy=         0.121366
 Sum of electronic and zero-point Energies=           -423.052395
 Sum of electronic and thermal Energies=              -423.042667
 Sum of electronic and thermal Enthalpies=            -423.041723
 Sum of electronic and thermal Free Energies=         -423.088370

                     E (Thermal)             CV                S
                      KCal/Mol        Cal/Mol-Kelvin    Cal/Mol-Kelvin
 Total                  104.837             34.354             98.177
 Electronic               0.000              0.000              0.000
 Translational            0.889              2.981             40.409
 Rotational               0.889              2.981             29.125
 Vibrational            103.060             28.392             28.644
 Vibration     1          0.594              1.981              5.258
 Vibration     2          0.596              1.974              4.515
 Vibration     3          0.599              1.967              4.082
 Vibration     4          0.625              1.881              2.449
 Vibration     5          0.639              1.835              2.099
 Vibration     6          0.651              1.797              1.890
 Vibration     7          0.662              1.765              1.742
 Vibration     8          0.689              1.685              1.452
 Vibration     9          0.726              1.577              1.171
 Vibration    10          0.849              1.265              0.676
 Vibration    11          0.889              1.175              0.579
 Vibration    12          0.928              1.092              0.501

 Optimization completed.
    -- Stationary point found.
 Normal termination of Gaussian 09 at Tue Jan 28 08:46:23 2020.
