 Gaussian 09, Revision D.01,
 Gaussian 09:  ES64L-G09RevD.01 24-Apr-2013

 -----------------------------
 # b3lyp 6-31G(2df,p) opt Freq
 -----------------------------

 -----
 titel
 -----
 Symbolic Z-matrix:
 Charge =  0 Multiplicity = 1

 SCF Done:  E(RB3LYP) =  -423.203336053     A.U. after   14 cycles
 SCF Done:  E(RB3LYP) =  -423.203336296     A.U. after    7 cycles
 SCF Done:  E(RB3LYP) =  -423.203335832     A.U. after    7 cycles
 SCF Done:  E(RB3LYP) =  -423.203336480     A.U. after    7 cycles
 Optimization completed.
    -- Stationary point found.
 Normal termination of Gaussian 09 at Mon Jan 27 17:20:04 2020.

 ----------------------------------------------------------------------
 #N Geom=AllCheck Guess=TCheck SCRF=Check GenChk RB3LYP/6-31G(2df,p) Fr
 eq
 ----------------------------------------------------------------------

 Structure from the checkpoint file:  "/scratch/puck/g09_adca3e68-0de6-42e6-9138-696d63c46806/Gau-62502.chk"
 -----
 titel
 -----
 Charge =  0 Multiplicity = 1

                         Standard orientation:
 ---------------------------------------------------------------------
 Center     Atomic      Atomic             Coordinates (Angstroms)
 Number     Number       Type             X           Y           Z
 ---------------------------------------------------------------------
      1          6           0       -2.056284   -1.338151    0.003399
      2          6           0       -0.760819   -0.569016    0.004931
      3          6           0        0.371298   -0.761398    1.078799
      4          6           0        1.247865   -0.052615   -0.000693
      5          8           0        2.628634   -0.204451   -0.079119
      6          6           0        0.382567   -0.776633   -1.055456
      7          6           0        0.651789    1.370475   -0.011892
      8          6           0       -0.835428    0.955162   -0.005529
      9          8           0       -1.812595    1.654307   -0.007452
     10          1           0       -2.661219   -1.078998    0.878021
     11          1           0       -2.649214   -1.096426   -0.884412
     12          1           0       -1.878953   -2.417659    0.015071
     13          1           0        0.245908   -0.285796    2.056535
     14          1           0        0.635675   -1.815199    1.192851
     15          1           0        3.039675    0.366942    0.578472
     16          1           0        0.271495   -0.318118   -2.042216
     17          1           0        0.648754   -1.831923   -1.149257
     18          1           0        0.903354    1.966268    0.872754
     19          1           0        0.910285    1.945121   -0.906603
 ---------------------------------------------------------------------

 SCF Done:  E(RB3LYP) =  -423.203336480     A.U. after    1 cycles

 The electronic state is 1-A.
 Alpha  occ. eigenvalues --  -19.15110 -19.13081 -10.26619 -10.25280 -10.20855
 Alpha  occ. eigenvalues --  -10.19487 -10.19410 -10.19209 -10.17956  -1.04294
 Alpha  occ. eigenvalues --   -1.03692  -0.89614  -0.75056  -0.71320  -0.67734
 Alpha  occ. eigenvalues --   -0.63719  -0.57325  -0.51819  -0.49975  -0.48825
 Alpha  occ. eigenvalues --   -0.46477  -0.44345  -0.42745  -0.42232  -0.39604
 Alpha  occ. eigenvalues --   -0.38149  -0.37917  -0.37518  -0.36073  -0.35211
 Alpha  occ. eigenvalues --   -0.31834  -0.31097  -0.27083  -0.23711
 Alpha virt. eigenvalues --   -0.00805   0.06525   0.08826   0.11292   0.12385
 Alpha virt. eigenvalues --    0.13794   0.14926   0.15233   0.15635   0.16425
 Alpha virt. eigenvalues --    0.16956   0.19956   0.20573   0.21226   0.21781

 Mulliken charges:
               1
     1  C   -0.496800
     2  C    0.206540
     3  C   -0.335433
     4  C    0.419986
     5  O   -0.482383
     6  C   -0.303681
     7  C   -0.407054
     8  C    0.413792
     9  O   -0.338374
    10  H    0.130879
    11  H    0.131208
    12  H    0.113882
    13  H    0.096375
    14  H    0.110678
    15  H    0.280664
    16  H    0.103690
    17  H    0.112865
    18  H    0.114716
    19  H    0.128451
 Sum of Mulliken charges =   0.00000

 Dipole moment (field-independent basis, Debye):
    X=              1.7109    Y=             -0.9715    Z=              0.9057  Tot=              2.1659
 Quadrupole moment (field-independent basis, Debye-Ang):
   XX=            -58.2445   YY=            -54.9751   ZZ=            -50.8397
   XY=              8.0927   XZ=              3.3830   YZ=              0.5489

  Exact polarizability:  83.374   1.211  76.492   1.135   0.612  66.356
 Approx polarizability: 119.820  -6.817 112.593   0.980   1.446 102.666

                      1                      2                      3
                      A                      A                      A
 Frequencies --    128.8637               176.1164               230.3681
 Red. masses --      3.0943                 1.1398                 2.3282
 Frc consts  --      0.0303                 0.0208                 0.0728
 IR Inten    --      5.2157                 0.7250                13.4906

                      4                      5                      6
                      A                      A                      A
 Frequencies --    244.1655               258.5813               317.1877
 Red. masses --      1.4058                 2.4185                 4.4173
 Frc consts  --      0.0494                 0.0953                 0.2618
 IR Inten    --     37.0007                18.6235                38.1097

                      7                      8                      9
                      A                      A                      A
 Frequencies --    363.0285               451.5643               498.0528
 Red. masses --      2.2458                 2.2427                 2.7807
 Frc consts  --      0.1744                 0.2694                 0.4064
 IR Inten    --      1.1663                 3.4978                 1.3662

                     10                     11                     12
                      A                      A                      A
 Frequencies --    502.8398               551.9806               604.7123
 Red. masses --      2.7011                 4.8235                 4.0366
 Frc consts  --      0.4024                 0.8659                 0.8697
 IR Inten    --      0.7252                 9.0863                 1.4566

                     13                     14                     15
                      A                      A                      A
 Frequencies --    628.7651               691.9268               763.9128
 Red. masses --      2.3882                 2.9256                 3.0041
 Frc consts  --      0.5563                 0.8253                 1.0329
 IR Inten    --      0.6412                 0.8862                10.2064

                     16                     17                     18
                      A                      A                      A
 Frequencies --    795.5679               856.4829               918.6786
 Red. masses --      2.8210                 3.0986                 1.7446
 Frc consts  --      1.0520                 1.3392                 0.8675
 IR Inten    --      0.5744                 4.6151                 0.7678

                     19                     20                     21
                      A                      A                      A
 Frequencies --    956.3199               988.5911               998.9122
 Red. masses --      1.5664                 1.9794                 1.3600
 Frc consts  --      0.8440                 1.1398                 0.7995
 IR Inten    --      2.1453                 1.0414                 5.6990

                     22                     23                     24
                      A                      A                      A
 Frequencies --   1025.6510              1060.6762              1066.9464
 Red. masses --      1.6514                 1.5921                 2.9011
 Frc consts  --      1.0235                 1.0553                 1.9458
 IR Inten    --      8.7770                 5.7771                37.7185

                     25                     26                     27
                      A                      A                      A
 Frequencies --   1110.6146              1118.1133              1158.3588
 Red. masses --      1.6463                 1.8940                 1.3654
 Frc consts  --      1.1964                 1.3951                 1.0794
 IR Inten    --      0.2611                91.7832                 2.7158

                     28                     29                     30
                      A                      A                      A
 Frequencies --   1193.1459              1195.3433              1214.0468
 Red. masses --      1.5398                 1.5899                 2.4613
 Frc consts  --      1.2915                 1.3384                 2.1374
 IR Inten    --      3.3050                 5.8037                 4.6076

                     31                     32                     33
                      A                      A                      A
 Frequencies --   1241.3408              1321.8953              1346.1217
 Red. masses --      1.9333                 2.6309                 3.0366
 Frc consts  --      1.7553                 2.7086                 3.2420
 IR Inten    --     32.6240               177.5244                 0.1571

                     34                     35                     36
                      A                      A                      A
 Frequencies --   1386.8818              1419.5407              1462.0601
 Red. masses --      1.9563                 1.3903                 1.1043
 Frc consts  --      2.2170                 1.6506                 1.3907
 IR Inten    --      8.2371                 0.3529                 3.9982

                     37                     38                     39
                      A                      A                      A
 Frequencies --   1484.1417              1488.5235              1489.6884
 Red. masses --      1.0943                 1.0445                 1.0501
 Frc consts  --      1.4202                 1.3635                 1.3730
 IR Inten    --      1.2482                 5.0365                 6.0880

                     40                     41                     42
                      A                      A                      A
 Frequencies --   1528.9202              1864.2094              3038.4160
 Red. masses --      1.1878                12.6597                 1.0355
 Frc consts  --      1.6359                25.9217                 5.6322
 IR Inten    --      5.1737               240.8527                21.6509

                     43                     44                     45
                      A                      A                      A
 Frequencies --   3044.9185              3049.5697              3057.9541
 Red. masses --      1.0595                 1.0572                 1.0584
 Frc consts  --      5.7877                 5.7927                 5.8312
 IR Inten    --     16.3420                45.4463                10.3128

                     46                     47                     48
                      A                      A                      A
 Frequencies --   3097.9531              3106.7048              3110.3272
 Red. masses --      1.1034                 1.1005                 1.1022
 Frc consts  --      6.2393                 6.2582                 6.2824
 IR Inten    --      9.4185                14.0783                12.3706

                     49                     50                     51
                      A                      A                      A
 Frequencies --   3119.5688              3124.2865              3807.0554
 Red. masses --      1.1089                 1.1076                 1.0659
 Frc consts  --      6.3582                 6.3700                 9.1020
 IR Inten    --     14.6198                28.9640                22.4506

 - Thermochemistry -
 -------------------
 Temperature   298.150 Kelvin.  Pressure   1.00000 Atm.
 Atom     1 has atomic number  6 and mass  12.00000

 Molecular mass:   126.06808 amu.
 Principal axes and moments of inertia in atomic units:
                           1         2         3
     Eigenvalues --   648.087641175.732621522.76413
           X            0.99643   0.08410   0.00686
           Y           -0.08411   0.99645   0.00219
           Z           -0.00666  -0.00276   0.99997
 This molecule is an asymmetric top.
 Rotational symmetry number  1.
 Warning -- assumption of classical behavior for rotation
           may cause significant error
 Rotational temperatures (Kelvin)      0.13365     0.07367     0.05688
 Rotational constants (GHZ):           2.78472     1.53499     1.18517
 Zero-point vibrational energy     416656.9 (Joules/Mol)
                                   99.58339 (Kcal/Mol)
 Warning -- explicit consideration of  12 degrees of freedom as
           vibrations may cause significant error
 Vibrational temperatures:    185.41   253.39   331.45   351.30   372.04
          (Kelvin)            456.36   522.32   649.70   716.59   723.47
                              794.18   870.05   904.65   995.53  1099.10
                             1144.64  1232.29  1321.77  1375.93  1422.36
                             1437.21  1475.68  1526.07  1535.10  1597.92
                             1608.71  1666.62  1716.67  1719.83  1746.74
                             1786.01  1901.91  1936.77  1995.41  2042.40
                             2103.58  2135.35  2141.65  2143.33  2199.77
                             2682.18  4371.60  4380.95  4387.65  4399.71
                             4457.26  4469.85  4475.06  4488.36  4495.15
                             5477.50

 Zero-point correction=                           0.158696 (Hartree/Particle)
 Thermal correction to Energy=                    0.167041
 Thermal correction to Enthalpy=                  0.167985
 Thermal correction to Gibbs Free Energy=         0.126368
 Sum of electronic and zero-point Energies=           -423.044640
 Sum of electronic and thermal Energies=              -423.036296
 Sum of electronic and thermal Enthalpies=            -423.035352
 Sum of electronic and thermal Free Energies=         -423.076969

                     E (Thermal)             CV                S
                      KCal/Mol        Cal/Mol-Kelvin    Cal/Mol-Kelvin
 Total                  104.820             33.115             87.591
 Electronic               0.000              0.000              0.000
 Translational            0.889              2.981             40.409
 Rotational               0.889              2.981             28.541
 Vibrational            103.042             27.153             18.641
 Vibration     1          0.611              1.924              2.963
 Vibration     2          0.628              1.872              2.369
 Vibration     3          0.652              1.795              1.876
 Vibration     4          0.659              1.772              1.772
 Vibration     5          0.667              1.748              1.671
 Vibration     6          0.704              1.641              1.325
 Vibration     7          0.737              1.548              1.109
 Vibration     8          0.810              1.357              0.791
 Vibration     9          0.854              1.254              0.663
 Vibration    10          0.858              1.244              0.651
 Vibration    11          0.907              1.135              0.540
 Vibration    12          0.963              1.022              0.442

 Optimization completed.
    -- Stationary point found.
 Normal termination of Gaussian 09 at Mon Jan 27 18:02:08 2020.
