 Gaussian 09, Revision D.01,
 Gaussian 09:  ES64L-G09RevD.01 24-Apr-2013

 -----------------------------
 # b3lyp 6-31G(2df,p) opt Freq
 -----------------------------

 -----
 titel
 -----
 Symbolic Z-matrix:
 Charge =  0 Multiplicity = 1

 SCF Done:  E(RB3LYP) =  -423.101409745     A.U. after   14 cycles
 Optimization completed.
    -- Stationary point found.
 Normal termination of Gaussian 09 at Tue Jan 28 12:37:04 2020.

 ----------------------------------------------------------------------
 #N Geom=AllCheck Guess=TCheck SCRF=Check GenChk RB3LYP/6-31G(2df,p) Fr
 eq
 ----------------------------------------------------------------------

 Structure from the checkpoint file:  "/scratch/puck/g09_7235fa7a-b5fe-4659-9c4d-85a02c9274da/Gau-1445.chk"
 -----
 titel
 -----
 Charge =  0 Multiplicity = 1

                         Standard orientation:
 ---------------------------------------------------------------------
 Center     Atomic      Atomic             Coordinates (Angstroms)
 Number     Number       Type             X           Y           Z
 ---------------------------------------------------------------------
      1          6           0        0.379820    2.686576   -0.156348
      2          8           0        0.918814    1.400880    0.097311
      3          6           0       -0.016305    0.497526    0.564328
      4          6           0        0.217121   -0.952975    0.258137
      5          8           0        1.278136   -1.323385   -0.547532
      6          6           0        2.515879   -1.355653    0.148120
      7          6           0       -0.914820   -0.229808   -0.452208
      8          6           0       -2.284005   -0.515987   -0.156470
      9          6           0       -3.432980   -0.749390    0.114992
     10          1           0       -0.045963    3.130401    0.755288
     11          1           0        1.201784    3.313007   -0.508919
     12          1           0       -0.404176    2.647899   -0.924698
     13          1           0       -0.480183    0.750975    1.519086
     14          1           0       -0.056962   -1.671320    1.032599
     15          1           0        2.489779   -2.076065    0.979198
     16          1           0        3.272077   -1.675696   -0.571999
     17          1           0        2.777563   -0.365546    0.538497
     18          1           0       -0.669722    0.003601   -1.484755
     19          1           0       -4.448059   -0.958948    0.344154
 ---------------------------------------------------------------------

 SCF Done:  E(RB3LYP) =  -423.101409745     A.U. after    1 cycles

 The electronic state is 1-A.
 Alpha  occ. eigenvalues --  -19.15683 -19.14858 -10.24418 -10.24380 -10.23113
 Alpha  occ. eigenvalues --  -10.22254 -10.21017 -10.18041 -10.16874  -1.05891
 Alpha  occ. eigenvalues --   -1.03712  -0.85932  -0.74313  -0.70457  -0.68666
 Alpha  occ. eigenvalues --   -0.62611  -0.58247  -0.55107  -0.51686  -0.50308
 Alpha  occ. eigenvalues --   -0.46893  -0.46519  -0.45101  -0.43266  -0.42887
 Alpha  occ. eigenvalues --   -0.41725  -0.35933  -0.35629  -0.33556  -0.30433
 Alpha  occ. eigenvalues --   -0.28474  -0.27365  -0.24775  -0.23122
 Alpha virt. eigenvalues --    0.04931   0.05079   0.08164   0.10544   0.12489
 Alpha virt. eigenvalues --    0.13044   0.13357   0.14026   0.14988   0.15680
 Alpha virt. eigenvalues --    0.16584   0.17814   0.17889   0.18894   0.19456

 Mulliken charges:
               1
     1  C   -0.235531
     2  O   -0.230942
     3  C    0.058892
     4  C    0.065768
     5  O   -0.235885
     6  C   -0.236477
     7  C   -0.311118
     8  C    0.316659
     9  C   -0.443851
    10  H    0.112553
    11  H    0.131845
    12  H    0.118612
    13  H    0.100300
    14  H    0.101248
    15  H    0.104719
    16  H    0.128737
    17  H    0.131444
    18  H    0.129396
    19  H    0.193631
 Sum of Mulliken charges =   0.00000

 Dipole moment (field-independent basis, Debye):
    X=              0.2912    Y=              1.0501    Z=              1.1211  Tot=              1.5634
 Quadrupole moment (field-independent basis, Debye-Ang):
   XX=            -49.6206   YY=            -50.3684   ZZ=            -53.0296
   XY=             -0.8570   XZ=             -0.3622   YZ=             -2.4959

  Exact polarizability: 108.110   5.003  75.559  -3.162  -2.284  59.882
 Approx polarizability: 153.023  10.271  98.453  -7.779  -2.235  92.723

                      1                      2                      3
                      A                      A                      A
 Frequencies --     92.6207               100.1274               115.8392
 Red. masses --      3.1669                 2.5794                 3.6345
 Frc consts  --      0.0160                 0.0152                 0.0287
 IR Inten    --      1.4214                 5.8561                 0.6187

                      4                      5                      6
                      A                      A                      A
 Frequencies --    129.7655               165.6882               190.9582
 Red. masses --      3.1276                 1.3333                 1.2861
 Frc consts  --      0.0310                 0.0216                 0.0276
 IR Inten    --      0.4212                 0.2973                 0.8416

                      7                      8                      9
                      A                      A                      A
 Frequencies --    225.4788               241.1773               339.1878
 Red. masses --      2.3199                 2.6972                 4.2984
 Frc consts  --      0.0695                 0.0924                 0.2914
 IR Inten    --      1.3368                 2.6841                 4.4608

                     10                     11                     12
                      A                      A                      A
 Frequencies --    388.7279               432.7657               487.0529
 Red. masses --      3.6387                 4.0213                 6.0798
 Frc consts  --      0.3240                 0.4437                 0.8498
 IR Inten    --      1.4041                 6.7803                 2.1389

                     13                     14                     15
                      A                      A                      A
 Frequencies --    499.4752               581.4347               651.3982
 Red. masses --      4.5613                 1.1942                 1.2340
 Frc consts  --      0.6704                 0.2379                 0.3085
 IR Inten    --      6.6427                48.3921                40.5071

                     16                     17                     18
                      A                      A                      A
 Frequencies --    672.4505               825.6022               875.4887
 Red. masses --      4.1609                 3.1094                 4.4646
 Frc consts  --      1.1085                 1.2487                 2.0162
 IR Inten    --     10.2684                38.9809                 2.6011

                     19                     20                     21
                      A                      A                      A
 Frequencies --    961.7485               976.6581              1030.9631
 Red. masses --      2.8090                 2.3804                 4.4475
 Frc consts  --      1.5308                 1.3378                 2.7852
 IR Inten    --     14.9567                29.4776                35.7270

                     22                     23                     24
                      A                      A                      A
 Frequencies --   1059.9020              1096.2356              1117.8620
 Red. masses --      1.8356                 1.7061                 1.4472
 Frc consts  --      1.2149                 1.2080                 1.0655
 IR Inten    --     34.4980                22.2537                 3.1249

                     25                     26                     27
                      A                      A                      A
 Frequencies --   1141.0029              1166.5961              1181.3324
 Red. masses --      2.8125                 2.0183                 1.2832
 Frc consts  --      2.1574                 1.6184                 1.0551
 IR Inten    --     40.5776                89.9692                 3.1791

                     28                     29                     30
                      A                      A                      A
 Frequencies --   1185.8482              1216.2625              1245.8120
 Red. masses --      1.4195                 1.4313                 1.9868
 Frc consts  --      1.1761                 1.2475                 1.8168
 IR Inten    --     18.5711                 2.1997                38.1203

                     31                     32                     33
                      A                      A                      A
 Frequencies --   1249.6849              1306.7494              1363.0725
 Red. masses --      2.2732                 1.3652                 1.2961
 Frc consts  --      2.0917                 1.3736                 1.4188
 IR Inten    --     88.3129                 7.3643                63.0173

                     34                     35                     36
                      A                      A                      A
 Frequencies --   1439.5214              1483.8693              1486.0155
 Red. masses --      1.7685                 1.1475                 1.0541
 Frc consts  --      2.1592                 1.4887                 1.3715
 IR Inten    --     48.0405                 2.6302                 5.3718

                     37                     38                     39
                      A                      A                      A
 Frequencies --   1488.0788              1490.7279              1506.6303
 Red. masses --      1.0854                 1.3566                 1.0718
 Frc consts  --      1.4161                 1.7762                 1.4335
 IR Inten    --      2.7822                 8.9864                 7.1152

                     40                     41                     42
                      A                      A                      A
 Frequencies --   1507.9808              2235.0013              2992.5340
 Red. masses --      1.0701                 6.0438                 1.0368
 Frc consts  --      1.4337                17.7876                 5.4703
 IR Inten    --      2.9965                22.6131                81.1609

                     43                     44                     45
                      A                      A                      A
 Frequencies --   2993.6580              3048.6701              3069.1411
 Red. masses --      1.0410                 1.1027                 1.0934
 Frc consts  --      5.4970                 6.0383                 6.0685
 IR Inten    --     36.1957                43.3698                35.8277

                     46                     47                     48
                      A                      A                      A
 Frequencies --   3085.3710              3096.3870              3126.4016
 Red. masses --      1.0858                 1.0898                 1.1005
 Frc consts  --      6.0899                 6.1561                 6.3378
 IR Inten    --      5.6638                36.0668                16.6553

                     49                     50                     51
                      A                      A                      A
 Frequencies --   3126.5928              3155.6335              3505.0582
 Red. masses --      1.0996                 1.0855                 1.1596
 Frc consts  --      6.3334                 6.3690                 8.3939
 IR Inten    --     35.5860                 3.7034                86.2403

 - Thermochemistry -
 -------------------
 Temperature   298.150 Kelvin.  Pressure   1.00000 Atm.
 Atom     1 has atomic number  6 and mass  12.00000

 Molecular mass:   126.06808 amu.
 Principal axes and moments of inertia in atomic units:
                           1         2         3
     Eigenvalues --   906.809361432.119302182.06307
           X            0.99947  -0.03243   0.00166
           Y            0.03245   0.99930  -0.01853
           Z           -0.00106   0.01858   0.99983
 This molecule is an asymmetric top.
 Rotational symmetry number  1.
 Warning -- assumption of classical behavior for rotation
           may cause significant error
 Rotational temperatures (Kelvin)      0.09551     0.06048     0.03969
 Rotational constants (GHZ):           1.99021     1.26019     0.82708
 Zero-point vibrational energy     407640.9 (Joules/Mol)
                                   97.42852 (Kcal/Mol)
 Warning -- explicit consideration of  14 degrees of freedom as
           vibrations may cause significant error
 Vibrational temperatures:    133.26   144.06   166.67   186.70   238.39
          (Kelvin)            274.75   324.41   347.00   488.01   559.29
                              622.65   700.76   718.63   836.55   937.22
                              967.51  1187.86  1259.63  1383.74  1405.19
                             1483.32  1524.96  1577.24  1608.35  1641.65
                             1678.47  1699.67  1706.17  1749.93  1792.44
                             1798.02  1880.12  1961.15  2071.15  2134.95
                             2138.04  2141.01  2144.82  2167.70  2169.65
                             3215.66  4305.58  4307.20  4386.35  4415.80
                             4439.16  4455.00  4498.19  4498.46  4540.25
                             5042.99

 Zero-point correction=                           0.155262 (Hartree/Particle)
 Thermal correction to Energy=                    0.165534
 Thermal correction to Enthalpy=                  0.166478
 Thermal correction to Gibbs Free Energy=         0.119774
 Sum of electronic and zero-point Energies=           -422.946148
 Sum of electronic and thermal Energies=              -422.935876
 Sum of electronic and thermal Enthalpies=            -422.934932
 Sum of electronic and thermal Free Energies=         -422.981636

                     E (Thermal)             CV                S
                      KCal/Mol        Cal/Mol-Kelvin    Cal/Mol-Kelvin
 Total                  103.874             36.393             98.298
 Electronic               0.000              0.000              0.000
 Translational            0.889              2.981             40.409
 Rotational               0.889              2.981             29.429
 Vibrational            102.097             30.431             28.460
 Vibration     1          0.602              1.954              3.604
 Vibration     2          0.604              1.949              3.452
 Vibration     3          0.608              1.936              3.169
 Vibration     4          0.612              1.924              2.950
 Vibration     5          0.624              1.885              2.484
 Vibration     6          0.634              1.852              2.219
 Vibration     7          0.650              1.802              1.915
 Vibration     8          0.658              1.777              1.794
 Vibration     9          0.719              1.597              1.216
 Vibration    10          0.757              1.494              1.005
 Vibration    11          0.794              1.399              0.850
 Vibration    12          0.843              1.279              0.691
 Vibration    13          0.855              1.251              0.659
 Vibration    14          0.938              1.071              0.483

 Optimization completed.
    -- Stationary point found.
 Normal termination of Gaussian 09 at Tue Jan 28 13:21:09 2020.
