 Gaussian 09, Revision D.01,
 Gaussian 09:  ES64L-G09RevD.01 24-Apr-2013

 -----------------------------
 # b3lyp 6-31G(2df,p) opt Freq
 -----------------------------

 -----
 titel
 -----
 Symbolic Z-matrix:
 Charge =  0 Multiplicity = 1

 SCF Done:  E(RB3LYP) =  -423.226006921     A.U. after   14 cycles
 Optimization completed.
    -- Stationary point found.
 Normal termination of Gaussian 09 at Mon Jan 27 12:57:24 2020.

 ----------------------------------------------------------------------
 #N Geom=AllCheck Guess=TCheck SCRF=Check GenChk RB3LYP/6-31G(2df,p) Fr
 eq
 ----------------------------------------------------------------------

 Structure from the checkpoint file:  "/scratch/puck/g09_a00586dc-fc3b-4413-b71c-01daefb795bd/Gau-73328.chk"
 -----
 titel
 -----
 Charge =  0 Multiplicity = 1

                         Standard orientation:
 ---------------------------------------------------------------------
 Center     Atomic      Atomic             Coordinates (Angstroms)
 Number     Number       Type             X           Y           Z
 ---------------------------------------------------------------------
      1          8           0        2.700499    0.000034   -0.850131
      2          6           0        1.729140    0.000041   -0.140992
      3          6           0        1.002991   -1.240296    0.391465
      4          6           0       -0.428825   -0.788268    0.715810
      5          6           0       -1.478994   -1.127233   -0.366320
      6          8           0       -2.332664   -0.000136   -0.451839
      7          6           0       -1.479292    1.127175   -0.366122
      8          6           0       -0.428890    0.788260    0.715818
      9          6           0        1.002844    1.240401    0.391225
     10          1           0        1.069935   -2.061265   -0.327201
     11          1           0        1.537482   -1.563646    1.293644
     12          1           0       -0.761346   -1.171544    1.681803
     13          1           0       -0.981166   -1.308980   -1.334951
     14          1           0       -2.092517   -1.999485   -0.128009
     15          1           0       -0.981624    1.309301   -1.334762
     16          1           0       -2.093037    1.999194   -0.127532
     17          1           0       -0.761237    1.171495    1.681887
     18          1           0        1.069598    2.061183   -0.327672
     19          1           0        1.537380    1.564083    1.293257
 ---------------------------------------------------------------------

 SCF Done:  E(RB3LYP) =  -423.226006921     A.U. after    1 cycles

 The electronic state is 1-A.
 Alpha  occ. eigenvalues --  -19.14220 -19.13221 -10.27091 -10.23089 -10.23087
 Alpha  occ. eigenvalues --  -10.19996 -10.19980 -10.19478 -10.19476  -1.04407
 Alpha  occ. eigenvalues --   -1.04199  -0.84254  -0.76183  -0.71222  -0.70086
 Alpha  occ. eigenvalues --   -0.60542  -0.56856  -0.54377  -0.50676  -0.48035
 Alpha  occ. eigenvalues --   -0.47199  -0.45992  -0.44055  -0.42818  -0.40733
 Alpha  occ. eigenvalues --   -0.39158  -0.38779  -0.35617  -0.34843  -0.33996
 Alpha  occ. eigenvalues --   -0.33429  -0.31443  -0.25945  -0.24265
 Alpha virt. eigenvalues --   -0.02187   0.07586   0.09623   0.10625   0.11658
 Alpha virt. eigenvalues --    0.13275   0.14512   0.14691   0.15703   0.16320
 Alpha virt. eigenvalues --    0.17237   0.18770   0.19147   0.19926   0.22021

 Mulliken charges:
               1
     1  O   -0.301218
     2  C    0.392674
     3  C   -0.347600
     4  C   -0.029290
     5  C   -0.096648
     6  O   -0.235336
     7  C   -0.096643
     8  C   -0.029307
     9  C   -0.347597
    10  H    0.130226
    11  H    0.130254
    12  H    0.083612
    13  H    0.088928
    14  H    0.112460
    15  H    0.088929
    16  H    0.112459
    17  H    0.083613
    18  H    0.130228
    19  H    0.130257
 Sum of Mulliken charges =   0.00000

 Dipole moment (field-independent basis, Debye):
    X=             -0.8619    Y=              0.0002    Z=              2.0804  Tot=              2.2519
 Quadrupole moment (field-independent basis, Debye-Ang):
   XX=            -66.8153   YY=            -48.6938   ZZ=            -52.7516
   XY=             -0.0007   XZ=              3.4317   YZ=              0.0002

  Exact polarizability:  78.635  -0.001  77.133  -3.089   0.000  65.295
 Approx polarizability: 112.080  -0.001 108.592  -9.777   0.000 103.413

                      1                      2                      3
                      A                      A                      A
 Frequencies --     45.3201                60.6372               262.1235
 Red. masses --      2.2841                 5.0877                 2.7126
 Frc consts  --      0.0028                 0.0110                 0.1098
 IR Inten    --      0.6837                 4.9693                 4.2339

                      4                      5                      6
                      A                      A                      A
 Frequencies --    335.2878               354.9745               427.7234
 Red. masses --      2.1908                 1.9614                 2.4676
 Frc consts  --      0.1451                 0.1456                 0.2660
 IR Inten    --      1.6165                 2.4084                 1.6515

                      7                      8                      9
                      A                      A                      A
 Frequencies --    460.7338               576.7180               588.9130
 Red. masses --      4.8128                 5.0458                 3.8210
 Frc consts  --      0.6019                 0.9888                 0.7808
 IR Inten    --      5.8677                 2.0280                 0.0705

                     10                     11                     12
                      A                      A                      A
 Frequencies --    677.3919               707.1139               745.1453
 Red. masses --      2.8973                 4.8452                 1.6195
 Frc consts  --      0.7833                 1.4274                 0.5298
 IR Inten    --      3.1209                 7.7200                 0.1954

                     13                     14                     15
                      A                      A                      A
 Frequencies --    785.0639               807.2472               911.6537
 Red. masses --      4.8075                 2.7373                 1.8817
 Frc consts  --      1.7457                 1.0510                 0.9214
 IR Inten    --      5.0931                 8.9061                 5.8419

                     16                     17                     18
                      A                      A                      A
 Frequencies --    930.0834               969.9303              1021.5805
 Red. masses --      2.4177                 3.7696                 1.4133
 Frc consts  --      1.2322                 2.0894                 0.8690
 IR Inten    --      1.9017                32.8452                 4.6920

                     19                     20                     21
                      A                      A                      A
 Frequencies --   1023.3027              1047.5033              1059.3526
 Red. masses --      1.4199                 1.8815                 2.4486
 Frc consts  --      0.8760                 1.2164                 1.6190
 IR Inten    --      4.0973                19.6495                 0.9107

                     22                     23                     24
                      A                      A                      A
 Frequencies --   1094.5306              1110.9282              1158.2749
 Red. masses --      3.9942                 5.5684                 4.1978
 Frc consts  --      2.8193                 4.0490                 3.3181
 IR Inten    --      2.0527                46.9487                82.5375

                     25                     26                     27
                      A                      A                      A
 Frequencies --   1176.9543              1202.0360              1222.7878
 Red. masses --      1.4538                 1.4707                 1.2798
 Frc consts  --      1.1866                 1.2520                 1.1275
 IR Inten    --      0.3015                 2.0552                 1.4177

                     28                     29                     30
                      A                      A                      A
 Frequencies --   1234.5143              1270.4198              1280.7104
 Red. masses --      1.1901                 1.6298                 1.4332
 Frc consts  --      1.0686                 1.5498                 1.3850
 IR Inten    --      6.8536                 4.4152                 3.1576

                     31                     32                     33
                      A                      A                      A
 Frequencies --   1315.2005              1315.8580              1330.6172
 Red. masses --      1.3140                 1.4166                 1.2859
 Frc consts  --      1.3392                 1.4451                 1.3414
 IR Inten    --      1.3950                 5.9687                 1.4937

                     34                     35                     36
                      A                      A                      A
 Frequencies --   1338.5506              1377.9870              1402.4014
 Red. masses --      1.2641                 1.3967                 1.3337
 Frc consts  --      1.3345                 1.5626                 1.5454
 IR Inten    --      2.6015                 0.1382                 5.7230

                     37                     38                     39
                      A                      A                      A
 Frequencies --   1447.6185              1456.1765              1504.4804
 Red. masses --      1.0835                 1.0926                 1.0801
 Frc consts  --      1.3377                 1.3650                 1.4405
 IR Inten    --     14.1435                 3.1790                 0.0507

                     40                     41                     42
                      A                      A                      A
 Frequencies --   1518.6708              1847.2125              2949.0897
 Red. masses --      1.1018                12.5067                 1.0712
 Frc consts  --      1.4973                25.1435                 5.4890
 IR Inten    --      3.2991               217.2052                32.6303

                     43                     44                     45
                      A                      A                      A
 Frequencies --   2956.8087              3035.5685              3039.6046
 Red. masses --      1.0724                 1.0664                 1.0670
 Frc consts  --      5.5242                 5.7897                 5.8083
 IR Inten    --     72.1233                 2.3588                19.4944

                     46                     47                     48
                      A                      A                      A
 Frequencies --   3075.4226              3087.3823              3097.0240
 Red. masses --      1.0861                 1.0871                 1.0909
 Frc consts  --      6.0524                 6.1055                 6.1650
 IR Inten    --      0.7905                13.6897                52.6601

                     49                     50                     51
                      A                      A                      A
 Frequencies --   3099.9084              3101.1370              3106.4442
 Red. masses --      1.0953                 1.0957                 1.0937
 Frc consts  --      6.2014                 6.2083                 6.2186
 IR Inten    --      4.4292                 0.1143                52.0489

 - Thermochemistry -
 -------------------
 Temperature   298.150 Kelvin.  Pressure   1.00000 Atm.
 Atom     1 has atomic number  8 and mass  15.99491

 Molecular mass:   126.06808 amu.
 Principal axes and moments of inertia in atomic units:
                           1         2         3
     Eigenvalues --   561.295581380.964951606.02845
           X            0.99992  -0.00001   0.01295
           Y            0.00001   1.00000   0.00000
           Z           -0.01295   0.00000   0.99992
 This molecule is an asymmetric top.
 Rotational symmetry number  1.
 Warning -- assumption of classical behavior for rotation
           may cause significant error
 Rotational temperatures (Kelvin)      0.15431     0.06272     0.05393
 Rotational constants (GHZ):           3.21531     1.30687     1.12373
 Zero-point vibrational energy     424387.9 (Joules/Mol)
                                  101.43115 (Kcal/Mol)
 Warning -- explicit consideration of   9 degrees of freedom as
           vibrations may cause significant error
 Vibrational temperatures:     65.21    87.24   377.14   482.40   510.73
          (Kelvin)            615.40   662.89   829.77   847.31   974.61
                             1017.38  1072.10  1129.53  1161.45  1311.66
                             1338.18  1395.51  1469.82  1472.30  1507.12
                             1524.17  1574.78  1598.38  1666.50  1693.37
                             1729.46  1759.32  1776.19  1827.85  1842.65
                             1892.28  1893.22  1914.46  1925.87  1982.61
                             2017.74  2082.80  2095.11  2164.61  2185.03
                             2657.72  4243.08  4254.18  4367.50  4373.31
                             4424.84  4442.05  4455.92  4460.07  4461.84
                             4469.47

 Zero-point correction=                           0.161641 (Hartree/Particle)
 Thermal correction to Energy=                    0.169205
 Thermal correction to Enthalpy=                  0.170149
 Thermal correction to Gibbs Free Energy=         0.128498
 Sum of electronic and zero-point Energies=           -423.064366
 Sum of electronic and thermal Energies=              -423.056802
 Sum of electronic and thermal Enthalpies=            -423.055858
 Sum of electronic and thermal Free Energies=         -423.097509

                     E (Thermal)             CV                S
                      KCal/Mol        Cal/Mol-Kelvin    Cal/Mol-Kelvin
 Total                  106.177             29.182             87.662
 Electronic               0.000              0.000              0.000
 Translational            0.889              2.981             40.409
 Rotational               0.889              2.981             28.611
 Vibrational            104.400             23.221             18.642
 Vibration     1          0.595              1.979              5.012
 Vibration     2          0.597              1.973              4.436
 Vibration     3          0.669              1.742              1.648
 Vibration     4          0.716              1.605              1.234
 Vibration     5          0.731              1.565              1.144
 Vibration     6          0.789              1.410              0.866
 Vibration     7          0.819              1.337              0.764
 Vibration     8          0.933              1.082              0.491
 Vibration     9          0.946              1.055              0.469

 Optimization completed.
    -- Stationary point found.
 Normal termination of Gaussian 09 at Mon Jan 27 13:42:20 2020.
