 Gaussian 09, Revision D.01,
 Gaussian 09:  ES64L-G09RevD.01 24-Apr-2013

 -----------------------------
 # b3lyp 6-31G(2df,p) opt Freq
 -----------------------------

 -----
 titel
 -----
 Symbolic Z-matrix:
 Charge =  0 Multiplicity = 1

 SCF Done:  E(RB3LYP) =  -423.138097070     A.U. after   14 cycles
 Optimization completed.
    -- Stationary point found.
 Normal termination of Gaussian 09 at Mon Jan 27 23:03:39 2020.

 ----------------------------------------------------------------------
 #N Geom=AllCheck Guess=TCheck SCRF=Check GenChk RB3LYP/6-31G(2df,p) Fr
 eq
 ----------------------------------------------------------------------

 Structure from the checkpoint file:  "/scratch/puck/g09_ce5f9915-a940-4a60-b443-345622f88a80/Gau-182272.chk"
 -----
 titel
 -----
 Charge =  0 Multiplicity = 1

                         Standard orientation:
 ---------------------------------------------------------------------
 Center     Atomic      Atomic             Coordinates (Angstroms)
 Number     Number       Type             X           Y           Z
 ---------------------------------------------------------------------
      1          6           0       -1.550621    1.812139    0.266747
      2          6           0       -1.269902    0.529033   -0.488933
      3          6           0       -1.647774   -0.836224    0.151279
      4          6           0       -0.637067   -1.546598   -0.774406
      5          6           0        0.025190   -0.282090   -0.155890
      6          8           0       -0.564992   -0.660354    1.153295
      7          6           0        1.463882    0.150876   -0.230818
      8          6           0        2.279472   -0.013801    1.029577
      9          8           0        1.899140    0.596743   -1.268304
     10          1           0       -0.939320    2.633027   -0.122208
     11          1           0       -2.600652    2.102805    0.155453
     12          1           0       -1.336106    1.686403    1.330201
     13          1           0       -1.482752    0.611522   -1.558348
     14          1           0       -2.610796   -1.185691    0.524091
     15          1           0       -0.250230   -2.493275   -0.396887
     16          1           0       -0.820835   -1.547391   -1.850335
     17          1           0        3.309125    0.297368    0.850802
     18          1           0        1.834983    0.579755    1.836095
     19          1           0        2.244320   -1.055637    1.365872
 ---------------------------------------------------------------------

 SCF Done:  E(RB3LYP) =  -423.138097070     A.U. after    1 cycles

 The electronic state is 1-A.
 Alpha  occ. eigenvalues --  -19.13976 -19.13393 -10.27500 -10.25641 -10.25532
 Alpha  occ. eigenvalues --  -10.20708 -10.20333 -10.18822 -10.17826  -1.06493
 Alpha  occ. eigenvalues --   -1.04236  -0.80685  -0.75674  -0.74103  -0.67324
 Alpha  occ. eigenvalues --   -0.63838  -0.57518  -0.53236  -0.48536  -0.47281
 Alpha  occ. eigenvalues --   -0.44901  -0.44289  -0.44216  -0.41761  -0.40643
 Alpha  occ. eigenvalues --   -0.39754  -0.38212  -0.36698  -0.35003  -0.33977
 Alpha  occ. eigenvalues --   -0.32813  -0.31775  -0.24834  -0.24678
 Alpha virt. eigenvalues --   -0.02503   0.08632   0.10460   0.11343   0.11696
 Alpha virt. eigenvalues --    0.12281   0.12643   0.13911   0.16309   0.16439
 Alpha virt. eigenvalues --    0.16645   0.17753   0.18244   0.18623   0.19596

 Mulliken charges:
               1
     1  C   -0.440104
     2  C    0.010182
     3  C    0.022206
     4  C   -0.255058
     5  C    0.324693
     6  O   -0.348534
     7  C    0.245707
     8  C   -0.486155
     9  O   -0.307092
    10  H    0.127836
    11  H    0.118600
    12  H    0.134988
    13  H    0.085212
    14  H    0.098716
    15  H    0.111499
    16  H    0.111812
    17  H    0.139064
    18  H    0.155593
    19  H    0.150835
 Sum of Mulliken charges =   0.00000

 Dipole moment (field-independent basis, Debye):
    X=             -1.5183    Y=             -0.7164    Z=              0.5095  Tot=              1.7545
 Quadrupole moment (field-independent basis, Debye-Ang):
   XX=            -51.6169   YY=            -51.8226   ZZ=            -57.0983
   XY=             -1.4877   XZ=              5.8845   YZ=              2.7682

  Exact polarizability:  83.879   0.954  74.314   0.683  -0.435  70.994
 Approx polarizability: 114.438   4.769 105.454  -4.038  -6.702 118.624

                      1                      2                      3
                      A                      A                      A
 Frequencies --     28.3611               117.2462               133.1954
 Red. masses --      3.7506                 1.4738                 1.8091
 Frc consts  --      0.0018                 0.0119                 0.0189
 IR Inten    --      5.6697                 0.5415                 0.5096

                      4                      5                      6
                      A                      A                      A
 Frequencies --    168.3935               230.9051               289.5603
 Red. masses --      3.0646                 1.1126                 3.0092
 Frc consts  --      0.0512                 0.0350                 0.1487
 IR Inten    --      9.3353                 0.7597                 3.7450

                      7                      8                      9
                      A                      A                      A
 Frequencies --    304.1102               368.3476               453.3545
 Red. masses --      2.9978                 3.1633                 5.4922
 Frc consts  --      0.1633                 0.2529                 0.6651
 IR Inten    --      1.1728                 0.7106                 1.2636

                     10                     11                     12
                      A                      A                      A
 Frequencies --    530.0785               563.8612               615.2641
 Red. masses --      2.5361                 2.6505                 3.3270
 Frc consts  --      0.4199                 0.4965                 0.7420
 IR Inten    --      2.1916                 2.7774                19.0848

                     13                     14                     15
                      A                      A                      A
 Frequencies --    673.7149               750.8096               784.2365
 Red. masses --      3.2429                 4.3178                 3.0595
 Frc consts  --      0.8672                 1.4341                 1.1087
 IR Inten    --      3.2311                21.8054                 4.2869

                     16                     17                     18
                      A                      A                      A
 Frequencies --    806.5840               901.9733               919.9845
 Red. masses --      2.3424                 2.8966                 3.1070
 Frc consts  --      0.8979                 1.3885                 1.5494
 IR Inten    --      1.2337                11.1893                41.3222

                     19                     20                     21
                      A                      A                      A
 Frequencies --    935.6337               989.0105              1012.7497
 Red. masses --      2.3186                 2.0277                 1.2377
 Frc consts  --      1.1959                 1.1686                 0.7479
 IR Inten    --      1.7066                 3.1979                 2.5474

                     22                     23                     24
                      A                      A                      A
 Frequencies --   1025.9155              1064.4308              1070.3858
 Red. masses --      1.5571                 1.8166                 1.7769
 Frc consts  --      0.9656                 1.2126                 1.1995
 IR Inten    --      3.2820                 8.9033                 3.9089

                     25                     26                     27
                      A                      A                      A
 Frequencies --   1106.7732              1141.3929              1148.8732
 Red. masses --      1.5767                 2.6031                 2.4964
 Frc consts  --      1.1380                 1.9981                 1.9414
 IR Inten    --      7.6889                24.5082                 8.1952

                     28                     29                     30
                      A                      A                      A
 Frequencies --   1166.6816              1204.9457              1221.5649
 Red. masses --      1.5058                 1.8093                 1.5868
 Frc consts  --      1.2076                 1.5477                 1.3951
 IR Inten    --      0.5727                 9.5676                 4.1784

                     31                     32                     33
                      A                      A                      A
 Frequencies --   1242.0117              1329.5537              1382.2479
 Red. masses --      1.5366                 3.3435                 1.3640
 Frc consts  --      1.3965                 3.4823                 1.5355
 IR Inten    --      2.2723                38.6270                35.5432

                     34                     35                     36
                      A                      A                      A
 Frequencies --   1390.5791              1411.8602              1454.2039
 Red. masses --      1.3366                 1.5017                 1.0572
 Frc consts  --      1.5228                 1.7637                 1.3173
 IR Inten    --     19.2780                 9.9894                14.1640

                     37                     38                     39
                      A                      A                      A
 Frequencies --   1462.6311              1486.3173              1498.5757
 Red. masses --      1.0500                 1.1243                 1.1259
 Frc consts  --      1.3235                 1.4634                 1.4897
 IR Inten    --      9.2153                 3.9142                 5.9039

                     40                     41                     42
                      A                      A                      A
 Frequencies --   1505.0587              1804.9873              3039.1625
 Red. masses --      1.0477                11.2835                 1.0369
 Frc consts  --      1.3983                21.6593                 5.6430
 IR Inten    --      3.3727               142.5829                23.1380

                     43                     44                     45
                      A                      A                      A
 Frequencies --   3041.5861              3071.7241              3080.2420
 Red. masses --      1.0355                 1.0705                 1.0684
 Frc consts  --      5.6443                 5.9511                 5.9723
 IR Inten    --      0.3139                11.0599                36.2702

                     46                     47                     48
                      A                      A                      A
 Frequencies --   3098.4886              3102.1920              3118.1395
 Red. masses --      1.1007                 1.0971                 1.0936
 Frc consts  --      6.2260                 6.2205                 6.2644
 IR Inten    --     17.2031                 3.2212                54.6001

                     49                     50                     51
                      A                      A                      A
 Frequencies --   3133.2047              3157.4437              3159.6925
 Red. masses --      1.0999                 1.1041                 1.1121
 Frc consts  --      6.3615                 6.4851                 6.5418
 IR Inten    --     11.9640                10.5170                19.9012

 - Thermochemistry -
 -------------------
 Temperature   298.150 Kelvin.  Pressure   1.00000 Atm.
 Atom     1 has atomic number  6 and mass  12.00000

 Molecular mass:   126.06808 amu.
 Principal axes and moments of inertia in atomic units:
                           1         2         3
     Eigenvalues --   733.074601289.497471415.36361
           X            0.99778  -0.04806   0.04620
           Y            0.04244   0.99237   0.11573
           Z           -0.05141  -0.11352   0.99221
 This molecule is an asymmetric top.
 Rotational symmetry number  1.
 Warning -- assumption of classical behavior for rotation
           may cause significant error
 Rotational temperatures (Kelvin)      0.11815     0.06717     0.06120
 Rotational constants (GHZ):           2.46188     1.39957     1.27511
 Zero-point vibrational energy     410906.7 (Joules/Mol)
                                   98.20906 (Kcal/Mol)
 Warning -- explicit consideration of  12 degrees of freedom as
           vibrations may cause significant error
 Vibrational temperatures:     40.81   168.69   191.64   242.28   332.22
          (Kelvin)            416.61   437.55   529.97   652.28   762.66
                              811.27   885.23   969.32  1080.25  1128.34
                             1160.49  1297.74  1323.65  1346.17  1422.96
                             1457.12  1476.06  1531.48  1540.04  1592.40
                             1642.21  1652.97  1678.59  1733.65  1757.56
                             1786.98  1912.93  1988.74  2000.73  2031.35
                             2092.27  2104.40  2138.48  2156.11  2165.44
                             2596.97  4372.67  4376.16  4419.52  4431.78
                             4458.03  4463.36  4486.30  4507.98  4542.85
                             4546.09

 Zero-point correction=                           0.156506 (Hartree/Particle)
 Thermal correction to Energy=                    0.165590
 Thermal correction to Enthalpy=                  0.166535
 Thermal correction to Gibbs Free Energy=         0.121892
 Sum of electronic and zero-point Energies=           -422.981591
 Sum of electronic and thermal Energies=              -422.972507
 Sum of electronic and thermal Enthalpies=            -422.971563
 Sum of electronic and thermal Free Energies=         -423.016205

                     E (Thermal)             CV                S
                      KCal/Mol        Cal/Mol-Kelvin    Cal/Mol-Kelvin
 Total                  103.910             33.541             93.958
 Electronic               0.000              0.000              0.000
 Translational            0.889              2.981             40.409
 Rotational               0.889              2.981             28.683
 Vibrational            102.132             27.579             24.867
 Vibration     1          0.593              1.984              5.941
 Vibration     2          0.608              1.935              3.145
 Vibration     3          0.613              1.920              2.899
 Vibration     4          0.625              1.881              2.453
 Vibration     5          0.653              1.794              1.872
 Vibration     6          0.686              1.693              1.477
 Vibration     7          0.695              1.666              1.394
 Vibration     8          0.741              1.537              1.087
 Vibration     9          0.812              1.353              0.786
 Vibration    10          0.885              1.183              0.587
 Vibration    11          0.920              1.109              0.516
 Vibration    12          0.975              1.000              0.424

 Optimization completed.
    -- Stationary point found.
 Normal termination of Gaussian 09 at Mon Jan 27 23:48:14 2020.
