 Gaussian 09, Revision D.01,
 Gaussian 09:  ES64L-G09RevD.01 24-Apr-2013

 -----------------------------
 # b3lyp 6-31G(2df,p) opt Freq
 -----------------------------

 -----
 titel
 -----
 Symbolic Z-matrix:
 Charge =  0 Multiplicity = 1

 SCF Done:  E(RB3LYP) =  -423.223911885     A.U. after   14 cycles
 Optimization completed.
    -- Stationary point found.
 Normal termination of Gaussian 09 at Tue Jan 28 03:15:58 2020.

 ----------------------------------------------------------------------
 #N Geom=AllCheck Guess=TCheck SCRF=Check GenChk RB3LYP/6-31G(2df,p) Fr
 eq
 ----------------------------------------------------------------------

 Structure from the checkpoint file:  "/scratch/puck/g09_7ae9f814-ae55-4b35-92ae-e484d79254ce/Gau-7472.chk"
 -----
 titel
 -----
 Charge =  0 Multiplicity = 1

                         Standard orientation:
 ---------------------------------------------------------------------
 Center     Atomic      Atomic             Coordinates (Angstroms)
 Number     Number       Type             X           Y           Z
 ---------------------------------------------------------------------
      1          6           0       -2.742035   -0.027993   -0.245342
      2          6           0       -1.265034    0.025218   -0.637940
      3          6           0       -0.504936   -1.304384   -0.322578
      4          6           0        0.563676   -0.818714    0.689578
      5          8           0       -0.108716    0.235842    1.387789
      6          6           0       -0.460682    1.026140    0.233265
      7          6           0        0.918858    1.307795   -0.389281
      8          6           0        1.612420   -0.040608   -0.119264
      9          8           0        2.699048   -0.405176   -0.477079
     10          1           0       -2.842539   -0.221853    0.827552
     11          1           0       -3.249599    0.916062   -0.470701
     12          1           0       -3.264980   -0.825366   -0.783177
     13          1           0       -1.176987    0.285238   -1.697573
     14          1           0       -1.166780   -2.029302    0.158180
     15          1           0       -0.066231   -1.777461   -1.204661
     16          1           0        0.963873   -1.559679    1.378477
     17          1           0       -1.016199    1.905941    0.558131
     18          1           0        0.923110    1.552597   -1.454148
     19          1           0        1.440072    2.103771    0.151614
 ---------------------------------------------------------------------

 SCF Done:  E(RB3LYP) =  -423.223911885     A.U. after    1 cycles

 The electronic state is 1-A.
 Alpha  occ. eigenvalues --  -19.15060 -19.13591 -10.27024 -10.24152 -10.23867
 Alpha  occ. eigenvalues --  -10.20047 -10.19530 -10.19440 -10.18175  -1.06280
 Alpha  occ. eigenvalues --   -1.04067  -0.81230  -0.76465  -0.75375  -0.67515
 Alpha  occ. eigenvalues --   -0.60579  -0.57549  -0.55269  -0.50831  -0.48234
 Alpha  occ. eigenvalues --   -0.46612  -0.43347  -0.42512  -0.41608  -0.41252
 Alpha  occ. eigenvalues --   -0.39387  -0.39332  -0.37001  -0.35366  -0.34004
 Alpha  occ. eigenvalues --   -0.33533  -0.32646  -0.28425  -0.23246
 Alpha virt. eigenvalues --   -0.01799   0.07814   0.10948   0.11311   0.12383
 Alpha virt. eigenvalues --    0.13533   0.13946   0.15412   0.15708   0.16592
 Alpha virt. eigenvalues --    0.17476   0.18058   0.18801   0.18848   0.20262

 Mulliken charges:
               1
     1  C   -0.416495
     2  C    0.038970
     3  C   -0.258236
     4  C   -0.034004
     5  O   -0.265795
     6  C    0.064259
     7  C   -0.353225
     8  C    0.422910
     9  O   -0.318005
    10  H    0.131535
    11  H    0.113570
    12  H    0.116847
    13  H    0.076493
    14  H    0.113599
    15  H    0.118775
    16  H    0.100049
    17  H    0.084147
    18  H    0.127298
    19  H    0.137307
 Sum of Mulliken charges =   0.00000

 Dipole moment (field-independent basis, Debye):
    X=             -2.5116    Y=              0.5729    Z=             -0.7605  Tot=              2.6860
 Quadrupole moment (field-independent basis, Debye-Ang):
   XX=            -61.2974   YY=            -49.4862   ZZ=            -54.8140
   XY=              1.8201   XZ=              2.9418   YZ=             -1.4328

  Exact polarizability:  85.004  -1.423  73.788  -0.786  -1.616  62.844
 Approx polarizability: 116.190  -6.249 108.714  -4.595  -0.699 101.983

                      1                      2                      3
                      A                      A                      A
 Frequencies --     88.9517               162.2416               244.7411
 Red. masses --      4.0072                 3.4799                 1.2589
 Frc consts  --      0.0187                 0.0540                 0.0444
 IR Inten    --      2.7023                 3.2860                 0.6120

                      4                      5                      6
                      A                      A                      A
 Frequencies --    280.0784               336.3286               411.9896
 Red. masses --      1.7777                 2.1515                 2.8180
 Frc consts  --      0.0822                 0.1434                 0.2818
 IR Inten    --      0.9341                 0.3295                 1.8147

                      7                      8                      9
                      A                      A                      A
 Frequencies --    441.5586               504.9287               597.1136
 Red. masses --      4.7902                 3.5813                 2.9702
 Frc consts  --      0.5503                 0.5380                 0.6239
 IR Inten    --      5.2307                11.7170                 0.2593

                     10                     11                     12
                      A                      A                      A
 Frequencies --    624.1250               693.6208               761.4438
 Red. masses --      3.4712                 4.0071                 3.4086
 Frc consts  --      0.7967                 1.1358                 1.1644
 IR Inten    --      8.9249                 0.7074                 4.9254

                     13                     14                     15
                      A                      A                      A
 Frequencies --    802.7141               822.2262               880.1215
 Red. masses --      3.7653                 3.0635                 2.5332
 Frc consts  --      1.4295                 1.2203                 1.1561
 IR Inten    --      7.5366                 8.8578                 0.7633

                     16                     17                     18
                      A                      A                      A
 Frequencies --    916.4098               925.8906               957.9640
 Red. masses --      1.6232                 2.8174                 2.4270
 Frc consts  --      0.8032                 1.4230                 1.3122
 IR Inten    --      3.2970                26.7012                 0.7457

                     19                     20                     21
                      A                      A                      A
 Frequencies --    961.2839               988.9467              1009.3021
 Red. masses --      2.6812                 1.7907                 3.1500
 Frc consts  --      1.4598                 1.0318                 1.8906
 IR Inten    --      2.2436                 8.2283                32.4423

                     22                     23                     24
                      A                      A                      A
 Frequencies --   1045.5170              1064.7704              1102.3939
 Red. masses --      1.4717                 1.9739                 1.9895
 Frc consts  --      0.9478                 1.3185                 1.4245
 IR Inten    --      7.8735                17.1389                 4.4958

                     25                     26                     27
                      A                      A                      A
 Frequencies --   1150.7650              1158.3774              1204.7931
 Red. masses --      2.5768                 1.2813                 1.4964
 Frc consts  --      2.0105                 1.0130                 1.2798
 IR Inten    --     26.1372                 1.5453                 1.7088

                     28                     29                     30
                      A                      A                      A
 Frequencies --   1221.6899              1252.6543              1258.9183
 Red. masses --      1.4774                 1.8070                 1.3492
 Frc consts  --      1.2992                 1.6706                 1.2599
 IR Inten    --      5.0599                 6.0429                 0.6657

                     31                     32                     33
                      A                      A                      A
 Frequencies --   1290.6779              1297.8491              1312.1582
 Red. masses --      1.4774                 1.5245                 1.3413
 Frc consts  --      1.4501                 1.5129                 1.3606
 IR Inten    --      0.9551                 4.6085                 5.2790

                     34                     35                     36
                      A                      A                      A
 Frequencies --   1350.3418              1377.9119              1409.9422
 Red. masses --      1.4812                 1.5364                 1.2375
 Frc consts  --      1.5913                 1.7187                 1.4494
 IR Inten    --      3.7456                 1.8893                 2.0454

                     37                     38                     39
                      A                      A                      A
 Frequencies --   1447.0922              1490.1150              1498.2397
 Red. masses --      1.0974                 1.0876                 1.0436
 Frc consts  --      1.3539                 1.4228                 1.3802
 IR Inten    --      8.7581                 4.2413                 5.0768

                     40                     41                     42
                      A                      A                      A
 Frequencies --   1503.7159              1867.8716              3030.9332
 Red. masses --      1.0523                12.6072                 1.0349
 Frc consts  --      1.4019                25.9156                 5.6015
 IR Inten    --      1.5902               236.4900                24.3941

                     43                     44                     45
                      A                      A                      A
 Frequencies --   3052.2384              3063.0449              3065.0277
 Red. masses --      1.0833                 1.0607                 1.0616
 Frc consts  --      5.9462                 5.8634                 5.8761
 IR Inten    --     13.5857                13.3538                12.0866

                     46                     47                     48
                      A                      A                      A
 Frequencies --   3098.4694              3107.6361              3113.3790
 Red. masses --      1.1014                 1.1025                 1.1049
 Frc consts  --      6.2300                 6.2734                 6.3098
 IR Inten    --     21.2896                16.3983                12.7391

                     49                     50                     51
                      A                      A                      A
 Frequencies --   3116.9394              3120.0362              3150.6969
 Red. masses --      1.1015                 1.0918                 1.0906
 Frc consts  --      6.3050                 6.2617                 6.3786
 IR Inten    --     20.0483                28.4636                13.3472

 - Thermochemistry -
 -------------------
 Temperature   298.150 Kelvin.  Pressure   1.00000 Atm.
 Atom     1 has atomic number  6 and mass  12.00000

 Molecular mass:   126.06808 amu.
 Principal axes and moments of inertia in atomic units:
                           1         2         3
     Eigenvalues --   524.869691333.025821431.03840
           X            0.99979   0.01616   0.01266
           Y           -0.01539   0.99817  -0.05845
           Z           -0.01358   0.05824   0.99821
 This molecule is an asymmetric top.
 Rotational symmetry number  1.
 Warning -- assumption of classical behavior for rotation
           may cause significant error
 Rotational temperatures (Kelvin)      0.16502     0.06498     0.06053
 Rotational constants (GHZ):           3.43846     1.35387     1.26114
 Zero-point vibrational energy     422498.2 (Joules/Mol)
                                  100.97948 (Kcal/Mol)
 Warning -- explicit consideration of   9 degrees of freedom as
           vibrations may cause significant error
 Vibrational temperatures:    127.98   233.43   352.13   402.97   483.90
          (Kelvin)            592.76   635.30   726.48   859.11   897.98
                              997.96  1095.55  1154.93  1183.00  1266.30
                             1318.51  1332.15  1378.29  1383.07  1422.87
                             1452.16  1504.26  1531.97  1586.10  1655.69
                             1666.64  1733.43  1757.74  1802.29  1811.30
                             1857.00  1867.31  1887.90  1942.84  1982.51
                             2028.59  2082.04  2143.94  2155.63  2163.51
                             2687.45  4360.83  4391.48  4407.03  4409.89
                             4458.00  4471.19  4479.45  4484.57  4489.03
                             4533.14

 Zero-point correction=                           0.160921 (Hartree/Particle)
 Thermal correction to Energy=                    0.168483
 Thermal correction to Enthalpy=                  0.169427
 Thermal correction to Gibbs Free Energy=         0.128942
 Sum of electronic and zero-point Energies=           -423.062991
 Sum of electronic and thermal Energies=              -423.055429
 Sum of electronic and thermal Enthalpies=            -423.054485
 Sum of electronic and thermal Free Energies=         -423.094970

                     E (Thermal)             CV                S
                      KCal/Mol        Cal/Mol-Kelvin    Cal/Mol-Kelvin
 Total                  105.724             30.119             85.208
 Electronic               0.000              0.000              0.000
 Translational            0.889              2.981             40.409
 Rotational               0.889              2.981             28.395
 Vibrational            103.947             24.158             16.404
 Vibration     1          0.602              1.957              3.683
 Vibration     2          0.622              1.889              2.524
 Vibration     3          0.660              1.771              1.768
 Vibration     4          0.680              1.710              1.533
 Vibration     5          0.717              1.603              1.230
 Vibration     6          0.776              1.444              0.920
 Vibration     7          0.801              1.380              0.822
 Vibration     8          0.860              1.239              0.646
 Vibration     9          0.955              1.038              0.455

 Optimization completed.
    -- Stationary point found.
 Normal termination of Gaussian 09 at Tue Jan 28 04:01:36 2020.
