 Gaussian 09, Revision D.01,
 Gaussian 09:  ES64L-G09RevD.01 24-Apr-2013

 -----------------------------
 # b3lyp 6-31G(2df,p) opt Freq
 -----------------------------

 -----
 titel
 -----
 Symbolic Z-matrix:
 Charge =  0 Multiplicity = 1

 SCF Done:  E(RB3LYP) =  -423.179602412     A.U. after   14 cycles
 Optimization completed.
    -- Stationary point found.
 Normal termination of Gaussian 09 at Tue Jan 28 12:40:42 2020.

 ----------------------------------------------------------------------
 #N Geom=AllCheck Guess=TCheck SCRF=Check GenChk RB3LYP/6-31G(2df,p) Fr
 eq
 ----------------------------------------------------------------------

 Structure from the checkpoint file:  "/scratch/puck/g09_f061b63b-c670-4f42-9a02-76a61840455c/Gau-29049.chk"
 -----
 titel
 -----
 Charge =  0 Multiplicity = 1

                         Standard orientation:
 ---------------------------------------------------------------------
 Center     Atomic      Atomic             Coordinates (Angstroms)
 Number     Number       Type             X           Y           Z
 ---------------------------------------------------------------------
      1          8           0        2.943984   -0.331775    0.388301
      2          6           0        2.081412    0.140983   -0.644560
      3          6           0        0.671684    0.300103   -0.176956
      4          6           0       -0.151854    1.350953   -0.301404
      5          6           0       -1.505459    0.896682    0.221063
      6          6           0       -1.083422   -0.018964    1.380351
      7          6           0       -0.144673   -0.827763    0.446233
      8          6           0       -1.192058   -1.218076   -0.639742
      9          8           0       -2.038786   -0.066094   -0.737255
     10          1           0        2.902564    0.306903    1.107906
     11          1           0        2.444950    1.085844   -1.075669
     12          1           0        2.143483   -0.619441   -1.432958
     13          1           0        0.050735    2.291258   -0.799766
     14          1           0       -2.269376    1.652964    0.391958
     15          1           0       -0.547819    0.498313    2.177758
     16          1           0       -1.916944   -0.597418    1.788449
     17          1           0        0.419481   -1.658791    0.866156
     18          1           0       -0.733838   -1.434685   -1.612002
     19          1           0       -1.788601   -2.085502   -0.330113
 ---------------------------------------------------------------------

 SCF Done:  E(RB3LYP) =  -423.179602412     A.U. after    1 cycles

 The electronic state is 1-A.
 Alpha  occ. eigenvalues --  -19.13925 -19.12982 -10.23450 -10.23280 -10.22400
 Alpha  occ. eigenvalues --  -10.19531 -10.18817 -10.18524 -10.18007  -1.02757
 Alpha  occ. eigenvalues --   -1.01846  -0.84348  -0.74045  -0.73772  -0.67208
 Alpha  occ. eigenvalues --   -0.60343  -0.58316  -0.52731  -0.51831  -0.49909
 Alpha  occ. eigenvalues --   -0.46674  -0.45098  -0.43408  -0.42727  -0.39864
 Alpha  occ. eigenvalues --   -0.37626  -0.35990  -0.35650  -0.34173  -0.32785
 Alpha  occ. eigenvalues --   -0.30949  -0.27783  -0.25138  -0.23819
 Alpha virt. eigenvalues --    0.00071   0.08414   0.10896   0.11688   0.12681
 Alpha virt. eigenvalues --    0.13310   0.14675   0.15573   0.16663   0.17358
 Alpha virt. eigenvalues --    0.17807   0.18177   0.19216   0.20440   0.21897

 Mulliken charges:
               1
     1  O   -0.412090
     2  C   -0.197461
     3  C    0.321197
     4  C   -0.204915
     5  C    0.072523
     6  C   -0.225499
     7  C   -0.146953
     8  C   -0.074175
     9  O   -0.278898
    10  H    0.282055
    11  H    0.095936
    12  H    0.118825
    13  H    0.098468
    14  H    0.074123
    15  H    0.097557
    16  H    0.101322
    17  H    0.081886
    18  H    0.097221
    19  H    0.098879
 Sum of Mulliken charges =   0.00000

 Dipole moment (field-independent basis, Debye):
    X=              0.4175    Y=              0.8926    Z=              1.0518  Tot=              1.4413
 Quadrupole moment (field-independent basis, Debye-Ang):
   XX=            -60.5462   YY=            -49.9760   ZZ=            -51.6979
   XY=              3.3845   XZ=             -2.3384   YZ=              1.1927

  Exact polarizability:  84.533  -2.016  77.150  -2.998  -0.196  66.553
 Approx polarizability: 121.167 -11.262 123.053   1.180  -0.779  99.768

                      1                      2                      3
                      A                      A                      A
 Frequencies --     75.4877               132.9236               228.7984
 Red. masses --      3.7179                 3.9270                 2.7701
 Frc consts  --      0.0125                 0.0409                 0.0854
 IR Inten    --      2.6545                 1.9055                 4.8002

                      4                      5                      6
                      A                      A                      A
 Frequencies --    279.6261               338.5957               414.0953
 Red. masses --      2.8436                 1.2813                 2.2083
 Frc consts  --      0.1310                 0.0866                 0.2231
 IR Inten    --     13.0887                82.2748                32.7884

                      7                      8                      9
                      A                      A                      A
 Frequencies --    477.9784               486.8361               584.1646
 Red. masses --      3.2889                 1.9286                 3.7193
 Frc consts  --      0.4427                 0.2693                 0.7478
 IR Inten    --     10.2242                 3.6352                 1.0337

                     10                     11                     12
                      A                      A                      A
 Frequencies --    639.7935               744.0345               806.2433
 Red. masses --      5.5401                 3.4399                 3.0074
 Frc consts  --      1.3361                 1.1220                 1.1518
 IR Inten    --      7.1621                 5.8770                11.7600

                     13                     14                     15
                      A                      A                      A
 Frequencies --    830.2589               850.7828               877.1585
 Red. masses --      2.5410                 2.6900                 2.5244
 Frc consts  --      1.0320                 1.1472                 1.1443
 IR Inten    --      3.6694                 8.1175                22.3912

                     16                     17                     18
                      A                      A                      A
 Frequencies --    883.4137               940.7738               950.9882
 Red. masses --      2.5957                 2.0867                 3.6032
 Frc consts  --      1.1935                 1.0882                 1.9200
 IR Inten    --     28.8089                 6.7835                11.8404

                     19                     20                     21
                      A                      A                      A
 Frequencies --    959.4991               976.6142               990.0656
 Red. masses --      2.1720                 1.7522                 1.9393
 Frc consts  --      1.1781                 0.9847                 1.1200
 IR Inten    --      8.6983                37.4921                19.7812

                     22                     23                     24
                      A                      A                      A
 Frequencies --   1031.5149              1052.5083              1067.1973
 Red. masses --      2.0653                 5.2442                 1.6076
 Frc consts  --      1.2947                 3.4228                 1.0788
 IR Inten    --     11.7273                57.7026                10.9005

                     25                     26                     27
                      A                      A                      A
 Frequencies --   1126.9062              1149.1449              1191.3769
 Red. masses --      1.1782                 1.7289                 1.1369
 Frc consts  --      0.8816                 1.3452                 0.9507
 IR Inten    --      2.5024                 9.0616                10.7292

                     28                     29                     30
                      A                      A                      A
 Frequencies --   1200.9125              1233.4951              1256.8111
 Red. masses --      1.2258                 2.1437                 1.3593
 Frc consts  --      1.0416                 1.9217                 1.2651
 IR Inten    --      2.5524                11.0220                 3.6165

                     31                     32                     33
                      A                      A                      A
 Frequencies --   1274.1091              1282.4471              1296.3020
 Red. masses --      1.5758                 1.5036                 1.4484
 Frc consts  --      1.5072                 1.4570                 1.4340
 IR Inten    --      7.8754                 2.3461                 0.6896

                     34                     35                     36
                      A                      A                      A
 Frequencies --   1340.8248              1361.5299              1377.4791
 Red. masses --      1.7765                 1.3490                 1.3758
 Frc consts  --      1.8817                 1.4734                 1.5381
 IR Inten    --     12.2454                 3.0950                 2.3580

                     37                     38                     39
                      A                      A                      A
 Frequencies --   1413.9599              1488.1622              1494.1588
 Red. masses --      1.2406                 1.1139                 1.0867
 Frc consts  --      1.4613                 1.4535                 1.4293
 IR Inten    --     69.3046                 2.6580                 1.3346

                     40                     41                     42
                      A                      A                      A
 Frequencies --   1524.4826              1678.7469              2992.2653
 Red. masses --      1.0904                 7.2533                 1.0652
 Frc consts  --      1.4931                12.0436                 5.6192
 IR Inten    --      0.5071                 2.2818                54.0476

                     43                     44                     45
                      A                      A                      A
 Frequencies --   3014.7628              3048.7048              3055.1412
 Red. masses --      1.0562                 1.0968                 1.1083
 Frc consts  --      5.6560                 6.0062                 6.0951
 IR Inten    --     61.7524                22.6215                31.1697

                     46                     47                     48
                      A                      A                      A
 Frequencies --   3066.1334              3131.3267              3136.6202
 Red. masses --      1.0601                 1.1067                 1.0882
 Frc consts  --      5.8717                 6.3933                 6.3079
 IR Inten    --     38.4374                24.4887                34.0714

                     49                     50                     51
                      A                      A                      A
 Frequencies --   3140.8085              3204.3701              3809.6367
 Red. masses --      1.0915                 1.0962                 1.0662
 Frc consts  --      6.3437                 6.6314                 9.1174
 IR Inten    --     18.6756                10.4939                15.3918

 - Thermochemistry -
 -------------------
 Temperature   298.150 Kelvin.  Pressure   1.00000 Atm.
 Atom     1 has atomic number  8 and mass  15.99491

 Molecular mass:   126.06808 amu.
 Principal axes and moments of inertia in atomic units:
                           1         2         3
     Eigenvalues --   518.446361495.412211550.10196
           X            0.99971   0.01334  -0.01990
           Y           -0.01285   0.99962   0.02459
           Z            0.02022  -0.02433   0.99950
 This molecule is an asymmetric top.
 Rotational symmetry number  1.
 Warning -- assumption of classical behavior for rotation
           may cause significant error
 Rotational temperatures (Kelvin)      0.16706     0.05792     0.05588
 Rotational constants (GHZ):           3.48106     1.20685     1.16427
 Zero-point vibrational energy     424135.8 (Joules/Mol)
                                  101.37089 (Kcal/Mol)
 Warning -- explicit consideration of   9 degrees of freedom as
           vibrations may cause significant error
 Vibrational temperatures:    108.61   191.25   329.19   402.32   487.16
          (Kelvin)            595.79   687.70   700.45   840.48   920.52
                             1070.50  1160.00  1194.56  1224.09  1262.03
                             1271.03  1353.56  1368.26  1380.50  1405.13
                             1424.48  1484.12  1514.32  1535.46  1621.36
                             1653.36  1714.12  1727.84  1774.72  1808.27
                             1833.16  1845.15  1865.09  1929.15  1958.94
                             1981.88  2034.37  2141.13  2149.76  2193.39
                             2415.34  4305.20  4337.57  4386.40  4395.66
                             4411.48  4505.28  4512.89  4518.92  4610.37
                             5481.21

 Zero-point correction=                           0.161545 (Hartree/Particle)
 Thermal correction to Energy=                    0.169169
 Thermal correction to Enthalpy=                  0.170113
 Thermal correction to Gibbs Free Energy=         0.129215
 Sum of electronic and zero-point Energies=           -423.018058
 Sum of electronic and thermal Energies=              -423.010434
 Sum of electronic and thermal Enthalpies=            -423.009490
 Sum of electronic and thermal Free Energies=         -423.050387

                     E (Thermal)             CV                S
                      KCal/Mol        Cal/Mol-Kelvin    Cal/Mol-Kelvin
 Total                  106.155             30.139             86.076
 Electronic               0.000              0.000              0.000
 Translational            0.889              2.981             40.409
 Rotational               0.889              2.981             28.576
 Vibrational            104.377             24.178             17.091
 Vibration     1          0.599              1.965              4.005
 Vibration     2          0.613              1.920              2.903
 Vibration     3          0.651              1.797              1.888
 Vibration     4          0.680              1.711              1.536
 Vibration     5          0.719              1.598              1.219
 Vibration     6          0.778              1.440              0.912
 Vibration     7          0.834              1.299              0.716
 Vibration     8          0.843              1.279              0.692
 Vibration     9          0.941              1.066              0.478

 Optimization completed.
    -- Stationary point found.
 Normal termination of Gaussian 09 at Tue Jan 28 13:25:34 2020.
