 Gaussian 09, Revision D.01,
 Gaussian 09:  ES64L-G09RevD.01 24-Apr-2013

 -----------------------------
 # b3lyp 6-31G(2df,p) opt Freq
 -----------------------------

 -----
 titel
 -----
 Symbolic Z-matrix:
 Charge =  0 Multiplicity = 1

 SCF Done:  E(RB3LYP) =  -423.174708801     A.U. after   14 cycles
 Optimization completed.
    -- Stationary point found.
 Normal termination of Gaussian 09 at Mon Jan 27 13:58:40 2020.

 ----------------------------------------------------------------------
 #N Geom=AllCheck Guess=TCheck SCRF=Check GenChk RB3LYP/6-31G(2df,p) Fr
 eq
 ----------------------------------------------------------------------

 Structure from the checkpoint file:  "/scratch/puck/g09_0df358a5-1160-47c9-95f5-39cc78d72b77/Gau-49829.chk"
 -----
 titel
 -----
 Charge =  0 Multiplicity = 1

                         Standard orientation:
 ---------------------------------------------------------------------
 Center     Atomic      Atomic             Coordinates (Angstroms)
 Number     Number       Type             X           Y           Z
 ---------------------------------------------------------------------
      1          6           0        4.210634   -0.429404   -0.107666
      2          6           0        2.796062   -0.087914   -0.133867
      3          6           0        1.628830    0.208159   -0.164388
      4          6           0        0.202382    0.535605   -0.153121
      5          8           0       -0.157538    1.349120    0.963745
      6          6           0       -0.660993   -0.742880   -0.208302
      7          6           0       -2.157372   -0.477845   -0.039954
      8          6           0       -2.772141    0.622836   -0.883759
      9          8           0       -2.815480   -1.136834    0.730279
     10          1           0        4.363225   -1.507081   -0.230807
     11          1           0        4.756896    0.079756   -0.909000
     12          1           0        4.668088   -0.135829    0.843418
     13          1           0       -0.029431    1.159793   -1.024079
     14          1           0        0.143698    0.898604    1.761126
     15          1           0       -0.497002   -1.238506   -1.174385
     16          1           0       -0.356719   -1.441630    0.575858
     17          1           0       -2.449854    0.557059   -1.928635
     18          1           0       -3.859423    0.565797   -0.822480
     19          1           0       -2.439739    1.592412   -0.496871
 ---------------------------------------------------------------------

 SCF Done:  E(RB3LYP) =  -423.174708801     A.U. after    1 cycles

 The electronic state is 1-A.
 Alpha  occ. eigenvalues --  -19.14872 -19.12435 -10.26846 -10.26537 -10.21200
 Alpha  occ. eigenvalues --  -10.19386 -10.18768 -10.18415 -10.17633  -1.03703
 Alpha  occ. eigenvalues --   -1.02981  -0.80028  -0.77709  -0.73726  -0.70290
 Alpha  occ. eigenvalues --   -0.65185  -0.55276  -0.51504  -0.48261  -0.47221
 Alpha  occ. eigenvalues --   -0.45955  -0.44883  -0.43638  -0.43431  -0.43120
 Alpha  occ. eigenvalues --   -0.41397  -0.38496  -0.37694  -0.35406  -0.34749
 Alpha  occ. eigenvalues --   -0.29369  -0.26658  -0.26144  -0.23782
 Alpha virt. eigenvalues --   -0.00925   0.02982   0.05166   0.09016   0.10280
 Alpha virt. eigenvalues --    0.10458   0.13776   0.14596   0.15545   0.16816
 Alpha virt. eigenvalues --    0.16957   0.17571   0.18489   0.20017   0.21276

 Mulliken charges:
               1
     1  C   -0.500469
     2  C    0.134917
     3  C    0.018977
     4  C   -0.079512
     5  O   -0.417194
     6  C   -0.312017
     7  C    0.393341
     8  C   -0.486276
     9  O   -0.296985
    10  H    0.152127
    11  H    0.153472
    12  H    0.153949
    13  H    0.118593
    14  H    0.288326
    15  H    0.126211
    16  H    0.121580
    17  H    0.127556
    18  H    0.138001
    19  H    0.165402
 Sum of Mulliken charges =   0.00000

 Dipole moment (field-independent basis, Debye):
    X=              2.9115    Y=              0.1284    Z=             -1.4111  Tot=              3.2380
 Quadrupole moment (field-independent basis, Debye-Ang):
   XX=            -50.7698   YY=            -57.1637   ZZ=            -50.4460
   XY=             -6.1566   XZ=              5.7596   YZ=              0.7248

  Exact polarizability: 117.274  -6.688  64.653  -1.054  -3.433  64.122
 Approx polarizability: 153.683  -9.891  98.526  -5.916  -7.208  99.572

                      1                      2                      3
                      A                      A                      A
 Frequencies --     16.0496                54.6685                60.0115
 Red. masses --      1.0270                 4.2511                 3.6200
 Frc consts  --      0.0002                 0.0075                 0.0077
 IR Inten    --      0.0338                 3.7638                 3.4631

                      4                      5                      6
                      A                      A                      A
 Frequencies --     79.0586               147.6319               152.3402
 Red. masses --      3.9384                 3.7337                 1.1656
 Frc consts  --      0.0145                 0.0479                 0.0159
 IR Inten    --      0.9778                 0.2725                 0.1769

                      7                      8                      9
                      A                      A                      A
 Frequencies --    189.6401               280.2135               286.0544
 Red. masses --      3.0438                 3.7117                 1.2871
 Frc consts  --      0.0645                 0.1717                 0.0621
 IR Inten    --      4.3019                 8.1233                66.9849

                     10                     11                     12
                      A                      A                      A
 Frequencies --    345.2700               364.9707               418.4569
 Red. masses --      2.7632                 2.7267                 3.8466
 Frc consts  --      0.1941                 0.2140                 0.3969
 IR Inten    --     42.4376                 0.7102                 9.6142

                     13                     14                     15
                      A                      A                      A
 Frequencies --    460.8228               539.7816               550.7043
 Red. masses --      4.0819                 2.7147                 3.7927
 Frc consts  --      0.5107                 0.4660                 0.6777
 IR Inten    --      4.6391                 2.4777                 6.7347

                     16                     17                     18
                      A                      A                      A
 Frequencies --    571.6403               774.7030               800.1671
 Red. masses --      4.0138                 3.8739                 3.0495
 Frc consts  --      0.7728                 1.3698                 1.1504
 IR Inten    --     29.1456                 7.6263                11.8956

                     19                     20                     21
                      A                      A                      A
 Frequencies --    854.5397               939.7577              1005.0085
 Red. masses --      1.9323                 2.0361                 2.0161
 Frc consts  --      0.8313                 1.0595                 1.1998
 IR Inten    --      0.1303                30.4323                13.4265

                     22                     23                     24
                      A                      A                      A
 Frequencies --   1051.1658              1051.6384              1056.4101
 Red. masses --      1.5795                 1.4716                 1.7187
 Frc consts  --      1.0283                 0.9589                 1.1301
 IR Inten    --      5.3321                 0.8907                12.7727

                     25                     26                     27
                      A                      A                      A
 Frequencies --   1082.4455              1157.2729              1175.0015
 Red. masses --      3.7925                 1.7053                 2.5370
 Frc consts  --      2.6181                 1.3456                 2.0637
 IR Inten    --     64.2790                10.3943                12.1773

                     28                     29                     30
                      A                      A                      A
 Frequencies --   1238.4783              1271.6048              1297.5865
 Red. masses --      2.1897                 1.2898                 1.4699
 Frc consts  --      1.9788                 1.2287                 1.4582
 IR Inten    --    105.9843                 2.7158                22.1979

                     31                     32                     33
                      A                      A                      A
 Frequencies --   1361.0981              1377.3866              1413.2902
 Red. masses --      1.3890                 1.3281                 1.2545
 Frc consts  --      1.5161                 1.4845                 1.4763
 IR Inten    --     18.6712                45.7544                21.6660

                     34                     35                     36
                      A                      A                      A
 Frequencies --   1420.9909              1459.0975              1467.3774
 Red. masses --      1.2020                 1.0918                 1.0574
 Frc consts  --      1.4300                 1.3695                 1.3414
 IR Inten    --     57.0502                 1.7148                11.7425

                     37                     38                     39
                      A                      A                      A
 Frequencies --   1476.0223              1477.8335              1480.1201
 Red. masses --      1.0393                 1.0398                 1.0491
 Frc consts  --      1.3340                 1.3379                 1.3542
 IR Inten    --      6.0196                 6.0466                 9.2634

                     40                     41                     42
                      A                      A                      A
 Frequencies --   1816.3305              2367.0308              3029.8784
 Red. masses --     10.7574                11.8677                 1.0348
 Frc consts  --     20.9096                39.1764                 5.5968
 IR Inten    --    174.1370                15.6966                26.8281

                     43                     44                     45
                      A                      A                      A
 Frequencies --   3032.2824              3037.6707              3044.6036
 Red. masses --      1.0613                 1.0435                 1.0782
 Frc consts  --      5.7494                 5.6729                 5.8884
 IR Inten    --      5.7063                 2.2068                17.1928

                     46                     47                     48
                      A                      A                      A
 Frequencies --   3092.1377              3092.5590              3102.7144
 Red. masses --      1.1003                 1.1002                 1.0982
 Frc consts  --      6.1982                 6.1996                 6.2292
 IR Inten    --      8.3425                 7.9419                 2.3444

                     49                     50                     51
                      A                      A                      A
 Frequencies --   3104.0391              3151.6000              3802.0883
 Red. masses --      1.0984                 1.1019                 1.0661
 Frc consts  --      6.2355                 6.4483                 9.0805
 IR Inten    --     17.6954                11.6522                24.1544

 - Thermochemistry -
 -------------------
 Temperature   298.150 Kelvin.  Pressure   1.00000 Atm.
 Atom     1 has atomic number  6 and mass  12.00000

 Molecular mass:   126.06808 amu.
 Principal axes and moments of inertia in atomic units:
                           1         2         3
     Eigenvalues --   454.866802704.141202828.98744
           X            0.99972  -0.01999   0.01304
           Y            0.02047   0.99908  -0.03756
           Z           -0.01228   0.03781   0.99921
 This molecule is an asymmetric top.
 Rotational symmetry number  1.
 Warning -- assumption of classical behavior for rotation
           may cause significant error
 Rotational temperatures (Kelvin)      0.19042     0.03203     0.03062
 Rotational constants (GHZ):           3.96763     0.66740     0.63795
 Zero-point vibrational energy     406008.1 (Joules/Mol)
                                   97.03825 (Kcal/Mol)
 Warning -- explicit consideration of  16 degrees of freedom as
           vibrations may cause significant error
 Vibrational temperatures:     23.09    78.66    86.34   113.75   212.41
          (Kelvin)            219.18   272.85   403.16   411.57   496.77
                              525.11   602.07   663.02   776.62   792.34
                              822.46  1114.62  1151.26  1229.49  1352.10
                             1445.98  1512.39  1513.07  1519.94  1557.40
                             1665.06  1690.56  1781.89  1829.55  1866.94
                             1958.31  1981.75  2033.41  2044.49  2099.31
                             2111.23  2123.66  2126.27  2129.56  2613.29
                             3405.63  4359.31  4362.77  4370.53  4380.50
                             4448.89  4449.50  4464.11  4466.01  4534.44
                             5470.35

 Zero-point correction=                           0.154640 (Hartree/Particle)
 Thermal correction to Energy=                    0.165927
 Thermal correction to Enthalpy=                  0.166871
 Thermal correction to Gibbs Free Energy=         0.115685
 Sum of electronic and zero-point Energies=           -423.020068
 Sum of electronic and thermal Energies=              -423.008782
 Sum of electronic and thermal Enthalpies=            -423.007838
 Sum of electronic and thermal Free Energies=         -423.059024

                     E (Thermal)             CV                S
                      KCal/Mol        Cal/Mol-Kelvin    Cal/Mol-Kelvin
 Total                  104.121             38.035            107.730
 Electronic               0.000              0.000              0.000
 Translational            0.889              2.981             40.409
 Rotational               0.889              2.981             29.633
 Vibrational            102.343             32.074             37.689
 Vibration     1          0.593              1.986              7.071
 Vibration     2          0.596              1.976              4.641
 Vibration     3          0.597              1.973              4.457
 Vibration     4          0.600              1.963              3.914
 Vibration     5          0.617              1.905              2.703
 Vibration     6          0.619              1.900              2.643
 Vibration     7          0.633              1.854              2.231
 Vibration     8          0.680              1.710              1.532
 Vibration     9          0.684              1.700              1.497
 Vibration    10          0.724              1.585              1.188
 Vibration    11          0.738              1.544              1.101
 Vibration    12          0.781              1.430              0.897
 Vibration    13          0.819              1.337              0.764
 Vibration    14          0.895              1.162              0.566
 Vibration    15          0.906              1.138              0.543
 Vibration    16          0.928              1.093              0.501

 Normal termination of Gaussian 09 at Mon Jan 27 14:31:44 2020.
