 Gaussian 09, Revision D.01,
 Gaussian 09:  ES64L-G09RevD.01 24-Apr-2013

 -----------------------------
 # b3lyp 6-31G(2df,p) opt Freq
 -----------------------------

 -----
 titel
 -----
 Symbolic Z-matrix:
 Charge =  0 Multiplicity = 1

 SCF Done:  E(RB3LYP) =  -423.164044245     A.U. after   13 cycles
 Optimization completed.
    -- Stationary point found.
 Normal termination of Gaussian 09 at Mon Jan 27 12:17:54 2020.

 ----------------------------------------------------------------------
 #N Geom=AllCheck Guess=TCheck SCRF=Check GenChk RB3LYP/6-31G(2df,p) Fr
 eq
 ----------------------------------------------------------------------

 Structure from the checkpoint file:  "/scratch/puck/g09_9d9263c9-ba52-4a53-89c8-324c462a22a9/Gau-167048.chk"
 -----
 titel
 -----
 Charge =  0 Multiplicity = 1

                         Standard orientation:
 ---------------------------------------------------------------------
 Center     Atomic      Atomic             Coordinates (Angstroms)
 Number     Number       Type             X           Y           Z
 ---------------------------------------------------------------------
      1          6           0       -2.061952   -0.053603    0.160537
      2          6           0       -1.286236   -1.359788    0.519200
      3          6           0       -0.023351   -0.687034   -0.024965
      4          8           0        1.058183   -1.377606   -0.648479
      5          6           0        2.017333   -0.466514   -0.061092
      6          6           0        0.929976    0.199855    0.812552
      7          6           0        0.512117    1.645185    0.529033
      8          8           0       -0.272548    1.623966   -0.666259
      9          6           0       -0.874340    0.352362   -0.777626
     10          1           0       -3.036267   -0.171439   -0.315066
     11          1           0       -2.164608    0.625505    1.009898
     12          1           0       -1.277253   -1.691640    1.559918
     13          1           0       -1.585995   -2.197690   -0.116695
     14          1           0        2.806385   -1.003267    0.475778
     15          1           0        2.469559    0.191824   -0.813102
     16          1           0        1.010649   -0.025427    1.876458
     17          1           0       -0.074963    2.041792    1.370813
     18          1           0        1.354332    2.323096    0.357579
     19          1           0       -1.068203    0.153585   -1.833514
 ---------------------------------------------------------------------

 SCF Done:  E(RB3LYP) =  -423.164044245     A.U. after    1 cycles

 The electronic state is 1-A.
 Alpha  occ. eigenvalues --  -19.13973 -19.13429 -10.23377 -10.23285 -10.23153
 Alpha  occ. eigenvalues --  -10.22403 -10.19571 -10.18602 -10.18516  -1.05137
 Alpha  occ. eigenvalues --   -1.02609  -0.83419  -0.76993  -0.68641  -0.66723
 Alpha  occ. eigenvalues --   -0.63416  -0.57837  -0.54334  -0.50931  -0.49630
 Alpha  occ. eigenvalues --   -0.45869  -0.45272  -0.43832  -0.41889  -0.40575
 Alpha  occ. eigenvalues --   -0.38651  -0.37537  -0.35153  -0.34733  -0.31476
 Alpha  occ. eigenvalues --   -0.30573  -0.29595  -0.25964  -0.23328
 Alpha virt. eigenvalues --    0.06984   0.08214   0.10122   0.11974   0.12130
 Alpha virt. eigenvalues --    0.12513   0.13923   0.15457   0.16831   0.17918
 Alpha virt. eigenvalues --    0.18220   0.18567   0.18989   0.21088   0.22986

 Mulliken charges:
               1
     1  C   -0.273142
     2  C   -0.325328
     3  C    0.453258
     4  O   -0.329772
     5  C   -0.101645
     6  C   -0.158477
     7  C   -0.106435
     8  O   -0.265566
     9  C    0.065124
    10  H    0.109135
    11  H    0.110619
    12  H    0.102048
    13  H    0.119173
    14  H    0.106147
    15  H    0.108529
    16  H    0.085858
    17  H    0.097216
    18  H    0.111344
    19  H    0.091914
 Sum of Mulliken charges =   0.00000

 Dipole moment (field-independent basis, Debye):
    X=              0.0517    Y=              0.2049    Z=              1.8499  Tot=              1.8619
 Quadrupole moment (field-independent basis, Debye-Ang):
   XX=            -49.6395   YY=            -57.6619   ZZ=            -52.5993
   XY=              3.2775   XZ=              1.8709   YZ=              0.8864

  Exact polarizability:  83.740   3.439  71.897   1.082   0.818  65.508
 Approx polarizability: 111.276   3.528 105.079   1.492   1.716 101.840

                      1                      2                      3
                      A                      A                      A
 Frequencies --    132.1808               186.9825               247.8424
 Red. masses --      2.3980                 2.6270                 2.4282
 Frc consts  --      0.0247                 0.0541                 0.0879
 IR Inten    --      1.4711                 4.5366                 3.1696

                      4                      5                      6
                      A                      A                      A
 Frequencies --    300.3232               377.4601               425.0824
 Red. masses --      4.4883                 2.0353                 3.4034
 Frc consts  --      0.2385                 0.1709                 0.3623
 IR Inten    --      1.7410                 0.7078                 0.7987

                      7                      8                      9
                      A                      A                      A
 Frequencies --    512.2873               623.6314               695.3344
 Red. masses --      3.7557                 3.6257                 2.3652
 Frc consts  --      0.5807                 0.8308                 0.6738
 IR Inten    --      5.6032                 3.5443                 1.2714

                     10                     11                     12
                      A                      A                      A
 Frequencies --    716.9168               787.9768               816.0282
 Red. masses --      3.2701                 2.0377                 2.1618
 Frc consts  --      0.9902                 0.7454                 0.8482
 IR Inten    --     11.1330                 5.4125                 3.0355

                     13                     14                     15
                      A                      A                      A
 Frequencies --    846.1411               876.0157               916.4578
 Red. masses --      1.9862                 2.3255                 3.1227
 Frc consts  --      0.8378                 1.0515                 1.5453
 IR Inten    --      5.3100                 2.7577                10.3184

                     16                     17                     18
                      A                      A                      A
 Frequencies --    925.8378               938.4947               968.0488
 Red. masses --      2.1887                 1.4996                 3.0765
 Frc consts  --      1.1054                 0.7782                 1.6986
 IR Inten    --      5.6330                 1.1163                22.8692

                     19                     20                     21
                      A                      A                      A
 Frequencies --   1008.3680              1049.7615              1069.0030
 Red. masses --      7.4048                 2.4055                 2.3503
 Frc consts  --      4.4361                 1.5618                 1.5825
 IR Inten    --     69.1977                27.6786                 6.7272

                     22                     23                     24
                      A                      A                      A
 Frequencies --   1092.9941              1120.4301              1130.5833
 Red. masses --      2.1377                 3.1327                 1.9464
 Frc consts  --      1.5046                 2.3170                 1.4659
 IR Inten    --     15.3145                43.9620                 6.6769

                     25                     26                     27
                      A                      A                      A
 Frequencies --   1161.5615              1167.4272              1170.7089
 Red. masses --      3.1133                 1.3803                 1.2977
 Frc consts  --      2.4749                 1.1083                 1.0479
 IR Inten    --     47.4392                12.4464                 2.0344

                     28                     29                     30
                      A                      A                      A
 Frequencies --   1212.2564              1224.2419              1238.4020
 Red. masses --      1.4598                 1.3872                 1.3750
 Frc consts  --      1.2640                 1.2250                 1.2424
 IR Inten    --      3.3089                22.4585                 3.8865

                     31                     32                     33
                      A                      A                      A
 Frequencies --   1240.5288              1273.4197              1288.4133
 Red. masses --      1.3540                 1.5750                 2.6811
 Frc consts  --      1.2277                 1.5048                 2.6222
 IR Inten    --      5.1973                 5.9265                29.3348

                     34                     35                     36
                      A                      A                      A
 Frequencies --   1333.4173              1347.0857              1352.5074
 Red. masses --      1.5532                 1.2738                 1.5452
 Frc consts  --      1.6271                 1.3619                 1.6654
 IR Inten    --      5.0946                 5.9289                 9.3735

                     37                     38                     39
                      A                      A                      A
 Frequencies --   1401.2118              1475.8710              1492.4116
 Red. masses --      1.4406                 1.0848                 1.1367
 Frc consts  --      1.6665                 1.3922                 1.4917
 IR Inten    --      2.5160                 1.1594                 7.7281

                     40                     41                     42
                      A                      A                      A
 Frequencies --   1516.9806              1523.5587              2992.2552
 Red. masses --      1.0946                 1.1046                 1.0697
 Frc consts  --      1.4841                 1.5107                 5.6429
 IR Inten    --      2.0030                 0.5839                55.4236

                     43                     44                     45
                      A                      A                      A
 Frequencies --   3022.8057              3061.4103              3072.3982
 Red. masses --      1.0567                 1.0579                 1.1054
 Frc consts  --      5.6890                 5.8415                 6.1477
 IR Inten    --     65.5928                27.6012                27.4017

                     46                     47                     48
                      A                      A                      A
 Frequencies --   3075.0382              3078.5603              3098.1370
 Red. masses --      1.0963                 1.0610                 1.0891
 Frc consts  --      6.1078                 5.9245                 6.1589
 IR Inten    --     33.1635                25.7634                21.8851

                     49                     50                     51
                      A                      A                      A
 Frequencies --   3108.9246              3112.1061              3137.1179
 Red. masses --      1.0909                 1.1055                 1.1074
 Frc consts  --      6.2123                 6.3085                 6.4212
 IR Inten    --     14.7906                17.9426                32.0863

 - Thermochemistry -
 -------------------
 Temperature   298.150 Kelvin.  Pressure   1.00000 Atm.
 Atom     1 has atomic number  6 and mass  12.00000

 Molecular mass:   126.06808 amu.
 Principal axes and moments of inertia in atomic units:
                           1         2         3
     Eigenvalues --   732.20280 884.732501264.83815
           X            0.99239   0.12305   0.00353
           Y           -0.12308   0.99235   0.00922
           Z           -0.00237  -0.00958   0.99995
 This molecule is an asymmetric top.
 Rotational symmetry number  1.
 Warning -- assumption of classical behavior for rotation
           may cause significant error
 Rotational temperatures (Kelvin)      0.11829     0.09790     0.06848
 Rotational constants (GHZ):           2.46481     2.03987     1.42686
 Zero-point vibrational energy     424333.0 (Joules/Mol)
                                  101.41802 (Kcal/Mol)
 Warning -- explicit consideration of   7 degrees of freedom as
           vibrations may cause significant error
 Vibrational temperatures:    190.18   269.03   356.59   432.10   543.08
          (Kelvin)            611.60   737.07   897.27  1000.43  1031.48
                             1133.72  1174.08  1217.41  1260.39  1318.58
                             1332.07  1350.28  1392.80  1450.81  1510.37
                             1538.05  1572.57  1612.05  1626.66  1671.23
                             1679.67  1684.39  1744.16  1761.41  1781.78
                             1784.84  1832.16  1853.74  1918.49  1938.15
                             1945.95  2016.03  2123.45  2147.24  2182.59
                             2192.06  4305.18  4349.14  4404.68  4420.49
                             4424.29  4429.36  4457.52  4473.04  4477.62
                             4513.61

 Zero-point correction=                           0.161620 (Hartree/Particle)
 Thermal correction to Energy=                    0.168649
 Thermal correction to Enthalpy=                  0.169593
 Thermal correction to Gibbs Free Energy=         0.130340
 Sum of electronic and zero-point Energies=           -423.002424
 Sum of electronic and thermal Energies=              -422.995395
 Sum of electronic and thermal Enthalpies=            -422.994451
 Sum of electronic and thermal Free Energies=         -423.033704

                     E (Thermal)             CV                S
                      KCal/Mol        Cal/Mol-Kelvin    Cal/Mol-Kelvin
 Total                  105.829             28.507             82.615
 Electronic               0.000              0.000              0.000
 Translational            0.889              2.981             40.409
 Rotational               0.889              2.981             28.196
 Vibrational            104.052             22.546             14.011
 Vibration     1          0.612              1.921              2.914
 Vibration     2          0.632              1.858              2.258
 Vibration     3          0.661              1.766              1.746
 Vibration     4          0.693              1.673              1.415
 Vibration     5          0.748              1.518              1.049
 Vibration     6          0.787              1.416              0.875
 Vibration     7          0.867              1.223              0.628

 Normal termination of Gaussian 09 at Mon Jan 27 13:06:33 2020.
