 Gaussian 09, Revision D.01,
 Gaussian 09:  ES64L-G09RevD.01 24-Apr-2013

 -----------------------------
 # b3lyp 6-31G(2df,p) opt Freq
 -----------------------------

 -----
 titel
 -----
 Symbolic Z-matrix:
 Charge =  0 Multiplicity = 1

 SCF Done:  E(RB3LYP) =  -423.129269524     A.U. after   13 cycles
 Optimization completed.
    -- Stationary point found.
 Normal termination of Gaussian 09 at Mon Jan 27 22:04:00 2020.

 ----------------------------------------------------------------------
 #N Geom=AllCheck Guess=TCheck SCRF=Check GenChk RB3LYP/6-31G(2df,p) Fr
 eq
 ----------------------------------------------------------------------

 Structure from the checkpoint file:  "/scratch/puck/g09_0a5a4c01-7459-475f-aba4-e78c166c22b7/Gau-62987.chk"
 -----
 titel
 -----
 Charge =  0 Multiplicity = 1

                         Standard orientation:
 ---------------------------------------------------------------------
 Center     Atomic      Atomic             Coordinates (Angstroms)
 Number     Number       Type             X           Y           Z
 ---------------------------------------------------------------------
      1          8           0        0.000002    2.045806   -0.107782
      2          6           0        0.000000    0.741368   -0.620141
      3          6           0        1.017303   -0.265487   -0.075665
      4          6           0        2.203076    0.014836    0.790193
      5          6           0        2.360482   -0.678404   -0.559043
      6          8           0       -0.000001   -1.206721    0.287239
      7          6           0       -1.017304   -0.265485   -0.075664
      8          6           0       -2.360483   -0.678403   -0.559043
      9          6           0       -2.203077    0.014838    0.790193
     10          1           0        0.000016    1.979027    0.854316
     11          1           0       -0.000001    0.840760   -1.708536
     12          1           0        2.532989    1.044826    0.883771
     13          1           0        2.324358   -0.593546    1.679812
     14          1           0        2.808788   -0.127161   -1.379460
     15          1           0        2.582470   -1.740147   -0.547334
     16          1           0       -2.808790   -0.127160   -1.379460
     17          1           0       -2.582470   -1.740146   -0.547333
     18          1           0       -2.532988    1.044829    0.883770
     19          1           0       -2.324361   -0.593542    1.679813
 ---------------------------------------------------------------------

 SCF Done:  E(RB3LYP) =  -423.129269524     A.U. after    1 cycles

 The electronic state is 1-A.
 Alpha  occ. eigenvalues --  -19.14811 -19.14118 -10.24040 -10.23910 -10.23908
 Alpha  occ. eigenvalues --  -10.18753 -10.18753 -10.18724 -10.18724  -1.05719
 Alpha  occ. eigenvalues --   -1.02317  -0.86126  -0.83628  -0.71476  -0.61200
 Alpha  occ. eigenvalues --   -0.60584  -0.58110  -0.56565  -0.51276  -0.51107
 Alpha  occ. eigenvalues --   -0.46573  -0.46171  -0.45331  -0.40170  -0.39872
 Alpha  occ. eigenvalues --   -0.38521  -0.37150  -0.36256  -0.32547  -0.31395
 Alpha  occ. eigenvalues --   -0.30228  -0.30135  -0.25979  -0.22335
 Alpha virt. eigenvalues --    0.07470   0.07693   0.09971   0.10794   0.11626
 Alpha virt. eigenvalues --    0.11703   0.13872   0.16272   0.16769   0.16884
 Alpha virt. eigenvalues --    0.18427   0.19680   0.21502   0.22347   0.22529

 Mulliken charges:
               1
     1  O   -0.423600
     2  C   -0.090112
     3  C    0.414228
     4  C   -0.340276
     5  C   -0.343483
     6  O   -0.325258
     7  C    0.414228
     8  C   -0.343483
     9  C   -0.340275
    10  H    0.285753
    11  H    0.105387
    12  H    0.121266
    13  H    0.125260
    14  H    0.119809
    15  H    0.127111
    16  H    0.119809
    17  H    0.127111
    18  H    0.121266
    19  H    0.125259
 Sum of Mulliken charges =   0.00000

 Dipole moment (field-independent basis, Debye):
    X=              0.0000    Y=              0.2189    Z=              0.3635  Tot=              0.4243
 Quadrupole moment (field-independent basis, Debye-Ang):
   XX=            -51.1364   YY=            -56.9335   ZZ=            -50.0649
   XY=              0.0000   XZ=              0.0000   YZ=              2.3515

  Exact polarizability:  91.026   0.000  68.706   0.000   2.628  69.817
 Approx polarizability: 112.920   0.000 103.383   0.000   3.693 105.381

                      1                      2                      3
                      A                      A                      A
 Frequencies --     58.5600               195.0011               195.8532
 Red. masses --      4.1536                 3.0910                 2.7671
 Frc consts  --      0.0084                 0.0692                 0.0625
 IR Inten    --      1.2700                 1.0256                 0.9056

                      4                      5                      6
                      A                      A                      A
 Frequencies --    218.0489               240.1050               312.8027
 Red. masses --      2.5892                 2.1895                 1.3588
 Frc consts  --      0.0725                 0.0744                 0.0783
 IR Inten    --      1.0955                 0.0904                66.8941

                      7                      8                      9
                      A                      A                      A
 Frequencies --    384.9538               404.0014               455.5494
 Red. masses --      2.1811                 3.1981                 4.3387
 Frc consts  --      0.1904                 0.3075                 0.5305
 IR Inten    --     34.8364                 6.8559                 0.0308

                     10                     11                     12
                      A                      A                      A
 Frequencies --    501.9266               582.9181               706.8017
 Red. masses --      3.1399                 3.8983                 3.7963
 Frc consts  --      0.4661                 0.7804                 1.1174
 IR Inten    --     24.7273                 2.8071                 4.0542

                     13                     14                     15
                      A                      A                      A
 Frequencies --    761.4500               768.1732               809.5159
 Red. masses --      1.0521                 1.0458                 2.7846
 Frc consts  --      0.3594                 0.3636                 1.0752
 IR Inten    --      3.0630                 0.0034                21.3291

                     16                     17                     18
                      A                      A                      A
 Frequencies --    869.1799               869.2508               906.4926
 Red. masses --      2.1891                 1.4166                 1.4197
 Frc consts  --      0.9744                 0.6306                 0.6873
 IR Inten    --      5.4851                 6.7025                 7.4155

                     19                     20                     21
                      A                      A                      A
 Frequencies --    910.1004               963.1572               981.6792
 Red. masses --      2.0245                 3.7501                 3.1431
 Frc consts  --      0.9880                 2.0497                 1.7846
 IR Inten    --     56.8032                27.8543                 3.6294

                     22                     23                     24
                      A                      A                      A
 Frequencies --    987.4889              1021.0522              1043.3887
 Red. masses --      2.7684                 4.7439                 1.4839
 Frc consts  --      1.5905                 2.9139                 0.9518
 IR Inten    --     10.5961                11.5957                36.0535

                     25                     26                     27
                      A                      A                      A
 Frequencies --   1045.6911              1069.2379              1069.2885
 Red. masses --      1.4870                 1.4923                 1.4911
 Frc consts  --      0.9580                 1.0052                 1.0045
 IR Inten    --      1.1401                 0.4115                 0.0136

                     28                     29                     30
                      A                      A                      A
 Frequencies --   1141.7088              1185.2998              1188.8113
 Red. masses --      3.4569                 2.5892                 1.2601
 Frc consts  --      2.6549                 2.1433                 1.0492
 IR Inten    --    130.1602               114.7470                 0.4815

                     31                     32                     33
                      A                      A                      A
 Frequencies --   1189.1426              1221.9224              1277.5294
 Red. masses --      1.2538                 1.3534                 1.8296
 Frc consts  --      1.0446                 1.1906                 1.7593
 IR Inten    --      0.6051                21.0932                 5.7312

                     34                     35                     36
                      A                      A                      A
 Frequencies --   1291.7977              1340.5104              1397.4988
 Red. masses --      2.0869                 2.8574                 1.5540
 Frc consts  --      2.0518                 3.0253                 1.7882
 IR Inten    --      8.6350                32.9499                 1.4982

                     37                     38                     39
                      A                      A                      A
 Frequencies --   1444.3650              1446.3360              1448.5250
 Red. masses --      1.2169                 1.0918                 1.2073
 Frc consts  --      1.4958                 1.3457                 1.4925
 IR Inten    --     24.0170                 0.0590                33.3345

                     40                     41                     42
                      A                      A                      A
 Frequencies --   1487.2381              1512.2726              3083.4135
 Red. masses --      1.4664                 2.3716                 1.0867
 Frc consts  --      1.9110                 3.1956                 6.0876
 IR Inten    --     26.7809                 4.8714                23.3019

                     43                     44                     45
                      A                      A                      A
 Frequencies --   3127.2307              3127.3961              3129.1721
 Red. masses --      1.0504                 1.0503                 1.0575
 Frc consts  --      6.0521                 6.0523                 6.1010
 IR Inten    --      0.0000                23.0362                 0.8248

                     46                     47                     48
                      A                      A                      A
 Frequencies --   3129.2270              3211.7283              3211.9402
 Red. masses --      1.0576                 1.1180                 1.1182
 Frc consts  --      6.1018                 6.7946                 6.7967
 IR Inten    --      9.5544                 0.0205                 0.3876

                     49                     50                     51
                      A                      A                      A
 Frequencies --   3225.7592              3225.8354              3795.3102
 Red. masses --      1.1154                 1.1153                 1.0655
 Frc consts  --      6.8380                 6.8380                 9.0428
 IR Inten    --      0.8118                15.0340                15.1823

 - Thermochemistry -
 -------------------
 Temperature   298.150 Kelvin.  Pressure   1.00000 Atm.
 Atom     1 has atomic number  8 and mass  15.99491

 Molecular mass:   126.06808 amu.
 Principal axes and moments of inertia in atomic units:
                           1         2         3
     Eigenvalues --   597.801031329.391751612.56330
           X            1.00000   0.00000   0.00000
           Y            0.00000   0.99956   0.02954
           Z            0.00000  -0.02954   0.99956
 This molecule is an asymmetric top.
 Rotational symmetry number  1.
 Warning -- assumption of classical behavior for rotation
           may cause significant error
 Rotational temperatures (Kelvin)      0.14489     0.06515     0.05371
 Rotational constants (GHZ):           3.01897     1.35757     1.11918
 Zero-point vibrational energy     413738.3 (Joules/Mol)
                                   98.88582 (Kcal/Mol)
 Warning -- explicit consideration of  11 degrees of freedom as
           vibrations may cause significant error
 Vibrational temperatures:     84.25   280.56   281.79   313.72   345.46
          (Kelvin)            450.05   553.86   581.27   655.43   722.16
                              838.69  1016.93  1095.56  1105.23  1164.71
                             1250.55  1250.66  1304.24  1309.43  1385.77
                             1412.42  1420.77  1469.06  1501.20  1504.51
                             1538.39  1538.47  1642.66  1705.38  1710.43
                             1710.91  1758.07  1838.08  1858.61  1928.69
                             2010.69  2078.12  2080.95  2084.10  2139.80
                             2175.82  4436.34  4499.38  4499.62  4502.18
                             4502.25  4620.95  4621.26  4641.14  4641.25
                             5460.60

 Zero-point correction=                           0.157585 (Hartree/Particle)
 Thermal correction to Energy=                    0.166110
 Thermal correction to Enthalpy=                  0.167055
 Thermal correction to Gibbs Free Energy=         0.124507
 Sum of electronic and zero-point Energies=           -422.971685
 Sum of electronic and thermal Energies=              -422.963159
 Sum of electronic and thermal Enthalpies=            -422.962215
 Sum of electronic and thermal Free Energies=         -423.004763

                     E (Thermal)             CV                S
                      KCal/Mol        Cal/Mol-Kelvin    Cal/Mol-Kelvin
 Total                  104.236             33.318             89.549
 Electronic               0.000              0.000              0.000
 Translational            0.889              2.981             40.409
 Rotational               0.889              2.981             28.640
 Vibrational            102.458             27.357             20.500
 Vibration     1          0.596              1.974              4.505
 Vibration     2          0.636              1.847              2.180
 Vibration     3          0.636              1.846              2.172
 Vibration     4          0.646              1.814              1.975
 Vibration     5          0.657              1.779              1.802
 Vibration     6          0.701              1.649              1.347
 Vibration     7          0.754              1.502              1.020
 Vibration     8          0.769              1.461              0.948
 Vibration     9          0.814              1.349              0.779
 Vibration    10          0.857              1.246              0.653
 Vibration    11          0.940              1.068              0.480

 Normal termination of Gaussian 09 at Mon Jan 27 22:47:33 2020.
