 Gaussian 09, Revision D.01,
 Gaussian 09:  ES64L-G09RevD.01 24-Apr-2013

 -----------------------------
 # b3lyp 6-31G(2df,p) opt Freq
 -----------------------------

 -----
 titel
 -----
 Symbolic Z-matrix:
 Charge =  0 Multiplicity = 1

 SCF Done:  E(RB3LYP) =  -423.173912406     A.U. after   14 cycles
 Optimization completed.
    -- Stationary point found.
 Normal termination of Gaussian 09 at Tue Jan 28 02:53:20 2020.

 ----------------------------------------------------------------------
 #N Geom=AllCheck Guess=TCheck SCRF=Check GenChk RB3LYP/6-31G(2df,p) Fr
 eq
 ----------------------------------------------------------------------

 Structure from the checkpoint file:  "/scratch/puck/g09_1fd94a35-c574-43a0-980d-ee662bc8899f/Gau-196310.chk"
 -----
 titel
 -----
 Charge =  0 Multiplicity = 1

                         Standard orientation:
 ---------------------------------------------------------------------
 Center     Atomic      Atomic             Coordinates (Angstroms)
 Number     Number       Type             X           Y           Z
 ---------------------------------------------------------------------
      1          6           0        2.298255    0.636942   -0.732520
      2          6           0        1.619717   -0.395304    0.155181
      3          6           0        0.658754   -1.451358   -0.473309
      4          6           0       -0.381862   -1.197470    0.648462
      5          6           0       -1.540184   -0.242413    0.246832
      6          8           0       -2.168441   -0.384105   -0.996873
      7          6           0       -0.572487    0.929576    0.449793
      8          8           0       -0.597330    2.062264    0.050938
      9          6           0        0.475050    0.041194    1.132002
     10          1           0        2.860976    1.363884   -0.137071
     11          1           0        3.001736    0.147529   -1.415152
     12          1           0        1.574398    1.193653   -1.334165
     13          1           0        2.376400   -0.912094    0.754628
     14          1           0        0.275244   -1.184102   -1.462120
     15          1           0        1.055804   -2.466636   -0.523229
     16          1           0       -0.638079   -2.031548    1.298779
     17          1           0       -2.277456   -0.228599    1.069318
     18          1           0       -2.183070    0.489418   -1.406578
     19          1           0        0.736751    0.276221    2.164429
 ---------------------------------------------------------------------

 SCF Done:  E(RB3LYP) =  -423.173912406     A.U. after    1 cycles

 The electronic state is 1-A.
 Alpha  occ. eigenvalues --  -19.14849 -19.14632 -10.27077 -10.23976 -10.20206
 Alpha  occ. eigenvalues --  -10.19834 -10.19818 -10.18515 -10.17528  -1.05611
 Alpha  occ. eigenvalues --   -1.02839  -0.88005  -0.76758  -0.70425  -0.66959
 Alpha  occ. eigenvalues --   -0.59532  -0.58372  -0.53234  -0.51659  -0.47510
 Alpha  occ. eigenvalues --   -0.46033  -0.45438  -0.43034  -0.41739  -0.40682
 Alpha  occ. eigenvalues --   -0.38208  -0.38015  -0.36054  -0.33567  -0.32804
 Alpha  occ. eigenvalues --   -0.31430  -0.30627  -0.27552  -0.23941
 Alpha virt. eigenvalues --   -0.03206   0.07931   0.09144   0.09588   0.12505
 Alpha virt. eigenvalues --    0.13327   0.14482   0.15180   0.16323   0.16633
 Alpha virt. eigenvalues --    0.17431   0.17721   0.18186   0.21559   0.22926

 Mulliken charges:
               1
     1  C   -0.406554
     2  C    0.041908
     3  C   -0.260739
     4  C   -0.064194
     5  C    0.045689
     6  O   -0.434660
     7  C    0.358343
     8  O   -0.322186
     9  C   -0.188376
    10  H    0.120171
    11  H    0.115063
    12  H    0.129560
    13  H    0.083161
    14  H    0.113985
    15  H    0.105144
    16  H    0.075451
    17  H    0.098544
    18  H    0.298566
    19  H    0.091124
 Sum of Mulliken charges =   0.00000

 Dipole moment (field-independent basis, Debye):
    X=              1.0101    Y=             -1.3397    Z=              1.0093  Tot=              1.9580
 Quadrupole moment (field-independent basis, Debye-Ang):
   XX=            -53.0875   YY=            -58.5382   ZZ=            -50.6328
   XY=             -2.0412   XZ=             -0.9341   YZ=             -1.9860

  Exact polarizability:  80.864  -0.269  76.253  -0.227  -1.980  67.849
 Approx polarizability: 108.657  -1.048 119.898   3.105  -4.886 103.985

                      1                      2                      3
                      A                      A                      A
 Frequencies --     62.4501               123.4789               188.1762
 Red. masses --      4.8473                 3.1273                 2.8652
 Frc consts  --      0.0111                 0.0281                 0.0598
 IR Inten    --      1.4778                 7.4216                29.6007

                      4                      5                      6
                      A                      A                      A
 Frequencies --    198.6946               228.3933               252.6674
 Red. masses --      2.0980                 1.5105                 1.3279
 Frc consts  --      0.0488                 0.0464                 0.0499
 IR Inten    --     11.5755                13.7218                33.8255

                      7                      8                      9
                      A                      A                      A
 Frequencies --    310.4255               397.8866               503.0243
 Red. masses --      2.4176                 2.7607                 3.8033
 Frc consts  --      0.1373                 0.2575                 0.5670
 IR Inten    --      2.1111                 2.1762                 1.6839

                     10                     11                     12
                      A                      A                      A
 Frequencies --    521.4565               579.6629               630.4021
 Red. masses --      3.4973                 3.4953                 4.2370
 Frc consts  --      0.5603                 0.6920                 0.9921
 IR Inten    --      5.4931                 2.9923                 2.5243

                     13                     14                     15
                      A                      A                      A
 Frequencies --    711.5817               805.5105               828.2729
 Red. masses --      3.1325                 2.6760                 2.5609
 Frc consts  --      0.9345                 1.0230                 1.0351
 IR Inten    --      0.8237                 3.1048                 9.1011

                     16                     17                     18
                      A                      A                      A
 Frequencies --    831.0522               885.3027               904.6320
 Red. masses --      1.8574                 2.2388                 2.5077
 Frc consts  --      0.7558                 1.0338                 1.2091
 IR Inten    --      3.8315                 0.2766                 0.9694

                     19                     20                     21
                      A                      A                      A
 Frequencies --    953.9780              1012.2937              1025.9402
 Red. masses --      1.5924                 2.1532                 2.2073
 Frc consts  --      0.8539                 1.3000                 1.3689
 IR Inten    --      8.4413                95.6469                 0.1499

                     22                     23                     24
                      A                      A                      A
 Frequencies --   1058.7890              1081.0338              1107.7822
 Red. masses --      1.2563                 2.1759                 1.9234
 Frc consts  --      0.8298                 1.4982                 1.3907
 IR Inten    --      3.6692                19.3923                 6.7082

                     25                     26                     27
                      A                      A                      A
 Frequencies --   1131.8418              1138.2597              1159.2227
 Red. masses --      1.8011                 2.4496                 2.2403
 Frc consts  --      1.3594                 1.8699                 1.7738
 IR Inten    --      5.1892                29.3223                44.5360

                     28                     29                     30
                      A                      A                      A
 Frequencies --   1204.8153              1218.9350              1224.7848
 Red. masses --      1.5123                 1.5983                 1.5309
 Frc consts  --      1.2934                 1.3991                 1.3530
 IR Inten    --      9.9725                 5.8992                 2.7817

                     31                     32                     33
                      A                      A                      A
 Frequencies --   1263.0902              1305.2431              1316.9227
 Red. masses --      1.4679                 1.4498                 1.4653
 Frc consts  --      1.3798                 1.4553                 1.4972
 IR Inten    --      3.6070                 7.1868                 0.9830

                     34                     35                     36
                      A                      A                      A
 Frequencies --   1352.3687              1364.3303              1366.8869
 Red. masses --      1.4656                 1.4799                 1.4806
 Frc consts  --      1.5793                 1.6230                 1.6298
 IR Inten    --     20.8634                 6.4913                26.8771

                     37                     38                     39
                      A                      A                      A
 Frequencies --   1418.0090              1491.0486              1496.1050
 Red. masses --      1.2508                 1.0775                 1.0453
 Frc consts  --      1.4818                 1.4114                 1.3785
 IR Inten    --      3.9340                 2.9851                 6.1838

                     40                     41                     42
                      A                      A                      A
 Frequencies --   1497.6058              1866.9523              2950.0885
 Red. masses --      1.0653                12.7708                 1.0806
 Frc consts  --      1.4077                26.2262                 5.5408
 IR Inten    --      1.6342               210.8997                33.0096

                     43                     44                     45
                      A                      A                      A
 Frequencies --   3033.0224              3044.0447              3065.5907
 Red. masses --      1.0381                 1.0836                 1.0595
 Frc consts  --      5.6263                 5.9156                 5.8663
 IR Inten    --     21.7040                18.0496                23.5993

                     46                     47                     48
                      A                      A                      A
 Frequencies --   3095.9408              3104.7023              3114.8317
 Red. masses --      1.1009                 1.0876                 1.1020
 Frc consts  --      6.2173                 6.1770                 6.2995
 IR Inten    --     21.7768                15.4335                10.0675

                     49                     50                     51
                      A                      A                      A
 Frequencies --   3118.1433              3133.7552              3786.2192
 Red. masses --      1.1019                 1.0932                 1.0662
 Frc consts  --      6.3124                 6.3255                 9.0054
 IR Inten    --     22.1934                39.4415                32.4460

 - Thermochemistry -
 -------------------
 Temperature   298.150 Kelvin.  Pressure   1.00000 Atm.
 Atom     1 has atomic number  6 and mass  12.00000

 Molecular mass:   126.06808 amu.
 Principal axes and moments of inertia in atomic units:
                           1         2         3
     Eigenvalues --   757.280121144.432041436.47901
           X            0.99958   0.01603  -0.02402
           Y           -0.01680   0.99934  -0.03209
           Z            0.02349   0.03248   0.99920
 This molecule is an asymmetric top.
 Rotational symmetry number  1.
 Warning -- assumption of classical behavior for rotation
           may cause significant error
 Rotational temperatures (Kelvin)      0.11437     0.07568     0.06030
 Rotational constants (GHZ):           2.38319     1.57698     1.25636
 Zero-point vibrational energy     415496.8 (Joules/Mol)
                                   99.30613 (Kcal/Mol)
 Warning -- explicit consideration of  11 degrees of freedom as
           vibrations may cause significant error
 Vibrational temperatures:     89.85   177.66   270.74   285.88   328.61
          (Kelvin)            363.53   446.63   572.47   723.74   750.26
                              834.00   907.01  1023.81  1158.95  1191.70
                             1195.70  1273.75  1301.56  1372.56  1456.46
                             1476.10  1523.36  1555.36  1593.85  1628.47
                             1637.70  1667.86  1733.46  1753.77  1762.19
                             1817.30  1877.95  1894.76  1945.75  1962.96
                             1966.64  2040.20  2145.28  2152.56  2154.72
                             2686.12  4244.51  4363.84  4379.70  4410.70
                             4454.36  4466.97  4481.54  4486.31  4508.77
                             5447.52

 Zero-point correction=                           0.158254 (Hartree/Particle)
 Thermal correction to Energy=                    0.167016
 Thermal correction to Enthalpy=                  0.167960
 Thermal correction to Gibbs Free Energy=         0.124712
 Sum of electronic and zero-point Energies=           -423.015658
 Sum of electronic and thermal Energies=              -423.006896
 Sum of electronic and thermal Enthalpies=            -423.005952
 Sum of electronic and thermal Free Energies=         -423.049201

                     E (Thermal)             CV                S
                      KCal/Mol        Cal/Mol-Kelvin    Cal/Mol-Kelvin
 Total                  104.804             32.919             91.024
 Electronic               0.000              0.000              0.000
 Translational            0.889              2.981             40.409
 Rotational               0.889              2.981             28.611
 Vibrational            103.027             26.957             22.004
 Vibration     1          0.597              1.972              4.378
 Vibration     2          0.610              1.929              3.045
 Vibration     3          0.633              1.856              2.246
 Vibration     4          0.637              1.842              2.145
 Vibration     5          0.651              1.798              1.892
 Vibration     6          0.664              1.758              1.712
 Vibration     7          0.699              1.654              1.360
 Vibration     8          0.764              1.475              0.970
 Vibration     9          0.858              1.243              0.651
 Vibration    10          0.876              1.202              0.607
 Vibration    11          0.936              1.075              0.486

 Normal termination of Gaussian 09 at Tue Jan 28 03:40:16 2020.
