 Gaussian 09, Revision D.01,
 Gaussian 09:  ES64L-G09RevD.01 24-Apr-2013

 -----------------------------
 # b3lyp 6-31G(2df,p) opt Freq
 -----------------------------

 -----
 titel
 -----
 Symbolic Z-matrix:
 Charge =  0 Multiplicity = 1

 SCF Done:  E(RB3LYP) =  -423.195966849     A.U. after   14 cycles
 Optimization completed.
    -- Stationary point found.
 Normal termination of Gaussian 09 at Mon Jan 27 22:03:36 2020.

 ----------------------------------------------------------------------
 #N Geom=AllCheck Guess=TCheck SCRF=Check GenChk RB3LYP/6-31G(2df,p) Fr
 eq
 ----------------------------------------------------------------------

 Structure from the checkpoint file:  "/scratch/puck/g09_5dc95ded-df88-4451-8944-46a02853b1e9/Gau-15062.chk"
 -----
 titel
 -----
 Charge =  0 Multiplicity = 1

                         Standard orientation:
 ---------------------------------------------------------------------
 Center     Atomic      Atomic             Coordinates (Angstroms)
 Number     Number       Type             X           Y           Z
 ---------------------------------------------------------------------
      1          6           0       -2.625194   -1.521637   -0.053673
      2          6           0       -1.509326   -0.545926   -0.345823
      3          6           0       -0.134415   -0.746874    0.187471
      4          6           0        1.105694   -0.474061   -0.642914
      5          6           0        2.309801   -0.152235    0.215954
      6          8           0        3.371784   -0.715601    0.152984
      7          6           0       -1.012175    0.392613    0.752537
      8          6           0       -0.741958    1.806005    0.412645
      9          8           0       -0.390545    2.207074   -0.675888
     10          1           0       -2.619693   -2.345193   -0.775771
     11          1           0       -2.521672   -1.955364    0.946262
     12          1           0       -3.603443   -1.033304   -0.109298
     13          1           0       -1.552484   -0.056722   -1.316093
     14          1           0       -0.026857   -1.569772    0.891271
     15          1           0        1.347324   -1.338940   -1.268377
     16          1           0        0.919809    0.391137   -1.290479
     17          1           0        2.144391    0.676527    0.943515
     18          1           0       -1.400874    0.232299    1.753247
     19          1           0       -0.890986    2.520230    1.251772
 ---------------------------------------------------------------------

 SCF Done:  E(RB3LYP) =  -423.195966849     A.U. after    1 cycles

 The electronic state is 1-A.
 Alpha  occ. eigenvalues --  -19.14346 -19.13846 -10.27845 -10.27064 -10.22393
 Alpha  occ. eigenvalues --  -10.21728 -10.21315 -10.19686 -10.19624  -1.05009
 Alpha  occ. eigenvalues --   -1.04523  -0.89138  -0.76663  -0.73107  -0.67338
 Alpha  occ. eigenvalues --   -0.59331  -0.58299  -0.54787  -0.51592  -0.48162
 Alpha  occ. eigenvalues --   -0.47026  -0.44114  -0.43798  -0.43194  -0.41756
 Alpha  occ. eigenvalues --   -0.40927  -0.39948  -0.38928  -0.37316  -0.35704
 Alpha  occ. eigenvalues --   -0.31521  -0.29809  -0.26003  -0.24816
 Alpha virt. eigenvalues --   -0.03615  -0.02027   0.07593   0.09733   0.12342
 Alpha virt. eigenvalues --    0.12763   0.13285   0.13987   0.14815   0.15593
 Alpha virt. eigenvalues --    0.16135   0.16726   0.17493   0.20460   0.21554

 Mulliken charges:
               1
     1  C   -0.418725
     2  C   -0.020173
     3  C   -0.033410
     4  C   -0.315584
     5  C    0.164202
     6  O   -0.238568
     7  C   -0.129372
     8  C    0.133568
     9  O   -0.273555
    10  H    0.130426
    11  H    0.119815
    12  H    0.129003
    13  H    0.116060
    14  H    0.104440
    15  H    0.121701
    16  H    0.159386
    17  H    0.071351
    18  H    0.094699
    19  H    0.084735
 Sum of Mulliken charges =   0.00000

 Dipole moment (field-independent basis, Debye):
    X=             -3.5423    Y=             -0.9941    Z=              1.4703  Tot=              3.9620
 Quadrupole moment (field-independent basis, Debye-Ang):
   XX=            -63.0305   YY=            -56.5342   ZZ=            -51.6913
   XY=              4.1773   XZ=             -1.5599   YZ=              3.7791

  Exact polarizability:  87.265   0.238  81.529  -1.490   4.922  67.532
 Approx polarizability: 117.361  -5.483 120.384  -3.524   1.763 110.123

                      1                      2                      3
                      A                      A                      A
 Frequencies --     54.2123                62.1504               123.0972
 Red. masses --      5.8003                 3.7498                 3.6532
 Frc consts  --      0.0100                 0.0085                 0.0326
 IR Inten    --      5.8709                 3.1085                 9.1554

                      4                      5                      6
                      A                      A                      A
 Frequencies --    161.9251               192.3567               207.0454
 Red. masses --      2.3241                 1.6059                 2.3504
 Frc consts  --      0.0359                 0.0350                 0.0594
 IR Inten    --      1.4818                 3.2977                 6.4982

                      7                      8                      9
                      A                      A                      A
 Frequencies --    235.3151               264.9846               323.9831
 Red. masses --      1.9691                 2.4693                 3.4622
 Frc consts  --      0.0642                 0.1022                 0.2141
 IR Inten    --      5.8389                 1.4483                 1.6491

                     10                     11                     12
                      A                      A                      A
 Frequencies --    394.6400               442.4927               523.0105
 Red. masses --      3.3910                 3.3971                 1.9950
 Frc consts  --      0.3112                 0.3919                 0.3215
 IR Inten    --      0.2870                 3.7372                13.5818

                     13                     14                     15
                      A                      A                      A
 Frequencies --    713.2473               738.5700               814.0239
 Red. masses --      4.2873                 3.9557                 1.8080
 Frc consts  --      1.2850                 1.2713                 0.7059
 IR Inten    --      3.5751                10.5029                 1.0039

                     16                     17                     18
                      A                      A                      A
 Frequencies --    817.4863               877.4846               944.5643
 Red. masses --      2.3475                 2.5415                 1.1819
 Frc consts  --      0.9243                 1.1530                 0.6213
 IR Inten    --      9.3538                13.7431                 7.2236

                     19                     20                     21
                      A                      A                      A
 Frequencies --   1002.5861              1013.6917              1061.2483
 Red. masses --      1.5978                 2.0152                 2.0739
 Frc consts  --      0.9463                 1.2201                 1.3762
 IR Inten    --     15.2357                56.0164                21.8451

                     22                     23                     24
                      A                      A                      A
 Frequencies --   1069.0033              1083.0915              1107.5637
 Red. masses --      1.9633                 2.7569                 2.1239
 Frc consts  --      1.3219                 1.9055                 1.5351
 IR Inten    --      0.7661                47.4682                15.6743

                     25                     26                     27
                      A                      A                      A
 Frequencies --   1120.5691              1146.4434              1169.1313
 Red. masses --      1.2034                 1.5011                 1.7882
 Frc consts  --      0.8903                 1.1624                 1.4401
 IR Inten    --      2.1948                 0.4587                 3.4065

                     28                     29                     30
                      A                      A                      A
 Frequencies --   1229.9795              1242.2461              1291.1680
 Red. masses --      1.5068                 1.3547                 1.3485
 Frc consts  --      1.3431                 1.2317                 1.3246
 IR Inten    --      3.3126                 8.1460                 4.6991

                     31                     32                     33
                      A                      A                      A
 Frequencies --   1343.1499              1378.6623              1417.5920
 Red. masses --      1.3308                 1.3983                 1.2358
 Frc consts  --      1.4145                 1.5659                 1.4632
 IR Inten    --     10.9634                22.3293                 2.7289

                     34                     35                     36
                      A                      A                      A
 Frequencies --   1428.5626              1431.5586              1456.1251
 Red. masses --      1.1991                 1.2562                 1.1148
 Frc consts  --      1.4418                 1.5168                 1.3926
 IR Inten    --      3.1376                12.1932                14.3276

                     37                     38                     39
                      A                      A                      A
 Frequencies --   1467.7342              1490.1706              1502.0784
 Red. masses --      2.2482                 1.0504                 1.1175
 Frc consts  --      2.8535                 1.3743                 1.4855
 IR Inten    --     25.5914                 3.1991                11.2853

                     40                     41                     42
                      A                      A                      A
 Frequencies --   1791.0664              1834.8070              2859.5114
 Red. masses --      9.1821                10.1248                 1.0817
 Frc consts  --     17.3546                20.0826                 5.2111
 IR Inten    --    135.9588               201.3452                84.6504

                     43                     44                     45
                      A                      A                      A
 Frequencies --   2891.3140              3032.0923              3041.8340
 Red. masses --      1.0832                 1.0351                 1.0579
 Frc consts  --      5.3350                 5.6069                 5.7674
 IR Inten    --    144.7220                26.8773                12.8626

                     46                     47                     48
                      A                      A                      A
 Frequencies --   3098.1959              3099.4770              3102.5227
 Red. masses --      1.1010                 1.1020                 1.1010
 Frc consts  --      6.2267                 6.2376                 6.2438
 IR Inten    --     12.6317                 8.5250                19.1920

                     49                     50                     51
                      A                      A                      A
 Frequencies --   3130.3834              3149.6491              3164.1274
 Red. masses --      1.0884                 1.0881                 1.0883
 Frc consts  --      6.2837                 6.3600                 6.4194
 IR Inten    --      6.1589                 4.1296                14.8958

 - Thermochemistry -
 -------------------
 Temperature   298.150 Kelvin.  Pressure   1.00000 Atm.
 Atom     1 has atomic number  6 and mass  12.00000

 Molecular mass:   126.06808 amu.
 Principal axes and moments of inertia in atomic units:
                           1         2         3
     Eigenvalues --   807.063611671.102912215.73006
           X            0.99863   0.05213  -0.00533
           Y           -0.05197   0.99831   0.02618
           Z            0.00668  -0.02586   0.99964
 This molecule is an asymmetric top.
 Rotational symmetry number  1.
 Warning -- assumption of classical behavior for rotation
           may cause significant error
 Rotational temperatures (Kelvin)      0.10732     0.05183     0.03909
 Rotational constants (GHZ):           2.23618     1.07997     0.81451
 Zero-point vibrational energy     409947.8 (Joules/Mol)
                                   97.97988 (Kcal/Mol)
 Warning -- explicit consideration of  12 degrees of freedom as
           vibrations may cause significant error
 Vibrational temperatures:     78.00    89.42   177.11   232.97   276.76
          (Kelvin)            297.89   338.57   381.25   466.14   567.80
                              636.65   752.49  1026.20  1062.64  1171.20
                             1176.18  1262.50  1359.02  1442.50  1458.47
                             1526.90  1538.06  1558.33  1593.54  1612.25
                             1649.47  1682.12  1769.66  1787.31  1857.70
                             1932.49  1983.59  2039.60  2055.38  2059.69
                             2095.04  2111.74  2144.02  2161.15  2576.94
                             2639.87  4114.19  4159.95  4362.50  4376.52
                             4457.61  4459.45  4463.83  4503.92  4531.64
                             4552.47

 Zero-point correction=                           0.156141 (Hartree/Particle)
 Thermal correction to Energy=                    0.166005
 Thermal correction to Enthalpy=                  0.166949
 Thermal correction to Gibbs Free Energy=         0.120377
 Sum of electronic and zero-point Energies=           -423.039826
 Sum of electronic and thermal Energies=              -423.029962
 Sum of electronic and thermal Enthalpies=            -423.029018
 Sum of electronic and thermal Free Energies=         -423.075590

                     E (Thermal)             CV                S
                      KCal/Mol        Cal/Mol-Kelvin    Cal/Mol-Kelvin
 Total                  104.170             34.486             98.019
 Electronic               0.000              0.000              0.000
 Translational            0.889              2.981             40.409
 Rotational               0.889              2.981             29.481
 Vibrational            102.392             28.524             28.129
 Vibration     1          0.596              1.976              4.658
 Vibration     2          0.597              1.972              4.388
 Vibration     3          0.610              1.930              3.051
 Vibration     4          0.622              1.889              2.527
 Vibration     5          0.634              1.850              2.205
 Vibration     6          0.641              1.830              2.070
 Vibration     7          0.655              1.787              1.838
 Vibration     8          0.671              1.737              1.629
 Vibration     9          0.709              1.627              1.290
 Vibration    10          0.762              1.482              0.983
 Vibration    11          0.802              1.377              0.819
 Vibration    12          0.878              1.199              0.603

 Optimization completed.
    -- Stationary point found.
 Normal termination of Gaussian 09 at Mon Jan 27 22:46:56 2020.
