 Gaussian 09, Revision D.01,
 Gaussian 09:  ES64L-G09RevD.01 24-Apr-2013

 -----------------------------
 # b3lyp 6-31G(2df,p) opt Freq
 -----------------------------

 -----
 titel
 -----
 Symbolic Z-matrix:
 Charge =  0 Multiplicity = 1

 SCF Done:  E(RB3LYP) =  -423.161757073     A.U. after   14 cycles
 Optimization completed.
    -- Stationary point found.
 Normal termination of Gaussian 09 at Tue Jan 28 09:16:12 2020.

 ----------------------------------------------------------------------
 #N Geom=AllCheck Guess=TCheck SCRF=Check GenChk RB3LYP/6-31G(2df,p) Fr
 eq
 ----------------------------------------------------------------------

 Structure from the checkpoint file:  "/scratch/puck/g09_25142519-ecd8-4996-a89e-a0038c939d8a/Gau-82395.chk"
 -----
 titel
 -----
 Charge =  0 Multiplicity = 1

                         Standard orientation:
 ---------------------------------------------------------------------
 Center     Atomic      Atomic             Coordinates (Angstroms)
 Number     Number       Type             X           Y           Z
 ---------------------------------------------------------------------
      1          6           0        2.824211   -0.815637   -0.017681
      2          6           0        1.387070   -0.833648   -0.560669
      3          6           0        0.525619    0.190836    0.105861
      4          6           0       -0.199086    0.051474    1.389625
      5          6           0       -1.024730    0.381506    0.151833
      6          6           0       -0.702700    1.802008   -0.289838
      7          8           0        0.728491    1.563720   -0.224263
      8          6           0       -2.026737   -0.529237   -0.399959
      9          8           0       -2.160595   -1.687183   -0.066661
     10          1           0        3.440003   -1.556447   -0.535262
     11          1           0        3.281971    0.167354   -0.161731
     12          1           0        2.843106   -1.044526    1.052273
     13          1           0        1.393547   -0.643873   -1.639868
     14          1           0        0.929159   -1.816516   -0.405089
     15          1           0       -0.357891   -0.964461    1.735801
     16          1           0       -0.090131    0.811059    2.158808
     17          1           0       -1.007205    2.017248   -1.321017
     18          1           0       -1.015037    2.620322    0.368802
     19          1           0       -2.662580   -0.086273   -1.200358
 ---------------------------------------------------------------------

 SCF Done:  E(RB3LYP) =  -423.161757073     A.U. after    1 cycles

 The electronic state is 1-A.
 Alpha  occ. eigenvalues --  -19.15373 -19.13102 -10.26958 -10.26588 -10.24996
 Alpha  occ. eigenvalues --  -10.21055 -10.20274 -10.19745 -10.18277  -1.06928
 Alpha  occ. eigenvalues --   -1.03720  -0.85228  -0.78498  -0.71918  -0.65970
 Alpha  occ. eigenvalues --   -0.63963  -0.58782  -0.53008  -0.51049  -0.49478
 Alpha  occ. eigenvalues --   -0.47745  -0.44760  -0.43110  -0.42172  -0.40479
 Alpha  occ. eigenvalues --   -0.40010  -0.38565  -0.37601  -0.36113  -0.35663
 Alpha  occ. eigenvalues --   -0.33022  -0.27693  -0.25747  -0.24403
 Alpha virt. eigenvalues --   -0.02924   0.06646   0.09543   0.11051   0.11764
 Alpha virt. eigenvalues --    0.13113   0.13685   0.14471   0.14757   0.16920
 Alpha virt. eigenvalues --    0.17119   0.17360   0.17963   0.19407   0.20960

 Mulliken charges:
               1
     1  C   -0.381260
     2  C   -0.281833
     3  C    0.450614
     4  C   -0.376795
     5  C    0.089469
     6  C   -0.149553
     7  O   -0.315314
     8  C    0.062678
     9  O   -0.285174
    10  H    0.118551
    11  H    0.137130
    12  H    0.123697
    13  H    0.112093
    14  H    0.129346
    15  H    0.148352
    16  H    0.121127
    17  H    0.115595
    18  H    0.112622
    19  H    0.068654
 Sum of Mulliken charges =   0.00000

 Dipole moment (field-independent basis, Debye):
    X=              0.6215    Y=              1.4081    Z=             -0.1354  Tot=              1.5451
 Quadrupole moment (field-independent basis, Debye-Ang):
   XX=            -55.7303   YY=            -57.3880   ZZ=            -50.9581
   XY=             -9.0959   XZ=              1.0302   YZ=              0.2004

  Exact polarizability:  88.049  -0.654  78.576   4.725  -2.159  68.568
 Approx polarizability: 124.162   8.398 122.517   5.483  -6.325 103.068

                      1                      2                      3
                      A                      A                      A
 Frequencies --     58.1860                94.9455               152.3696
 Red. masses --      3.3107                 3.3019                 2.9516
 Frc consts  --      0.0066                 0.0175                 0.0404
 IR Inten    --      1.5949                 2.6400                 9.3654

                      4                      5                      6
                      A                      A                      A
 Frequencies --    199.0491               217.0639               231.2024
 Red. masses --      1.7863                 1.9309                 2.1518
 Frc consts  --      0.0417                 0.0536                 0.0678
 IR Inten    --      4.9416                 4.5900                 3.7553

                      7                      8                      9
                      A                      A                      A
 Frequencies --    299.0166               379.4458               398.1603
 Red. masses --      2.1938                 2.9888                 2.4550
 Frc consts  --      0.1156                 0.2535                 0.2293
 IR Inten    --      1.6286                 2.2836                 2.1753

                     10                     11                     12
                      A                      A                      A
 Frequencies --    469.1861               533.8518               676.3360
 Red. masses --      2.9841                 4.2113                 3.2259
 Frc consts  --      0.3870                 0.7071                 0.8694
 IR Inten    --      4.1555                 9.5700                 2.3992

                     13                     14                     15
                      A                      A                      A
 Frequencies --    715.4113               776.3087               807.5855
 Red. masses --      4.1098                 1.6302                 1.9677
 Frc consts  --      1.2393                 0.5788                 0.7561
 IR Inten    --      3.3051                 2.9213                 2.6959

                     16                     17                     18
                      A                      A                      A
 Frequencies --    809.4535               930.4548               968.2636
 Red. masses --      4.3302                 1.6662                 2.2026
 Frc consts  --      1.6716                 0.8499                 1.2167
 IR Inten    --    101.1702                47.9738                20.4538

                     19                     20                     21
                      A                      A                      A
 Frequencies --    984.4738               992.4407              1019.4375
 Red. masses --      2.2667                 2.5377                 1.6973
 Frc consts  --      1.2943                 1.4726                 1.0393
 IR Inten    --     15.5838                19.2498                53.4914

                     22                     23                     24
                      A                      A                      A
 Frequencies --   1029.9495              1051.0461              1069.7137
 Red. masses --      1.7292                 1.8001                 1.4649
 Frc consts  --      1.0808                 1.1716                 0.9876
 IR Inten    --      6.2320                 9.3951                 3.5869

                     25                     26                     27
                      A                      A                      A
 Frequencies --   1096.7544              1155.2877              1177.3328
 Red. masses --      1.8710                 1.2379                 2.4468
 Frc consts  --      1.3260                 0.9735                 1.9983
 IR Inten    --      6.6484                13.6836                22.2918

                     28                     29                     30
                      A                      A                      A
 Frequencies --   1223.7135              1268.5504              1314.6692
 Red. masses --      2.6786                 1.5842                 1.6968
 Frc consts  --      2.3633                 1.5020                 1.7279
 IR Inten    --     34.5851                 5.7589                22.3259

                     31                     32                     33
                      A                      A                      A
 Frequencies --   1336.0817              1367.5659              1401.5963
 Red. masses --      1.5094                 1.6738                 1.4355
 Frc consts  --      1.5876                 1.8444                 1.6615
 IR Inten    --      8.5146                18.4356                 7.9404

                     34                     35                     36
                      A                      A                      A
 Frequencies --   1411.2973              1437.0175              1476.0663
 Red. masses --      1.3239                 1.4833                 1.0763
 Frc consts  --      1.5536                 1.8046                 1.3817
 IR Inten    --      8.1761                15.9329                 2.7895

                     37                     38                     39
                      A                      A                      A
 Frequencies --   1480.5480              1497.4388              1509.1333
 Red. masses --      1.6817                 1.0585                 1.1082
 Frc consts  --      2.1719                 1.3984                 1.4870
 IR Inten    --     37.3990                 3.0942                 7.1803

                     40                     41                     42
                      A                      A                      A
 Frequencies --   1517.7416              1783.0947              2866.2440
 Red. masses --      1.1429                 9.8883                 1.0817
 Frc consts  --      1.5512                18.5234                 5.2356
 IR Inten    --      1.6466               199.6473               129.8816

                     43                     44                     45
                      A                      A                      A
 Frequencies --   3023.0624              3040.1960              3042.8517
 Red. masses --      1.0549                 1.0544                 1.0396
 Frc consts  --      5.6801                 5.7419                 5.6714
 IR Inten    --     67.2566                 9.3393                26.5344

                     46                     47                     48
                      A                      A                      A
 Frequencies --   3073.6332              3082.6882              3115.5795
 Red. masses --      1.1112                 1.1020                 1.1019
 Frc consts  --      6.1853                 6.1698                 6.3018
 IR Inten    --     33.1894                 3.9519                27.3965

                     49                     50                     51
                      A                      A                      A
 Frequencies --   3118.5103              3119.6083              3222.4333
 Red. masses --      1.0586                 1.0993                 1.1155
 Frc consts  --      6.0655                 6.3035                 6.8249
 IR Inten    --     11.0916                20.1668                 1.9257

 - Thermochemistry -
 -------------------
 Temperature   298.150 Kelvin.  Pressure   1.00000 Atm.
 Atom     1 has atomic number  6 and mass  12.00000

 Molecular mass:   126.06808 amu.
 Principal axes and moments of inertia in atomic units:
                           1         2         3
     Eigenvalues --   752.149971300.686261720.40698
           X            0.99552  -0.09441   0.00481
           Y            0.09441   0.99553  -0.00076
           Z           -0.00472   0.00121   0.99999
 This molecule is an asymmetric top.
 Rotational symmetry number  1.
 Warning -- assumption of classical behavior for rotation
           may cause significant error
 Rotational temperatures (Kelvin)      0.11515     0.06659     0.05034
 Rotational constants (GHZ):           2.39944     1.38753     1.04902
 Zero-point vibrational energy     412843.5 (Joules/Mol)
                                   98.67197 (Kcal/Mol)
 Warning -- explicit consideration of  11 degrees of freedom as
           vibrations may cause significant error
 Vibrational temperatures:     83.72   136.61   219.23   286.39   312.31
          (Kelvin)            332.65   430.22   545.94   572.86   675.05
                              768.09   973.10  1029.32  1116.93  1161.93
                             1164.62  1338.72  1393.11  1416.44  1427.90
                             1466.74  1481.87  1512.22  1539.08  1577.98
                             1662.20  1693.92  1760.65  1825.16  1891.51
                             1922.32  1967.62  2016.58  2030.54  2067.55
                             2123.73  2130.18  2154.48  2171.30  2183.69
                             2565.47  4123.88  4349.51  4374.16  4377.98
                             4422.27  4435.30  4482.62  4486.84  4488.41
                             4636.36

 Zero-point correction=                           0.157244 (Hartree/Particle)
 Thermal correction to Energy=                    0.166325
 Thermal correction to Enthalpy=                  0.167269
 Thermal correction to Gibbs Free Energy=         0.122993
 Sum of electronic and zero-point Energies=           -423.004513
 Sum of electronic and thermal Energies=              -422.995432
 Sum of electronic and thermal Enthalpies=            -422.994488
 Sum of electronic and thermal Free Energies=         -423.038764

                     E (Thermal)             CV                S
                      KCal/Mol        Cal/Mol-Kelvin    Cal/Mol-Kelvin
 Total                  104.370             33.214             93.187
 Electronic               0.000              0.000              0.000
 Translational            0.889              2.981             40.409
 Rotational               0.889              2.981             28.911
 Vibrational            102.593             27.252             23.867
 Vibration     1          0.596              1.974              4.518
 Vibration     2          0.603              1.953              3.556
 Vibration     3          0.619              1.900              2.642
 Vibration     4          0.637              1.841              2.142
 Vibration     5          0.646              1.815              1.983
 Vibration     6          0.653              1.793              1.870
 Vibration     7          0.692              1.676              1.422
 Vibration     8          0.749              1.514              1.041
 Vibration     9          0.764              1.474              0.969
 Vibration    10          0.826              1.318              0.740
 Vibration    11          0.889              1.175              0.579

 Normal termination of Gaussian 09 at Tue Jan 28 10:07:58 2020.
