 Gaussian 09, Revision D.01,
 Gaussian 09:  ES64L-G09RevD.01 24-Apr-2013

 -----------------------------
 # b3lyp 6-31G(2df,p) opt Freq
 -----------------------------

 -----
 titel
 -----
 Symbolic Z-matrix:
 Charge =  0 Multiplicity = 1

 SCF Done:  E(RB3LYP) =  -423.130338958     A.U. after   13 cycles
 Optimization completed.
    -- Stationary point found.
 Normal termination of Gaussian 09 at Mon Jan 27 11:17:09 2020.

 ----------------------------------------------------------------------
 #N Geom=AllCheck Guess=TCheck SCRF=Check GenChk RB3LYP/6-31G(2df,p) Fr
 eq
 ----------------------------------------------------------------------

 Structure from the checkpoint file:  "/scratch/puck/g09_03da17f1-5843-4a46-84eb-f026fba77a08/Gau-49277.chk"
 -----
 titel
 -----
 Charge =  0 Multiplicity = 1

                         Standard orientation:
 ---------------------------------------------------------------------
 Center     Atomic      Atomic             Coordinates (Angstroms)
 Number     Number       Type             X           Y           Z
 ---------------------------------------------------------------------
      1          6           0       -2.526970    0.000044   -0.805822
      2          6           0       -1.718497   -1.099111   -0.049321
      3          6           0       -0.735011   -0.000031    0.355063
      4          6           0       -1.718458    1.099116   -0.049239
      5          8           0        0.062611   -0.000071    1.539446
      6          6           0        0.720822   -0.000025    0.285650
      7          6           0        1.724986   -1.046389   -0.183778
      8          8           0        2.571096    0.000040   -0.713615
      9          6           0        1.724946    1.046408   -0.183711
     10          1           0       -2.322674    0.000080   -1.878623
     11          1           0       -3.607185    0.000056   -0.654557
     12          1           0       -2.255963   -1.490694    0.819151
     13          1           0       -1.328236   -1.938081   -0.631144
     14          1           0       -2.255911    1.490655    0.819261
     15          1           0       -1.328168    1.938114   -0.631003
     16          1           0        2.206468   -1.604424    0.629528
     17          1           0        1.392384   -1.745746   -0.961021
     18          1           0        2.206411    1.604415    0.629623
     19          1           0        1.392313    1.745795   -0.960914
 ---------------------------------------------------------------------

 SCF Done:  E(RB3LYP) =  -423.130338958     A.U. after    1 cycles

 The electronic state is 1-A.
 Alpha  occ. eigenvalues --  -19.15531 -19.13764 -10.24487 -10.24394 -10.23287
 Alpha  occ. eigenvalues --  -10.23287 -10.19382 -10.19077 -10.19076  -1.08129
 Alpha  occ. eigenvalues --   -1.03753  -0.84333  -0.71753  -0.70100  -0.67342
 Alpha  occ. eigenvalues --   -0.64374  -0.57869  -0.53524  -0.51041  -0.48749
 Alpha  occ. eigenvalues --   -0.47836  -0.47371  -0.44183  -0.41389  -0.41000
 Alpha  occ. eigenvalues --   -0.39576  -0.36296  -0.34669  -0.34317  -0.31984
 Alpha  occ. eigenvalues --   -0.31961  -0.28923  -0.26559  -0.25181
 Alpha virt. eigenvalues --    0.06480   0.07127   0.08155   0.11044   0.11577
 Alpha virt. eigenvalues --    0.12070   0.14386   0.15158   0.16428   0.16848
 Alpha virt. eigenvalues --    0.17404   0.19150   0.19388   0.19705   0.21345

 Mulliken charges:
               1
     1  C   -0.209411
     2  C   -0.315234
     3  C    0.373094
     4  C   -0.315230
     5  O   -0.307114
     6  C    0.237861
     7  C   -0.153988
     8  O   -0.275213
     9  C   -0.153985
    10  H    0.111334
    11  H    0.108826
    12  H    0.119360
    13  H    0.107235
    14  H    0.119360
    15  H    0.107235
    16  H    0.115003
    17  H    0.107932
    18  H    0.115003
    19  H    0.107932
 Sum of Mulliken charges =   0.00000

 Dipole moment (field-independent basis, Debye):
    X=             -1.9263    Y=              0.0000    Z=             -0.8225  Tot=              2.0945
 Quadrupole moment (field-independent basis, Debye-Ang):
   XX=            -56.0360   YY=            -49.8838   ZZ=            -56.6717
   XY=             -0.0002   XZ=              2.3782   YZ=              0.0003

  Exact polarizability:  87.456   0.000  75.483   1.580   0.000  64.026
 Approx polarizability: 112.340   0.000 106.326  -0.514   0.000 102.172

                      1                      2                      3
                      A                      A                      A
 Frequencies --     77.4912               120.3211               151.0519
 Red. masses --      3.4085                 2.5600                 2.9243
 Frc consts  --      0.0121                 0.0218                 0.0393
 IR Inten    --      1.0972                 4.1878                 0.4491

                      4                      5                      6
                      A                      A                      A
 Frequencies --    178.1994               252.2715               427.8718
 Red. masses --      2.2448                 2.0620                 4.4690
 Frc consts  --      0.0420                 0.0773                 0.4821
 IR Inten    --      0.0732                 2.9702                 7.2206

                      7                      8                      9
                      A                      A                      A
 Frequencies --    432.9645               444.4410               503.0893
 Red. masses --      2.3170                 3.5238                 4.0281
 Frc consts  --      0.2559                 0.4101                 0.6007
 IR Inten    --      2.7265                 1.8015                 1.6334

                     10                     11                     12
                      A                      A                      A
 Frequencies --    582.1474               715.5203               782.4868
 Red. masses --      5.1312                 1.4429                 1.2286
 Frc consts  --      1.0245                 0.4352                 0.4432
 IR Inten    --     10.5314                 0.0790                 0.0045

                     13                     14                     15
                      A                      A                      A
 Frequencies --    822.6528               871.6318               903.9729
 Red. masses --      2.5441                 3.1280                 2.6568
 Frc consts  --      1.0144                 1.4002                 1.2792
 IR Inten    --     13.9440                23.9227                20.4617

                     16                     17                     18
                      A                      A                      A
 Frequencies --    920.9171               930.1242               933.8770
 Red. masses --      2.6646                 3.4380                 1.3903
 Frc consts  --      1.3314                 1.7524                 0.7144
 IR Inten    --      0.8938                 9.4541                 0.1418

                     19                     20                     21
                      A                      A                      A
 Frequencies --    988.1413              1018.3844              1021.9627
 Red. masses --      4.3969                 4.5448                 1.3408
 Frc consts  --      2.5295                 2.7771                 0.8251
 IR Inten    --      0.7137                67.2835                16.1119

                     22                     23                     24
                      A                      A                      A
 Frequencies --   1083.8706              1108.3620              1120.0666
 Red. masses --      3.7726                 3.6678                 2.2385
 Frc consts  --      2.6112                 2.6547                 1.6546
 IR Inten    --     42.9756                11.4159                12.8808

                     25                     26                     27
                      A                      A                      A
 Frequencies --   1139.9346              1144.9725              1150.6872
 Red. masses --      1.0875                 1.5703                 3.7694
 Frc consts  --      0.8326                 1.2129                 2.9406
 IR Inten    --      0.1368                 7.6224                 0.0775

                     28                     29                     30
                      A                      A                      A
 Frequencies --   1176.9260              1201.1490              1236.2130
 Red. masses --      1.8106                 1.3625                 1.3836
 Frc consts  --      1.4777                 1.1582                 1.2458
 IR Inten    --     10.4854                 0.0534                10.0539

                     31                     32                     33
                      A                      A                      A
 Frequencies --   1243.5061              1272.4467              1275.6109
 Red. masses --      1.1653                 1.5655                 1.5589
 Frc consts  --      1.0616                 1.4934                 1.4945
 IR Inten    --      0.2488                 4.3682                 0.6442

                     34                     35                     36
                      A                      A                      A
 Frequencies --   1296.0631              1350.7772              1467.3708
 Red. masses --      1.3903                 1.4774                 1.0939
 Frc consts  --      1.3760                 1.5882                 1.3877
 IR Inten    --      1.7971                 0.8996                 3.5043

                     37                     38                     39
                      A                      A                      A
 Frequencies --   1479.4783              1497.6643              1497.9103
 Red. masses --      1.0885                 1.1776                 1.0833
 Frc consts  --      1.4038                 1.5563                 1.4321
 IR Inten    --      1.7650                 0.7979                 0.0853

                     40                     41                     42
                      A                      A                      A
 Frequencies --   1523.1453              1557.1669              3006.6956
 Red. masses --      1.1274                 6.2610                 1.0522
 Frc consts  --      1.5410                 8.9446                 5.6045
 IR Inten    --      0.5515                23.5711                93.5225

                     43                     44                     45
                      A                      A                      A
 Frequencies --   3018.1650              3056.4021              3058.1056
 Red. masses --      1.0574                 1.0574                 1.1083
 Frc consts  --      5.6751                 5.8196                 6.1066
 IR Inten    --      2.9391                45.1752                 1.9789

                     46                     47                     48
                      A                      A                      A
 Frequencies --   3058.2975              3060.1731              3077.3266
 Red. masses --      1.1121                 1.0589                 1.0612
 Frc consts  --      6.1287                 5.8426                 5.9212
 IR Inten    --     67.9987                 1.5832                31.3382

                     49                     50                     51
                      A                      A                      A
 Frequencies --   3105.8640              3110.1672              3135.3304
 Red. masses --      1.1070                 1.1076                 1.1081
 Frc consts  --      6.2914                 6.3123                 6.4181
 IR Inten    --     13.4322                 7.2185                36.4426

 - Thermochemistry -
 -------------------
 Temperature   298.150 Kelvin.  Pressure   1.00000 Atm.
 Atom     1 has atomic number  6 and mass  12.00000

 Molecular mass:   126.06808 amu.
 Principal axes and moments of inertia in atomic units:
                           1         2         3
     Eigenvalues --   516.109761604.093801649.74092
           X            0.99988   0.00000   0.01541
           Y            0.00000   1.00000   0.00004
           Z           -0.01541  -0.00004   0.99988
 This molecule is an asymmetric top.
 Rotational symmetry number  1.
 Warning -- assumption of classical behavior for rotation
           may cause significant error
 Rotational temperatures (Kelvin)      0.16782     0.05400     0.05250
 Rotational constants (GHZ):           3.49682     1.12508     1.09395
 Zero-point vibrational energy     416236.9 (Joules/Mol)
                                   99.48300 (Kcal/Mol)
 Warning -- explicit consideration of  10 degrees of freedom as
           vibrations may cause significant error
 Vibrational temperatures:    111.49   173.11   217.33   256.39   362.96
          (Kelvin)            615.61   622.94   639.45   723.83   837.58
                             1029.47  1125.82  1183.61  1254.08  1300.61
                             1324.99  1338.24  1343.64  1421.71  1465.23
                             1470.37  1559.45  1594.68  1611.52  1640.11
                             1647.36  1655.58  1693.33  1728.18  1778.63
                             1789.13  1830.76  1835.32  1864.74  1943.46
                             2111.22  2128.64  2154.80  2155.16  2191.46
                             2240.41  4325.96  4342.46  4397.48  4399.93
                             4400.20  4402.90  4427.58  4468.64  4474.83
                             4511.04

 Zero-point correction=                           0.158536 (Hartree/Particle)
 Thermal correction to Energy=                    0.166689
 Thermal correction to Enthalpy=                  0.167633
 Thermal correction to Gibbs Free Energy=         0.125415
 Sum of electronic and zero-point Energies=           -422.971803
 Sum of electronic and thermal Energies=              -422.963650
 Sum of electronic and thermal Enthalpies=            -422.962706
 Sum of electronic and thermal Free Energies=         -423.004924

                     E (Thermal)             CV                S
                      KCal/Mol        Cal/Mol-Kelvin    Cal/Mol-Kelvin
 Total                  104.599             30.891             88.856
 Electronic               0.000              0.000              0.000
 Translational            0.889              2.981             40.409
 Rotational               0.889              2.981             28.703
 Vibrational            102.822             24.929             19.745
 Vibration     1          0.599              1.964              3.953
 Vibration     2          0.609              1.932              3.095
 Vibration     3          0.618              1.902              2.659
 Vibration     4          0.629              1.869              2.347
 Vibration     5          0.664              1.759              1.715
 Vibration     6          0.789              1.410              0.866
 Vibration     7          0.794              1.398              0.849
 Vibration     8          0.804              1.373              0.813
 Vibration     9          0.858              1.243              0.650
 Vibration    10          0.939              1.070              0.481

 Optimization completed.
    -- Stationary point found.
 Normal termination of Gaussian 09 at Mon Jan 27 12:02:00 2020.
