 Gaussian 09, Revision D.01,
 Gaussian 09:  ES64L-G09RevD.01 24-Apr-2013

 -----------------------------
 # b3lyp 6-31G(2df,p) opt Freq
 -----------------------------

 -----
 titel
 -----
 Symbolic Z-matrix:
 Charge =  0 Multiplicity = 1

 SCF Done:  E(RB3LYP) =  -423.198637307     A.U. after   14 cycles
 Optimization completed.
    -- Stationary point found.
 Normal termination of Gaussian 09 at Tue Jan 28 08:15:28 2020.

 ----------------------------------------------------------------------
 #N Geom=AllCheck Guess=TCheck SCRF=Check GenChk RB3LYP/6-31G(2df,p) Fr
 eq
 ----------------------------------------------------------------------

 Structure from the checkpoint file:  "/scratch/puck/g09_01a2285e-fa18-4cbd-a268-9c273b216e39/Gau-59934.chk"
 -----
 titel
 -----
 Charge =  0 Multiplicity = 1

                         Standard orientation:
 ---------------------------------------------------------------------
 Center     Atomic      Atomic             Coordinates (Angstroms)
 Number     Number       Type             X           Y           Z
 ---------------------------------------------------------------------
      1          6           0        3.890241   -0.598029    0.000608
      2          6           0        2.415209   -0.991623   -0.000477
      3          6           0        1.488596    0.207213   -0.000158
      4          8           0        1.831569    1.363479    0.000210
      5          8           0        0.197407   -0.187138   -0.000402
      6          6           0       -0.766312    0.891005   -0.000243
      7          6           0       -2.104471    0.328623   -0.000051
      8          6           0       -3.226946   -0.104269    0.000155
      9          6           0       -4.581972   -0.634229    0.000320
     10          1           0        4.135232    0.000178    0.881801
     11          1           0        4.523422   -1.489490    0.000071
     12          1           0        4.136055    0.001862   -0.879204
     13          1           0        2.162269   -1.605874   -0.872717
     14          1           0        2.161276   -1.607211    0.870518
     15          1           0       -0.593483    1.521021    0.879243
     16          1           0       -0.593751    1.521029   -0.879780
     17          1           0       -5.133338   -0.320155    0.893163
     18          1           0       -5.143201   -0.294713   -0.876933
     19          1           0       -4.572361   -1.729525   -0.015558
 ---------------------------------------------------------------------

 SCF Done:  E(RB3LYP) =  -423.198637308     A.U. after    1 cycles

 The electronic state is 1-A.
 Alpha  occ. eigenvalues --  -19.18048 -19.12445 -10.30250 -10.25877 -10.20862
 Alpha  occ. eigenvalues --  -10.19734 -10.18400 -10.17755 -10.17500  -1.09952
 Alpha  occ. eigenvalues --   -1.01176  -0.79789  -0.77940  -0.74920  -0.68344
 Alpha  occ. eigenvalues --   -0.64185  -0.56183  -0.51495  -0.49391  -0.48588
 Alpha  occ. eigenvalues --   -0.46077  -0.45396  -0.43925  -0.43100  -0.43064
 Alpha  occ. eigenvalues --   -0.39020  -0.38400  -0.37259  -0.35421  -0.34664
 Alpha  occ. eigenvalues --   -0.30419  -0.27840  -0.25771  -0.25486
 Alpha virt. eigenvalues --    0.01725   0.03388   0.05606   0.09730   0.10704
 Alpha virt. eigenvalues --    0.12471   0.14662   0.15317   0.15616   0.16615
 Alpha virt. eigenvalues --    0.17027   0.19565   0.20456   0.20822   0.20951

 Mulliken charges:
               1
     1  C   -0.370795
     2  C   -0.300611
     3  C    0.460057
     4  O   -0.352684
     5  O   -0.244740
     6  C   -0.233932
     7  C    0.013175
     8  C    0.132320
     9  C   -0.498839
    10  H    0.132540
    11  H    0.112142
    12  H    0.132570
    13  H    0.134036
    14  H    0.134028
    15  H    0.146611
    16  H    0.146590
    17  H    0.151383
    18  H    0.151436
    19  H    0.154714
 Sum of Mulliken charges =   0.00000

 Dipole moment (field-independent basis, Debye):
    X=             -1.4857    Y=             -1.6237    Z=             -0.0010  Tot=              2.2009
 Quadrupole moment (field-independent basis, Debye-Ang):
   XX=            -43.6163   YY=            -54.6309   ZZ=            -51.8443
   XY=             -3.5077   XZ=             -0.0004   YZ=             -0.0009

  Exact polarizability: 122.710   8.166  69.866  -0.001   0.000  56.024
 Approx polarizability: 150.677  22.126 109.317  -0.004   0.003  83.472

                      1                      2                      3
                      A                      A                      A
 Frequencies --     14.0256                17.0888                37.5846
 Red. masses --      2.1331                 1.0360                 4.4513
 Frc consts  --      0.0002                 0.0002                 0.0037
 IR Inten    --      0.2519                 0.0022                 0.1674

                      4                      5                      6
                      A                      A                      A
 Frequencies --     69.2462               136.2879               179.6741
 Red. masses --      3.6812                 2.2195                 4.0563
 Frc consts  --      0.0104                 0.0243                 0.0772
 IR Inten    --      0.8233                 1.3470                 1.7034

                      7                      8                      9
                      A                      A                      A
 Frequencies --    198.3920               207.0411               290.9047
 Red. masses --      1.8045                 1.6948                 3.8655
 Frc consts  --      0.0418                 0.0428                 0.1927
 IR Inten    --      1.7012                10.9535                13.1971

                     10                     11                     12
                      A                      A                      A
 Frequencies --    299.1173               378.7612               402.9640
 Red. masses --      6.0102                 4.0910                 4.5825
 Frc consts  --      0.3168                 0.3458                 0.4384
 IR Inten    --      6.4080                 0.0625                 1.2133

                     13                     14                     15
                      A                      A                      A
 Frequencies --    537.8614               581.8967               653.0903
 Red. masses --      6.1057                 2.1381                 4.2720
 Frc consts  --      1.0407                 0.4265                 1.0736
 IR Inten    --      0.8577                 2.2062                 4.4388

                     16                     17                     18
                      A                      A                      A
 Frequencies --    776.8934               809.8171               925.6351
 Red. masses --      3.7389                 1.4152                 3.7228
 Frc consts  --      1.3296                 0.5468                 1.8793
 IR Inten    --      6.1392                 9.4131                13.9926

                     19                     20                     21
                      A                      A                      A
 Frequencies --    974.3836              1009.5850              1023.8907
 Red. masses --      8.5682                 1.6539                 1.9310
 Frc consts  --      4.7929                 0.9932                 1.1927
 IR Inten    --     49.9504                 2.1789                10.3459

                     22                     23                     24
                      A                      A                      A
 Frequencies --   1051.5381              1056.4208              1098.6787
 Red. masses --      1.4173                 1.4007                 2.5070
 Frc consts  --      0.9234                 0.9210                 1.7830
 IR Inten    --      0.8524                 0.4736                35.7099

                     25                     26                     27
                      A                      A                      A
 Frequencies --   1107.4614              1182.9279              1209.2378
 Red. masses --      1.7198                 3.4016                 3.7074
 Frc consts  --      1.2427                 2.8044                 3.1941
 IR Inten    --      0.4936                 7.6940               570.2356

                     28                     29                     30
                      A                      A                      A
 Frequencies --   1246.7073              1277.9471              1369.7985
 Red. masses --      1.0686                 1.1827                 1.5948
 Frc consts  --      0.9786                 1.1380                 1.7630
 IR Inten    --      2.1473                 0.0548                92.8827

                     31                     32                     33
                      A                      A                      A
 Frequencies --   1407.9298              1414.1270              1415.5940
 Red. masses --      1.8006                 1.2400                 1.2405
 Frc consts  --      2.1029                 1.4610                 1.4646
 IR Inten    --     11.4087                 2.1688                 2.8863

                     34                     35                     36
                      A                      A                      A
 Frequencies --   1459.2986              1475.6799              1478.3898
 Red. masses --      1.0786                 1.0392                 1.0401
 Frc consts  --      1.3533                 1.3333                 1.3394
 IR Inten    --     11.1392                 5.8475                 5.8060

                     37                     38                     39
                      A                      A                      A
 Frequencies --   1489.2793              1491.6539              1499.8322
 Red. masses --      1.0735                 1.0380                 1.0578
 Frc consts  --      1.4028                 1.3607                 1.4019
 IR Inten    --      4.4632                 5.0266                 9.6909

                     40                     41                     42
                      A                      A                      A
 Frequencies --   1815.4229              2382.2458              3029.7953
 Red. masses --     11.6794                11.8456                 1.0347
 Frc consts  --     22.6791                39.6079                 5.5964
 IR Inten    --    218.3774                16.8009                26.7640

                     43                     44                     45
                      A                      A                      A
 Frequencies --   3040.7064              3044.0313              3052.1367
 Red. masses --      1.0567                 1.0609                 1.0353
 Frc consts  --      5.7561                 5.7917                 5.6823
 IR Inten    --      9.3183                14.7595                22.1070

                     46                     47                     48
                      A                      A                      A
 Frequencies --   3073.2185              3073.4644              3091.8414
 Red. masses --      1.1000                 1.1047                 1.1005
 Frc consts  --      6.1213                 6.1480                 6.1985
 IR Inten    --      0.9391                14.3753                 8.9692

                     49                     50                     51
                      A                      A                      A
 Frequencies --   3092.7235              3123.6683              3129.0396
 Red. masses --      1.0999                 1.1019                 1.1020
 Frc consts  --      6.1986                 6.3346                 6.3571
 IR Inten    --      8.1175                21.4110                20.5386

 - Thermochemistry -
 -------------------
 Temperature   298.150 Kelvin.  Pressure   1.00000 Atm.
 Atom     1 has atomic number  6 and mass  12.00000

 Molecular mass:   126.06808 amu.
 Principal axes and moments of inertia in atomic units:
                           1         2         3
     Eigenvalues --   300.234193268.673633524.39459
           X            0.99999  -0.00529   0.00000
           Y            0.00529   0.99999  -0.00001
           Z            0.00000   0.00001   1.00000
 This molecule is an asymmetric top.
 Rotational symmetry number  1.
 Rotational temperatures (Kelvin)      0.28849     0.02650     0.02458
 Rotational constants (GHZ):           6.01111     0.55213     0.51207
 Zero-point vibrational energy     407956.1 (Joules/Mol)
                                   97.50385 (Kcal/Mol)
 Warning -- explicit consideration of  14 degrees of freedom as
           vibrations may cause significant error
 Vibrational temperatures:     20.18    24.59    54.08    99.63   196.09
          (Kelvin)            258.51   285.44   297.89   418.55   430.36
                              544.95   579.77   773.86   837.22   939.65
                             1117.77  1165.14  1331.78  1401.92  1452.57
                             1473.15  1512.93  1519.95  1580.75  1593.39
                             1701.97  1739.82  1793.73  1838.68  1970.83
                             2025.69  2034.61  2036.72  2099.60  2123.17
                             2127.07  2142.74  2146.15  2157.92  2611.99
                             3427.52  4359.19  4374.89  4379.68  4391.34
                             4421.67  4422.02  4448.46  4449.73  4494.26
                             4501.98

 Zero-point correction=                           0.155382 (Hartree/Particle)
 Thermal correction to Energy=                    0.166606
 Thermal correction to Enthalpy=                  0.167550
 Thermal correction to Gibbs Free Energy=         0.114814
 Sum of electronic and zero-point Energies=           -423.043255
 Sum of electronic and thermal Energies=              -423.032031
 Sum of electronic and thermal Enthalpies=            -423.031087
 Sum of electronic and thermal Free Energies=         -423.083823

                     E (Thermal)             CV                S
                      KCal/Mol        Cal/Mol-Kelvin    Cal/Mol-Kelvin
 Total                  104.547             36.637            110.992
 Electronic               0.000              0.000              0.000
 Translational            0.889              2.981             40.409
 Rotational               0.889              2.981             29.627
 Vibrational            102.769             30.675             40.957
 Vibration     1          0.593              1.986              7.339
 Vibration     2          0.593              1.986              6.947
 Vibration     3          0.594              1.982              5.383
 Vibration     4          0.598              1.969              4.175
 Vibration     5          0.614              1.917              2.855
 Vibration     6          0.629              1.867              2.332
 Vibration     7          0.637              1.842              2.148
 Vibration     8          0.641              1.830              2.070
 Vibration     9          0.687              1.691              1.469
 Vibration    10          0.692              1.675              1.422
 Vibration    11          0.749              1.515              1.044
 Vibration    12          0.768              1.464              0.952
 Vibration    13          0.893              1.166              0.570
 Vibration    14          0.939              1.070              0.482

 Optimization completed on the basis of negligible forces.
    -- Stationary point found.
 Normal termination of Gaussian 09 at Tue Jan 28 09:30:14 2020.
