 Gaussian 09, Revision D.01,
 Gaussian 09:  ES64L-G09RevD.01 24-Apr-2013

 -----------------------------
 # b3lyp 6-31G(2df,p) opt Freq
 -----------------------------

 -----
 titel
 -----
 Symbolic Z-matrix:
 Charge =  0 Multiplicity = 1

 SCF Done:  E(RB3LYP) =  -423.224349017     A.U. after   14 cycles
 Optimization completed.
    -- Stationary point found.
 Normal termination of Gaussian 09 at Tue Jan 28 03:57:28 2020.

 ----------------------------------------------------------------------
 #N Geom=AllCheck Guess=TCheck SCRF=Check GenChk RB3LYP/6-31G(2df,p) Fr
 eq
 ----------------------------------------------------------------------

 Structure from the checkpoint file:  "/scratch/puck/g09_fa8784d8-e6c4-4b04-ba3e-86b8238756f3/Gau-3136.chk"
 -----
 titel
 -----
 Charge =  0 Multiplicity = 1

                         Standard orientation:
 ---------------------------------------------------------------------
 Center     Atomic      Atomic             Coordinates (Angstroms)
 Number     Number       Type             X           Y           Z
 ---------------------------------------------------------------------
      1          6           0        2.060269   -0.735684   -0.993519
      2          6           0        1.501204    0.063184    0.193167
      3          6           0        0.671815   -0.818209    1.132097
      4          8           0       -0.575776   -1.249879    0.568564
      5          6           0       -1.348300   -0.408186   -0.170627
      6          8           0       -2.405850   -0.804149   -0.583373
      7          6           0       -0.815939    0.950147   -0.480762
      8          6           0       -0.333293    1.893667    0.612878
      9          6           0        0.662467    1.232926   -0.288707
     10          1           0        2.716636   -1.541279   -0.649763
     11          1           0        1.254481   -1.185227   -1.581459
     12          1           0        2.641057   -0.089479   -1.659033
     13          1           0        2.341783    0.442734    0.789997
     14          1           0        1.209610   -1.741095    1.364437
     15          1           0        0.475318   -0.307340    2.081554
     16          1           0       -1.343916    1.400929   -1.311400
     17          1           0       -0.546999    2.944023    0.452383
     18          1           0       -0.416031    1.584330    1.647574
     19          1           0        1.131727    1.857555   -1.042983
 ---------------------------------------------------------------------

 SCF Done:  E(RB3LYP) =  -423.224349017     A.U. after    1 cycles

 The electronic state is 1-A.
 Alpha  occ. eigenvalues --  -19.17439 -19.10910 -10.29961 -10.24829 -10.21266
 Alpha  occ. eigenvalues --  -10.21055 -10.20901 -10.20820 -10.18637  -1.08858
 Alpha  occ. eigenvalues --   -1.00682  -0.88670  -0.79909  -0.71216  -0.65844
 Alpha  occ. eigenvalues --   -0.64843  -0.60272  -0.52633  -0.52307  -0.50591
 Alpha  occ. eigenvalues --   -0.48207  -0.45191  -0.43142  -0.42262  -0.41704
 Alpha  occ. eigenvalues --   -0.40441  -0.38244  -0.36912  -0.35963  -0.32403
 Alpha  occ. eigenvalues --   -0.31518  -0.30377  -0.28332  -0.25547
 Alpha virt. eigenvalues --    0.01298   0.07134   0.08831   0.09762   0.12243
 Alpha virt. eigenvalues --    0.13072   0.14209   0.14905   0.15368   0.16642
 Alpha virt. eigenvalues --    0.17450   0.18430   0.19831   0.21070   0.21689

 Mulliken charges:
               1
     1  C   -0.394551
     2  C   -0.030020
     3  C   -0.089641
     4  O   -0.237451
     5  C    0.420515
     6  O   -0.340258
     7  C   -0.149474
     8  C   -0.326366
     9  C   -0.018719
    10  H    0.117098
    11  H    0.138255
    12  H    0.117260
    13  H    0.086608
    14  H    0.122280
    15  H    0.113512
    16  H    0.117961
    17  H    0.127314
    18  H    0.129182
    19  H    0.096496
 Sum of Mulliken charges =   0.00000

 Dipole moment (field-independent basis, Debye):
    X=              3.9506    Y=              2.4373    Z=              0.9340  Tot=              4.7350
 Quadrupole moment (field-independent basis, Debye-Ang):
   XX=            -60.3857   YY=            -52.9573   ZZ=            -51.0707
   XY=             -5.4386   XZ=             -1.3019   YZ=             -1.4842

  Exact polarizability:  82.834  -1.116  74.856   4.001   0.210  67.447
 Approx polarizability: 123.000   4.788 107.529  11.681   1.639 102.735

                      1                      2                      3
                      A                      A                      A
 Frequencies --     94.3795               186.0799               203.2719
 Red. masses --      5.2853                 3.2926                 3.2746
 Frc consts  --      0.0277                 0.0672                 0.0797
 IR Inten    --      0.8388                 3.8739                 0.7909

                      4                      5                      6
                      A                      A                      A
 Frequencies --    211.7224               289.5367               379.3660
 Red. masses --      1.1240                 2.4907                 2.2615
 Frc consts  --      0.0297                 0.1230                 0.1918
 IR Inten    --      0.1980                 0.2721                 0.3253

                      7                      8                      9
                      A                      A                      A
 Frequencies --    432.0620               443.2337               506.0902
 Red. masses --      4.2546                 3.1405                 5.1835
 Frc consts  --      0.4680                 0.3635                 0.7822
 IR Inten    --      2.5014                 2.3167                 2.2902

                     10                     11                     12
                      A                      A                      A
 Frequencies --    546.7305               721.8782               739.5765
 Red. masses --      4.8016                 4.6859                 2.2597
 Frc consts  --      0.8456                 1.4387                 0.7282
 IR Inten    --      4.0457                 4.6235                 3.9128

                     13                     14                     15
                      A                      A                      A
 Frequencies --    750.4714               798.0565               835.1326
 Red. masses --      3.1492                 2.7643                 1.9476
 Frc consts  --      1.0450                 1.0373                 0.8003
 IR Inten    --      3.1871                 3.7296                 6.3155

                     16                     17                     18
                      A                      A                      A
 Frequencies --    886.1934               943.5170               960.7226
 Red. masses --      1.9537                 1.9068                 2.0073
 Frc consts  --      0.9040                 1.0002                 1.0916
 IR Inten    --      8.0175                 5.6166                 1.9553

                     19                     20                     21
                      A                      A                      A
 Frequencies --    964.5960              1014.7682              1038.0396
 Red. masses --      2.3491                 1.7138                 2.3400
 Frc consts  --      1.2878                 1.0398                 1.4856
 IR Inten    --      2.7537                39.1097                39.1372

                     22                     23                     24
                      A                      A                      A
 Frequencies --   1064.3106              1085.6010              1103.6280
 Red. masses --      1.2731                 1.4941                 2.3913
 Frc consts  --      0.8496                 1.0375                 1.7161
 IR Inten    --      5.6023                36.2133                46.5941

                     25                     26                     27
                      A                      A                      A
 Frequencies --   1131.3864              1148.0425              1169.6368
 Red. masses --      1.2953                 2.0694                 1.7507
 Frc consts  --      0.9769                 1.6070                 1.4112
 IR Inten    --      8.4841                 2.2439                12.4907

                     28                     29                     30
                      A                      A                      A
 Frequencies --   1203.9385              1245.8923              1280.6645
 Red. masses --      1.6762                 1.6976                 1.2196
 Frc consts  --      1.4315                 1.5525                 1.1785
 IR Inten    --     22.9091                63.7699                36.8794

                     31                     32                     33
                      A                      A                      A
 Frequencies --   1338.0744              1342.1409              1371.6103
 Red. masses --      1.8576                 1.4134                 1.7939
 Frc consts  --      1.9596                 1.5001                 1.9884
 IR Inten    --      3.9630                34.8342                 8.1135

                     34                     35                     36
                      A                      A                      A
 Frequencies --   1403.0070              1409.2122              1435.4508
 Red. masses --      1.6430                 1.3388                 1.4636
 Frc consts  --      1.9055                 1.5665                 1.7768
 IR Inten    --      2.9883                 9.6233                11.5695

                     37                     38                     39
                      A                      A                      A
 Frequencies --   1490.7665              1497.2691              1500.3255
 Red. masses --      1.2196                 1.0899                 1.0575
 Frc consts  --      1.5970                 1.4396                 1.4024
 IR Inten    --      4.5603                 5.4857                 3.7481

                     40                     41                     42
                      A                      A                      A
 Frequencies --   1527.0982              1835.8613              3014.4592
 Red. masses --      1.0932                12.1794                 1.0816
 Frc consts  --      1.5020                24.1855                 5.7909
 IR Inten    --      8.5564               372.2736                15.5873

                     43                     44                     45
                      A                      A                      A
 Frequencies --   3037.9263              3042.0698              3094.3857
 Red. masses --      1.0374                 1.0642                 1.1007
 Frc consts  --      5.6407                 5.8022                 6.2097
 IR Inten    --     29.6800                40.7375                19.0428

                     46                     47                     48
                      A                      A                      A
 Frequencies --   3106.5572              3115.2226              3147.9328
 Red. masses --      1.1017                 1.1015                 1.0591
 Frc consts  --      6.2644                 6.2979                 6.1834
 IR Inten    --     28.3170                21.8227                12.9985

                     49                     50                     51
                      A                      A                      A
 Frequencies --   3152.2651              3196.5466              3231.5444
 Red. masses --      1.0849                 1.0908                 1.1153
 Frc consts  --      6.3515                 6.5669                 6.8625
 IR Inten    --     11.9990                 2.3555                 6.0470

 - Thermochemistry -
 -------------------
 Temperature   298.150 Kelvin.  Pressure   1.00000 Atm.
 Atom     1 has atomic number  6 and mass  12.00000

 Molecular mass:   126.06808 amu.
 Principal axes and moments of inertia in atomic units:
                           1         2         3
     Eigenvalues --   757.779301106.792821398.99771
           X            0.99564  -0.09049  -0.02252
           Y            0.09071   0.99584   0.00874
           Z            0.02164  -0.01075   0.99971
 This molecule is an asymmetric top.
 Rotational symmetry number  1.
 Warning -- assumption of classical behavior for rotation
           may cause significant error
 Rotational temperatures (Kelvin)      0.11430     0.07826     0.06191
 Rotational constants (GHZ):           2.38162     1.63060     1.29002
 Zero-point vibrational energy     422690.0 (Joules/Mol)
                                  101.02534 (Kcal/Mol)
 Warning -- explicit consideration of  10 degrees of freedom as
           vibrations may cause significant error
 Vibrational temperatures:    135.79   267.73   292.46   304.62   416.58
          (Kelvin)            545.82   621.64   637.71   728.15   786.62
                             1038.62  1064.08  1079.76  1148.22  1201.57
                             1275.03  1357.51  1382.26  1387.84  1460.02
                             1493.51  1531.30  1561.94  1587.87  1627.81
                             1651.78  1682.84  1732.20  1792.56  1842.59
                             1925.19  1931.04  1973.44  2018.61  2027.54
                             2065.29  2144.88  2154.23  2158.63  2197.15
                             2641.39  4337.13  4370.89  4376.85  4452.13
                             4469.64  4482.10  4529.17  4535.40  4599.11
                             4649.47

 Zero-point correction=                           0.160994 (Hartree/Particle)
 Thermal correction to Energy=                    0.168928
 Thermal correction to Enthalpy=                  0.169872
 Thermal correction to Gibbs Free Energy=         0.128646
 Sum of electronic and zero-point Energies=           -423.063355
 Sum of electronic and thermal Energies=              -423.055421
 Sum of electronic and thermal Enthalpies=            -423.054477
 Sum of electronic and thermal Free Energies=         -423.095703

                     E (Thermal)             CV                S
                      KCal/Mol        Cal/Mol-Kelvin    Cal/Mol-Kelvin
 Total                  106.004             30.963             86.766
 Electronic               0.000              0.000              0.000
 Translational            0.889              2.981             40.409
 Rotational               0.889              2.981             28.552
 Vibrational            104.226             25.001             17.805
 Vibration     1          0.603              1.953              3.567
 Vibration     2          0.632              1.859              2.267
 Vibration     3          0.639              1.835              2.103
 Vibration     4          0.643              1.823              2.029
 Vibration     5          0.686              1.693              1.477
 Vibration     6          0.749              1.514              1.042
 Vibration     7          0.793              1.400              0.852
 Vibration     8          0.803              1.376              0.817
 Vibration     9          0.861              1.237              0.643
 Vibration    10          0.902              1.147              0.551

 Normal termination of Gaussian 09 at Tue Jan 28 04:45:26 2020.
