 Gaussian 09, Revision D.01,
 Gaussian 09:  ES64L-G09RevD.01 24-Apr-2013

 -----------------------------
 # b3lyp 6-31G(2df,p) opt Freq
 -----------------------------

 -----
 titel
 -----
 Symbolic Z-matrix:
 Charge =  0 Multiplicity = 1

 SCF Done:  E(RB3LYP) =  -423.158024815     A.U. after   14 cycles
 Optimization completed.
    -- Stationary point found.
 Normal termination of Gaussian 09 at Mon Jan 27 14:01:48 2020.

 ----------------------------------------------------------------------
 #N Geom=AllCheck Guess=TCheck SCRF=Check GenChk RB3LYP/6-31G(2df,p) Fr
 eq
 ----------------------------------------------------------------------

 Structure from the checkpoint file:  "/scratch/puck/g09_e7d986f4-604d-4321-b29b-9ad29efdb023/Gau-50331.chk"
 -----
 titel
 -----
 Charge =  0 Multiplicity = 1

                         Standard orientation:
 ---------------------------------------------------------------------
 Center     Atomic      Atomic             Coordinates (Angstroms)
 Number     Number       Type             X           Y           Z
 ---------------------------------------------------------------------
      1          6           0        3.559283    0.446169   -0.232173
      2          6           0        2.239055   -0.099212    0.046288
      3          6           0        1.142295   -0.542174    0.271831
      4          6           0       -0.183504   -1.109035    0.538889
      5          6           0       -1.136898   -0.135342    1.264184
      6          6           0       -1.748876    0.676713    0.104370
      7          8           0       -1.049712    1.880558   -0.178538
      8          6           0       -1.562643   -0.259759   -1.111635
      9          8           0       -0.897098   -1.434321   -0.655830
     10          1           0        4.200903    0.403445    0.655037
     11          1           0        4.060479   -0.114326   -1.029039
     12          1           0        3.499040    1.493290   -0.548739
     13          1           0       -0.069488   -2.049001    1.089032
     14          1           0       -1.914596   -0.715587    1.769921
     15          1           0       -0.636731    0.499958    1.998230
     16          1           0       -2.810263    0.889797    0.289773
     17          1           0       -1.132976    2.460400    0.584959
     18          1           0       -2.507774   -0.575253   -1.561935
     19          1           0       -0.966381    0.273232   -1.862814
 ---------------------------------------------------------------------

 SCF Done:  E(RB3LYP) =  -423.158024815     A.U. after    1 cycles

 The electronic state is 1-A.
 Alpha  occ. eigenvalues --  -19.13700 -19.13446 -10.24753 -10.23561 -10.21908
 Alpha  occ. eigenvalues --  -10.20014 -10.18678 -10.17072 -10.16019  -1.03724
 Alpha  occ. eigenvalues --   -1.01447  -0.78408  -0.76455  -0.74330  -0.68624
 Alpha  occ. eigenvalues --   -0.61332  -0.58885  -0.52092  -0.50249  -0.49323
 Alpha  occ. eigenvalues --   -0.45030  -0.44557  -0.42251  -0.42200  -0.41242
 Alpha  occ. eigenvalues --   -0.39765  -0.38458  -0.36516  -0.33926  -0.30901
 Alpha  occ. eigenvalues --   -0.27479  -0.26207  -0.24622  -0.23894
 Alpha virt. eigenvalues --    0.04758   0.05618   0.08296   0.10864   0.11403
 Alpha virt. eigenvalues --    0.11825   0.14554   0.15475   0.16891   0.17309
 Alpha virt. eigenvalues --    0.18285   0.18610   0.19694   0.20416   0.21720

 Mulliken charges:
               1
     1  C   -0.497982
     2  C    0.001736
     3  C    0.156977
     4  C   -0.092912
     5  C   -0.246707
     6  C    0.098061
     7  O   -0.429830
     8  C   -0.076296
     9  O   -0.247089
    10  H    0.146509
    11  H    0.150018
    12  H    0.149903
    13  H    0.104072
    14  H    0.104464
    15  H    0.104478
    16  H    0.070171
    17  H    0.281507
    18  H    0.104867
    19  H    0.118053
 Sum of Mulliken charges =   0.00000

 Dipole moment (field-independent basis, Debye):
    X=             -0.2274    Y=              1.3913    Z=              1.8279  Tot=              2.3084
 Quadrupole moment (field-independent basis, Debye-Ang):
   XX=            -44.4138   YY=            -53.8692   ZZ=            -51.6231
   XY=             -0.0317   XZ=             -2.3420   YZ=              0.9401

  Exact polarizability: 103.234   8.176  68.532  -2.944  -1.810  66.466
 Approx polarizability: 141.294  19.043 102.815  -6.720  -3.296  96.730

                      1                      2                      3
                      A                      A                      A
 Frequencies --     20.1520                28.9636                69.5813
 Red. masses --      1.0507                 2.6223                 3.7162
 Frc consts  --      0.0003                 0.0013                 0.0106
 IR Inten    --      0.0965                 0.7635                 1.7089

                      4                      5                      6
                      A                      A                      A
 Frequencies --    112.9792               189.6417               297.0030
 Red. masses --      3.5858                 4.1770                 1.3477
 Frc consts  --      0.0270                 0.0885                 0.0700
 IR Inten    --      3.4516                 3.0738                69.1566

                      7                      8                      9
                      A                      A                      A
 Frequencies --    300.2907               337.5039               411.2537
 Red. masses --      2.2893                 4.3946                 2.6802
 Frc consts  --      0.1216                 0.2949                 0.2671
 IR Inten    --     48.4326                 6.1682                 7.3436

                     10                     11                     12
                      A                      A                      A
 Frequencies --    418.7442               448.5929               539.8814
 Red. masses --      2.7583                 5.6463                 6.5501
 Frc consts  --      0.2850                 0.6694                 1.1248
 IR Inten    --      2.9227                 2.1597                 3.7809

                     13                     14                     15
                      A                      A                      A
 Frequencies --    679.2027               720.2546               817.4938
 Red. masses --      4.1868                 3.5074                 4.0324
 Frc consts  --      1.1380                 1.0720                 1.5877
 IR Inten    --      6.9229                 3.8807                14.4021

                     16                     17                     18
                      A                      A                      A
 Frequencies --    844.6100               911.6959               932.0960
 Red. masses --      3.2301                 2.3310                 3.6766
 Frc consts  --      1.3576                 1.1415                 1.8820
 IR Inten    --      3.6850                 6.9004                17.8193

                     19                     20                     21
                      A                      A                      A
 Frequencies --    982.4159               997.8649              1035.7494
 Red. masses --      2.2927                 2.5749                 2.1595
 Frc consts  --      1.3037                 1.5106                 1.3649
 IR Inten    --     11.7714                62.7017                 3.9931

                     22                     23                     24
                      A                      A                      A
 Frequencies --   1052.8691              1053.1587              1083.4188
 Red. masses --      1.4107                 1.3977                 2.6803
 Frc consts  --      0.9214                 0.9134                 1.8536
 IR Inten    --      1.9298                 1.6625                59.8324

                     25                     26                     27
                      A                      A                      A
 Frequencies --   1098.9656              1157.9519              1211.5966
 Red. masses --      3.6188                 2.3491                 1.4281
 Frc consts  --      2.5750                 1.8558                 1.2352
 IR Inten    --     58.6001                26.6774                20.9113

                     28                     29                     30
                      A                      A                      A
 Frequencies --   1228.1317              1249.4840              1265.2815
 Red. masses --      1.3326                 1.2394                 1.3430
 Frc consts  --      1.1842                 1.1400                 1.2668
 IR Inten    --     17.0507                 8.4680                38.7306

                     31                     32                     33
                      A                      A                      A
 Frequencies --   1314.2975              1349.1563              1365.3506
 Red. masses --      1.2914                 1.3584                 1.3694
 Frc consts  --      1.3143                 1.4568                 1.5040
 IR Inten    --      1.7010                11.2630                50.8213

                     34                     35                     36
                      A                      A                      A
 Frequencies --   1378.1550              1413.3856              1427.5998
 Red. masses --      1.3451                 1.2410                 1.4075
 Frc consts  --      1.5052                 1.4606                 1.6901
 IR Inten    --      2.2155                 4.5933                 4.5147

                     37                     38                     39
                      A                      A                      A
 Frequencies --   1470.7131              1476.7001              1479.2447
 Red. masses --      1.1037                 1.0395                 1.0401
 Frc consts  --      1.4065                 1.3355                 1.3409
 IR Inten    --      3.3886                 5.5051                 5.1959

                     40                     41                     42
                      A                      A                      A
 Frequencies --   1505.7489              2367.4359              3003.4658
 Red. masses --      1.0883                11.8577                 1.0847
 Frc consts  --      1.4538                39.1567                 5.7653
 IR Inten    --      1.4816                13.9712                47.1387

                     43                     44                     45
                      A                      A                      A
 Frequencies --   3026.6270              3029.1807              3049.6862
 Red. masses --      1.0349                 1.0618                 1.0794
 Frc consts  --      5.5853                 5.7404                 5.9147
 IR Inten    --     32.4593                41.1064                12.8945

                     46                     47                     48
                      A                      A                      A
 Frequencies --   3063.9910              3087.3131              3088.3552
 Red. masses --      1.0680                 1.0999                 1.1004
 Frc consts  --      5.9075                 6.1769                 6.1837
 IR Inten    --     34.7733                10.4201                10.1149

                     49                     50                     51
                      A                      A                      A
 Frequencies --   3091.9312              3119.7053              3819.7377
 Red. masses --      1.1031                 1.1040                 1.0661
 Frc consts  --      6.2134                 6.3304                 9.1646
 IR Inten    --     41.1668                19.3789                17.7155

 - Thermochemistry -
 -------------------
 Temperature   298.150 Kelvin.  Pressure   1.00000 Atm.
 Atom     1 has atomic number  6 and mass  12.00000

 Molecular mass:   126.06808 amu.
 Principal axes and moments of inertia in atomic units:
                           1         2         3
     Eigenvalues --   694.589391681.155931925.29878
           X            0.99986   0.01266  -0.01113
           Y           -0.01279   0.99984  -0.01245
           Z            0.01097   0.01259   0.99986
 This molecule is an asymmetric top.
 Rotational symmetry number  1.
 Warning -- assumption of classical behavior for rotation
           may cause significant error
 Rotational temperatures (Kelvin)      0.12470     0.05152     0.04499
 Rotational constants (GHZ):           2.59829     1.07351     0.93738
 Zero-point vibrational energy     415251.4 (Joules/Mol)
                                   99.24746 (Kcal/Mol)
 Warning -- explicit consideration of  12 degrees of freedom as
           vibrations may cause significant error
 Vibrational temperatures:     28.99    41.67   100.11   162.55   272.85
          (Kelvin)            427.32   432.05   485.59   591.70   602.48
                              645.42   776.77   977.22  1036.28  1176.19
                             1215.20  1311.73  1341.08  1413.48  1435.70
                             1490.21  1514.84  1515.26  1558.80  1581.16
                             1666.03  1743.22  1767.01  1797.73  1820.46
                             1890.98  1941.13  1964.43  1982.86  2033.54
                             2054.00  2116.03  2124.64  2128.30  2166.43
                             3406.21  4321.31  4354.64  4358.31  4387.81
                             4408.39  4441.95  4443.45  4448.59  4488.55
                             5495.74

 Zero-point correction=                           0.158161 (Hartree/Particle)
 Thermal correction to Energy=                    0.167959
 Thermal correction to Enthalpy=                  0.168903
 Thermal correction to Gibbs Free Energy=         0.120842
 Sum of electronic and zero-point Energies=           -422.999864
 Sum of electronic and thermal Energies=              -422.990066
 Sum of electronic and thermal Enthalpies=            -422.989122
 Sum of electronic and thermal Free Energies=         -423.037183

                     E (Thermal)             CV                S
                      KCal/Mol        Cal/Mol-Kelvin    Cal/Mol-Kelvin
 Total                  105.396             34.168            101.153
 Electronic               0.000              0.000              0.000
 Translational            0.889              2.981             40.409
 Rotational               0.889              2.981             29.199
 Vibrational            103.618             28.206             31.546
 Vibration     1          0.593              1.986              6.619
 Vibration     2          0.593              1.984              5.899
 Vibration     3          0.598              1.969              4.165
 Vibration     4          0.607              1.939              3.217
 Vibration     5          0.633              1.854              2.231
 Vibration     6          0.691              1.679              1.434
 Vibration     7          0.693              1.673              1.415
 Vibration     8          0.718              1.601              1.224
 Vibration     9          0.775              1.446              0.922
 Vibration    10          0.782              1.430              0.896
 Vibration    11          0.808              1.364              0.800
 Vibration    12          0.895              1.162              0.566

 Optimization completed on the basis of negligible forces.
    -- Stationary point found.
 Normal termination of Gaussian 09 at Mon Jan 27 14:39:36 2020.
