 Gaussian 09, Revision D.01,
 Gaussian 09:  ES64L-G09RevD.01 24-Apr-2013

 -----------------------------
 # b3lyp 6-31G(2df,p) opt Freq
 -----------------------------

 -----
 titel
 -----
 Symbolic Z-matrix:
 Charge =  0 Multiplicity = 1

 SCF Done:  E(RB3LYP) =  -423.198096859     A.U. after   14 cycles
 Optimization completed.
    -- Stationary point found.
 Normal termination of Gaussian 09 at Mon Jan 27 13:06:26 2020.

 ----------------------------------------------------------------------
 #N Geom=AllCheck Guess=TCheck SCRF=Check GenChk RB3LYP/6-31G(2df,p) Fr
 eq
 ----------------------------------------------------------------------

 Structure from the checkpoint file:  "/scratch/puck/g09_0cde910f-5563-41fe-9d55-2dff4e91387f/Gau-157791.chk"
 -----
 titel
 -----
 Charge =  0 Multiplicity = 1

                         Standard orientation:
 ---------------------------------------------------------------------
 Center     Atomic      Atomic             Coordinates (Angstroms)
 Number     Number       Type             X           Y           Z
 ---------------------------------------------------------------------
      1          8           0       -0.331886    2.127049    0.016257
      2          6           0       -0.658048    0.967810   -0.025917
      3          6           0       -2.087575    0.423523    0.031432
      4          6           0       -1.918998   -1.090714    0.234169
      5          6           0       -0.579514   -1.410645   -0.467217
      6          6           0        0.312422   -0.210216   -0.144569
      7          6           0        1.611250    0.035862   -0.938943
      8          8           0        2.440172   -0.194529    0.217126
      9          6           0        1.291588   -0.340320    1.064281
     10          1           0       -2.676852    0.938523    0.793542
     11          1           0       -2.556628    0.643457   -0.937146
     12          1           0       -1.842327   -1.319857    1.303455
     13          1           0       -2.752136   -1.674900   -0.162783
     14          1           0       -0.145793   -2.363097   -0.150850
     15          1           0       -0.733974   -1.469189   -1.552720
     16          1           0        1.813193   -0.683140   -1.742489
     17          1           0        1.711819    1.060440   -1.316293
     18          1           0        1.267403   -1.311510    1.575457
     19          1           0        1.222248    0.467318    1.803347
 ---------------------------------------------------------------------

 SCF Done:  E(RB3LYP) =  -423.198096859     A.U. after    1 cycles

 The electronic state is 1-A.
 Alpha  occ. eigenvalues --  -19.13574 -19.13394 -10.27022 -10.23887 -10.23313
 Alpha  occ. eigenvalues --  -10.20448 -10.19935 -10.19769 -10.19731  -1.04923
 Alpha  occ. eigenvalues --   -1.03838  -0.84698  -0.75100  -0.69906  -0.69620
 Alpha  occ. eigenvalues --   -0.62471  -0.58411  -0.52671  -0.50238  -0.48256
 Alpha  occ. eigenvalues --   -0.47120  -0.44908  -0.43906  -0.42963  -0.40260
 Alpha  occ. eigenvalues --   -0.39332  -0.38963  -0.37710  -0.35782  -0.34273
 Alpha  occ. eigenvalues --   -0.31744  -0.30888  -0.25107  -0.24325
 Alpha virt. eigenvalues --   -0.02734   0.06406   0.09092   0.10927   0.11128
 Alpha virt. eigenvalues --    0.12513   0.13784   0.14905   0.15532   0.16404
 Alpha virt. eigenvalues --    0.18388   0.18701   0.19551   0.19904   0.21063

 Mulliken charges:
               1
     1  O   -0.321651
     2  C    0.348199
     3  C   -0.319441
     4  C   -0.224834
     5  C   -0.306450
     6  C    0.191585
     7  C   -0.129706
     8  O   -0.268541
     9  C   -0.103744
    10  H    0.131300
    11  H    0.134634
    12  H    0.110368
    13  H    0.108584
    14  H    0.109695
    15  H    0.105637
    16  H    0.099863
    17  H    0.119647
    18  H    0.101136
    19  H    0.113720
 Sum of Mulliken charges =   0.00000

 Dipole moment (field-independent basis, Debye):
    X=             -2.5107    Y=             -2.5468    Z=             -0.3573  Tot=              3.5941
 Quadrupole moment (field-independent basis, Debye-Ang):
   XX=            -57.0004   YY=            -58.9683   ZZ=            -49.5066
   XY=              0.7109   XZ=             -0.8393   YZ=             -0.3385

  Exact polarizability:  80.788   0.793  74.819  -1.116  -0.341  68.235
 Approx polarizability: 107.986   1.753 114.556   0.119  -0.700 103.302

                      1                      2                      3
                      A                      A                      A
 Frequencies --     63.2404                81.1326               177.7836
 Red. masses --      3.2414                 4.5504                 2.1118
 Frc consts  --      0.0076                 0.0176                 0.0393
 IR Inten    --      1.1272                 3.7458                 2.8863

                      4                      5                      6
                      A                      A                      A
 Frequencies --    216.7528               283.0992               358.5644
 Red. masses --      2.6167                 2.9030                 2.0515
 Frc consts  --      0.0724                 0.1371                 0.1554
 IR Inten    --      1.8485                 4.1025                 1.9307

                      7                      8                      9
                      A                      A                      A
 Frequencies --    407.8616               527.7595               548.2311
 Red. masses --      3.9733                 2.0891                 3.4961
 Frc consts  --      0.3894                 0.3428                 0.6191
 IR Inten    --      1.4502                 3.2697                 3.0866

                     10                     11                     12
                      A                      A                      A
 Frequencies --    631.6972               644.8335               808.3396
 Red. masses --      2.5102                 4.8894                 2.2622
 Frc consts  --      0.5902                 1.1978                 0.8709
 IR Inten    --      1.8542                 2.6452                 2.8527

                     13                     14                     15
                      A                      A                      A
 Frequencies --    819.4421               843.9962               895.8515
 Red. masses --      1.9507                 3.2911                 2.2140
 Frc consts  --      0.7717                 1.3813                 1.0469
 IR Inten    --      9.8187                14.8771                 1.3389

                     16                     17                     18
                      A                      A                      A
 Frequencies --    934.3655               952.8111               966.0707
 Red. masses --      2.1724                 1.3300                 2.1434
 Frc consts  --      1.1175                 0.7114                 1.1786
 IR Inten    --      2.1844                 0.1963                15.1720

                     19                     20                     21
                      A                      A                      A
 Frequencies --    990.4548              1013.4776              1050.1117
 Red. masses --      3.1161                 2.0949                 4.8618
 Frc consts  --      1.8011                 1.2678                 3.1588
 IR Inten    --      8.1403                 1.5617                57.9642

                     22                     23                     24
                      A                      A                      A
 Frequencies --   1056.4313              1063.7442              1162.2301
 Red. masses --      4.3526                 1.8172                 1.3108
 Frc consts  --      2.8621                 1.2115                 1.0432
 IR Inten    --     76.3138                 3.8005                 1.2411

                     25                     26                     27
                      A                      A                      A
 Frequencies --   1170.1639              1172.8325              1195.1250
 Red. masses --      1.0800                 1.8132                 1.7552
 Frc consts  --      0.8713                 1.4695                 1.4771
 IR Inten    --      0.3797                26.4973                 1.4335

                     28                     29                     30
                      A                      A                      A
 Frequencies --   1225.1597              1245.2913              1274.6943
 Red. masses --      2.0960                 1.9880                 1.7280
 Frc consts  --      1.8537                 1.8164                 1.6543
 IR Inten    --     14.2574                 0.5566                13.0695

                     31                     32                     33
                      A                      A                      A
 Frequencies --   1299.3348              1314.9119              1337.2131
 Red. masses --      1.4455                 1.2505                 1.3216
 Frc consts  --      1.4379                 1.2739                 1.3923
 IR Inten    --      1.0440                 0.9998                 0.2431

                     34                     35                     36
                      A                      A                      A
 Frequencies --   1349.7902              1375.7424              1449.2273
 Red. masses --      1.7777                 1.4268                 1.0829
 Frc consts  --      1.9083                 1.5910                 1.3400
 IR Inten    --     16.9434                11.1730                 7.6713

                     37                     38                     39
                      A                      A                      A
 Frequencies --   1490.0644              1500.9277              1505.6199
 Red. masses --      1.0828                 1.0865                 1.0911
 Frc consts  --      1.4164                 1.4422                 1.4572
 IR Inten    --      2.7706                 1.7538                 1.4831

                     40                     41                     42
                      A                      A                      A
 Frequencies --   1526.6706              1837.1654              3003.4058
 Red. masses --      1.1118                12.4431                 1.0526
 Frc consts  --      1.5268                24.7443                 5.5943
 IR Inten    --      1.6993               160.0865                94.7093

                     43                     44                     45
                      A                      A                      A
 Frequencies --   3016.5480              3024.7945              3030.9646
 Red. masses --      1.0578                 1.0675                 1.0697
 Frc consts  --      5.6713                 5.7545                 5.7901
 IR Inten    --      9.7773                26.4539                 4.7211

                     46                     47                     48
                      A                      A                      A
 Frequencies --   3043.8053              3056.1462              3067.6506
 Red. masses --      1.0642                 1.1107                 1.1109
 Frc consts  --      5.8093                 6.1123                 6.1593
 IR Inten    --     31.6861                28.5080                28.9500

                     49                     50                     51
                      A                      A                      A
 Frequencies --   3090.9515              3103.4219              3110.4293
 Red. masses --      1.0957                 1.0960                 1.0975
 Frc consts  --      6.1677                 6.2191                 6.2561
 IR Inten    --     26.5349                21.5909                16.6330

 - Thermochemistry -
 -------------------
 Temperature   298.150 Kelvin.  Pressure   1.00000 Atm.
 Atom     1 has atomic number  8 and mass  15.99491

 Molecular mass:   126.06808 amu.
 Principal axes and moments of inertia in atomic units:
                           1         2         3
     Eigenvalues --   671.730431194.832231546.86782
           X            0.99961   0.02707  -0.00696
           Y           -0.02707   0.99963  -0.00108
           Z            0.00693   0.00127   0.99998
 This molecule is an asymmetric top.
 Rotational symmetry number  1.
 Warning -- assumption of classical behavior for rotation
           may cause significant error
 Rotational temperatures (Kelvin)      0.12894     0.07249     0.05599
 Rotational constants (GHZ):           2.68670     1.51046     1.16671
 Zero-point vibrational energy     420585.1 (Joules/Mol)
                                  100.52225 (Kcal/Mol)
 Warning -- explicit consideration of   9 degrees of freedom as
           vibrations may cause significant error
 Vibrational temperatures:     90.99   116.73   255.79   311.86   407.32
          (Kelvin)            515.89   586.82   759.33   788.78   908.87
                              927.77  1163.02  1178.99  1214.32  1288.93
                             1344.34  1370.88  1389.96  1425.04  1458.17
                             1510.87  1519.97  1530.49  1672.19  1683.60
                             1687.44  1719.52  1762.73  1791.69  1834.00
                             1869.45  1891.86  1923.95  1942.04  1979.38
                             2085.11  2143.87  2159.50  2166.25  2196.54
                             2643.27  4321.23  4340.13  4352.00  4360.88
                             4379.35  4397.11  4413.66  4447.18  4465.13
                             4475.21

 Zero-point correction=                           0.160192 (Hartree/Particle)
 Thermal correction to Energy=                    0.168263
 Thermal correction to Enthalpy=                  0.169207
 Thermal correction to Gibbs Free Energy=         0.126923
 Sum of electronic and zero-point Energies=           -423.037904
 Sum of electronic and thermal Energies=              -423.029834
 Sum of electronic and thermal Enthalpies=            -423.028890
 Sum of electronic and thermal Free Energies=         -423.071174

                     E (Thermal)             CV                S
                      KCal/Mol        Cal/Mol-Kelvin    Cal/Mol-Kelvin
 Total                  105.586             30.368             88.993
 Electronic               0.000              0.000              0.000
 Translational            0.889              2.981             40.409
 Rotational               0.889              2.981             28.609
 Vibrational            103.809             24.406             19.976
 Vibration     1          0.597              1.972              4.353
 Vibration     2          0.600              1.962              3.863
 Vibration     3          0.628              1.870              2.352
 Vibration     4          0.646              1.816              1.986
 Vibration     5          0.682              1.705              1.515
 Vibration     6          0.733              1.558              1.128
 Vibration     7          0.772              1.453              0.934
 Vibration     8          0.883              1.189              0.592
 Vibration     9          0.903              1.144              0.548

 Optimization completed.
    -- Stationary point found.
 Normal termination of Gaussian 09 at Mon Jan 27 13:54:31 2020.
