 Gaussian 09, Revision D.01,
 Gaussian 09:  ES64L-G09RevD.01 24-Apr-2013

 -----------------------------
 # b3lyp 6-31G(2df,p) opt Freq
 -----------------------------

 -----
 titel
 -----
 Symbolic Z-matrix:
 Charge =  0 Multiplicity = 1

 SCF Done:  E(RB3LYP) =  -423.173077562     A.U. after   12 cycles
 Optimization completed.
    -- Stationary point found.
 Normal termination of Gaussian 09 at Tue Jan 28 03:06:08 2020.

 ----------------------------------------------------------------------
 #N Geom=AllCheck Guess=TCheck SCRF=Check GenChk RB3LYP/6-31G(2df,p) Fr
 eq
 ----------------------------------------------------------------------

 Structure from the checkpoint file:  "/scratch/puck/g09_e8bb980a-e556-4e26-8c2b-7cbca55d022d/Gau-44561.chk"
 -----
 titel
 -----
 Charge =  0 Multiplicity = 1

                         Standard orientation:
 ---------------------------------------------------------------------
 Center     Atomic      Atomic             Coordinates (Angstroms)
 Number     Number       Type             X           Y           Z
 ---------------------------------------------------------------------
      1          6           0        2.591616   -0.160345    0.484287
      2          6           0        1.368817   -0.199311   -0.423458
      3          8           0        0.816923    1.130246   -0.591748
      4          6           0       -0.446882    1.121861    0.019290
      5          6           0       -1.551376    0.219509   -0.644117
      6          6           0       -2.037384   -0.114255    0.782951
      7          6           0       -0.524788   -0.003683    1.091318
      8          6           0        0.157242   -0.982715    0.098039
      9          8           0       -0.798258   -0.954740   -0.991838
     10          1           0        3.054801   -1.150914    0.549295
     11          1           0        3.331005    0.537499    0.081771
     12          1           0        2.332314    0.168709    1.495126
     13          1           0        1.639905   -0.579568   -1.414282
     14          1           0       -0.750264    2.129186    0.301209
     15          1           0       -2.194745    0.515747   -1.470457
     16          1           0       -2.610545    0.687448    1.254392
     17          1           0       -2.532110   -1.078111    0.911217
     18          1           0       -0.110293    0.087701    2.093136
     19          1           0        0.347143   -2.008105    0.417413
 ---------------------------------------------------------------------

 SCF Done:  E(RB3LYP) =  -423.173077562     A.U. after    1 cycles

 The electronic state is 1-A.
 Alpha  occ. eigenvalues --  -19.13682 -19.13629 -10.23371 -10.23345 -10.23217
 Alpha  occ. eigenvalues --  -10.22882 -10.19599 -10.18761 -10.17703  -1.06625
 Alpha  occ. eigenvalues --   -1.00997  -0.83118  -0.77533  -0.71044  -0.65516
 Alpha  occ. eigenvalues --   -0.61532  -0.57804  -0.54981  -0.53020  -0.49274
 Alpha  occ. eigenvalues --   -0.46318  -0.45756  -0.41472  -0.39763  -0.39230
 Alpha  occ. eigenvalues --   -0.37829  -0.37412  -0.36215  -0.34300  -0.33336
 Alpha  occ. eigenvalues --   -0.32191  -0.31604  -0.25829  -0.22629
 Alpha virt. eigenvalues --    0.09214   0.09782   0.10444   0.12550   0.13791
 Alpha virt. eigenvalues --    0.14227   0.14862   0.15817   0.16476   0.17297
 Alpha virt. eigenvalues --    0.17527   0.18005   0.19172   0.20258   0.22490

 Mulliken charges:
               1
     1  C   -0.414514
     2  C    0.138031
     3  O   -0.293103
     4  C    0.129326
     5  C    0.049517
     6  C   -0.258338
     7  C   -0.113070
     8  C    0.050767
     9  O   -0.283946
    10  H    0.114646
    11  H    0.131196
    12  H    0.117260
    13  H    0.091127
    14  H    0.088604
    15  H    0.081674
    16  H    0.103842
    17  H    0.108441
    18  H    0.078533
    19  H    0.080007
 Sum of Mulliken charges =   0.00000

 Dipole moment (field-independent basis, Debye):
    X=             -0.2305    Y=             -0.1358    Z=              1.7803  Tot=              1.8003
 Quadrupole moment (field-independent basis, Debye-Ang):
   XX=            -50.4090   YY=            -53.8111   ZZ=            -54.2401
   XY=             -4.1491   XZ=             -0.2167   YZ=             -0.4853

  Exact polarizability:  87.091  -4.228  67.653  -0.622  -0.072  66.270
 Approx polarizability: 113.239  -4.707 106.611  -0.466   0.460 103.979

                      1                      2                      3
                      A                      A                      A
 Frequencies --    160.1491               214.4902               261.8936
 Red. masses --      3.1363                 1.0493                 2.6375
 Frc consts  --      0.0474                 0.0284                 0.1066
 IR Inten    --      1.8498                 0.0990                 0.3732

                      4                      5                      6
                      A                      A                      A
 Frequencies --    354.6387               437.5733               458.7461
 Red. masses --      3.7896                 3.6147                 2.5488
 Frc consts  --      0.2808                 0.4078                 0.3160
 IR Inten    --      4.1836                 0.2833                 1.7894

                      7                      8                      9
                      A                      A                      A
 Frequencies --    508.4025               645.8496               712.2702
 Red. masses --      3.8813                 3.4929                 4.5819
 Frc consts  --      0.5911                 0.8584                 1.3696
 IR Inten    --      4.2694                 5.1550                 5.9616

                     10                     11                     12
                      A                      A                      A
 Frequencies --    742.8246               801.3568               838.6367
 Red. masses --      4.3261                 2.6147                 2.5970
 Frc consts  --      1.4064                 0.9893                 1.0762
 IR Inten    --      4.8938                 1.7709                14.3747

                     13                     14                     15
                      A                      A                      A
 Frequencies --    857.4147               879.0529               880.9924
 Red. masses --      2.7684                 2.3851                 2.3432
 Frc consts  --      1.1991                 1.0859                 1.0715
 IR Inten    --      2.2182                12.2810                12.2199

                     16                     17                     18
                      A                      A                      A
 Frequencies --    916.3266               935.9423               949.9745
 Red. masses --      2.2917                 3.1389                 1.5747
 Frc consts  --      1.1337                 1.6200                 0.8373
 IR Inten    --      5.9186                17.0568                 4.7999

                     19                     20                     21
                      A                      A                      A
 Frequencies --    991.4089              1020.4814              1040.5807
 Red. masses --      2.0656                 2.3557                 2.0582
 Frc consts  --      1.1962                 1.4454                 1.3130
 IR Inten    --     11.2479                 7.9269                34.1587

                     22                     23                     24
                      A                      A                      A
 Frequencies --   1061.9435              1086.9916              1097.9901
 Red. masses --      2.7594                 1.5943                 1.6772
 Frc consts  --      1.8334                 1.1099                 1.1913
 IR Inten    --     33.7464                 1.7409                 8.4710

                     25                     26                     27
                      A                      A                      A
 Frequencies --   1113.0654              1121.7727              1129.8585
 Red. masses --      1.8623                 3.0546                 2.1055
 Frc consts  --      1.3593                 2.2648                 1.5836
 IR Inten    --     56.2445                89.2160                 9.2257

                     28                     29                     30
                      A                      A                      A
 Frequencies --   1185.8927              1222.7391              1238.0169
 Red. masses --      1.4727                 1.9328                 1.5887
 Frc consts  --      1.2203                 1.7026                 1.4347
 IR Inten    --      2.3257                 8.7262                 5.9538

                     31                     32                     33
                      A                      A                      A
 Frequencies --   1248.8534              1273.3715              1290.9751
 Red. masses --      1.3797                 1.4184                 1.6724
 Frc consts  --      1.2678                 1.3551                 1.6422
 IR Inten    --      4.0432                 2.4129                 1.3058

                     34                     35                     36
                      A                      A                      A
 Frequencies --   1302.1228              1332.1938              1368.0576
 Red. masses --      1.3859                 1.3656                 1.6103
 Frc consts  --      1.3845                 1.4280                 1.7757
 IR Inten    --      2.3613                 6.9927                16.7513

                     37                     38                     39
                      A                      A                      A
 Frequencies --   1380.7347              1405.2957              1486.0256
 Red. masses --      1.3944                 1.2818                 1.0880
 Frc consts  --      1.5662                 1.4914                 1.4156
 IR Inten    --      2.7667                11.8830                 5.3096

                     40                     41                     42
                      A                      A                      A
 Frequencies --   1487.7706              1496.0953              3037.3284
 Red. masses --      1.0939                 1.0485                 1.0356
 Frc consts  --      1.4266                 1.3827                 5.6291
 IR Inten    --      0.4705                 3.2803                14.7419

                     43                     44                     45
                      A                      A                      A
 Frequencies --   3051.3572              3072.4886              3107.3330
 Red. masses --      1.0857                 1.0567                 1.0971
 Frc consts  --      5.9559                 5.8771                 6.2414
 IR Inten    --     21.6118                26.8442                 5.7214

                     46                     47                     48
                      A                      A                      A
 Frequencies --   3112.6166              3118.9839              3130.1076
 Red. masses --      1.0927                 1.1014                 1.0895
 Frc consts  --      6.2375                 6.3129                 6.2891
 IR Inten    --     51.8243                19.0752                 9.1955

                     49                     50                     51
                      A                      A                      A
 Frequencies --   3137.7234              3140.1807              3146.7296
 Red. masses --      1.1087                 1.0896                 1.0946
 Frc consts  --      6.4310                 6.3303                 6.3860
 IR Inten    --     23.7667                60.3089                17.3159

 - Thermochemistry -
 -------------------
 Temperature   298.150 Kelvin.  Pressure   1.00000 Atm.
 Atom     1 has atomic number  6 and mass  12.00000

 Molecular mass:   126.06808 amu.
 Principal axes and moments of inertia in atomic units:
                           1         2         3
     Eigenvalues --   508.583501153.924951185.76778
           X            0.99965  -0.02612   0.00404
           Y            0.02629   0.99844  -0.04931
           Z           -0.00275   0.04940   0.99878
 This molecule is an asymmetric top.
 Rotational symmetry number  1.
 Warning -- assumption of classical behavior for rotation
           may cause significant error
 Rotational temperatures (Kelvin)      0.17030     0.07506     0.07304
 Rotational constants (GHZ):           3.54856     1.56400     1.52200
 Zero-point vibrational energy     424636.2 (Joules/Mol)
                                  101.49048 (Kcal/Mol)
 Warning -- explicit consideration of   7 degrees of freedom as
           vibrations may cause significant error
 Vibrational temperatures:    230.42   308.60   376.81   510.25   629.57
          (Kelvin)            660.03   731.48   929.23  1024.80  1068.76
                             1152.97  1206.61  1233.63  1264.76  1267.55
                             1318.39  1346.61  1366.80  1426.41  1468.24
                             1497.16  1527.90  1563.94  1579.76  1601.45
                             1613.98  1625.61  1706.23  1759.25  1781.23
                             1796.82  1832.10  1857.42  1873.46  1916.73
                             1968.33  1986.57  2021.90  2138.06  2140.57
                             2152.54  4370.03  4390.22  4420.62  4470.75
                             4478.36  4487.52  4503.52  4514.48  4518.01
                             4527.44

 Zero-point correction=                           0.161735 (Hartree/Particle)
 Thermal correction to Energy=                    0.168515
 Thermal correction to Enthalpy=                  0.169459
 Thermal correction to Gibbs Free Energy=         0.130893
 Sum of electronic and zero-point Energies=           -423.011342
 Sum of electronic and thermal Energies=              -423.004563
 Sum of electronic and thermal Enthalpies=            -423.003619
 Sum of electronic and thermal Free Energies=         -423.042184

                     E (Thermal)             CV                S
                      KCal/Mol        Cal/Mol-Kelvin    Cal/Mol-Kelvin
 Total                  105.744             28.328             81.168
 Electronic               0.000              0.000              0.000
 Translational            0.889              2.981             40.409
 Rotational               0.889              2.981             28.033
 Vibrational            103.967             22.366             12.726
 Vibration     1          0.622              1.891              2.548
 Vibration     2          0.644              1.819              2.005
 Vibration     3          0.669              1.743              1.649
 Vibration     4          0.730              1.566              1.146
 Vibration     5          0.798              1.388              0.834
 Vibration     6          0.817              1.342              0.770
 Vibration     7          0.864              1.231              0.637

 Normal termination of Gaussian 09 at Tue Jan 28 05:12:00 2020.
