 Gaussian 09, Revision D.01,
 Gaussian 09:  ES64L-G09RevD.01 24-Apr-2013

 -----------------------------
 # b3lyp 6-31G(2df,p) opt Freq
 -----------------------------

 -----
 titel
 -----
 Symbolic Z-matrix:
 Charge =  0 Multiplicity = 1

 SCF Done:  E(RB3LYP) =  -423.174814514     A.U. after   14 cycles
 Optimization completed.
    -- Stationary point found.
 Normal termination of Gaussian 09 at Mon Jan 27 22:04:53 2020.

 ----------------------------------------------------------------------
 #N Geom=AllCheck Guess=TCheck SCRF=Check GenChk RB3LYP/6-31G(2df,p) Fr
 eq
 ----------------------------------------------------------------------

 Structure from the checkpoint file:  "/scratch/puck/g09_1574c506-36c7-4fcb-be41-7c181d244ea1/Gau-62986.chk"
 -----
 titel
 -----
 Charge =  0 Multiplicity = 1

                         Standard orientation:
 ---------------------------------------------------------------------
 Center     Atomic      Atomic             Coordinates (Angstroms)
 Number     Number       Type             X           Y           Z
 ---------------------------------------------------------------------
      1          6           0        2.230970   -0.111511   -0.981248
      2          6           0        0.720970   -0.035380   -0.961594
      3          6           0       -0.049519   -0.743942    0.140773
      4          8           0        0.661354   -1.438759    1.115457
      5          6           0       -1.491632   -1.161425   -0.136495
      6          6           0       -2.199819    0.160512   -0.366532
      7          6           0       -1.391969    1.211505   -0.199375
      8          6           0       -0.001770    0.772564    0.117024
      9          8           0        0.723416    1.412072    1.128278
     10          1           0        2.671653    0.783045   -1.437129
     11          1           0        2.639693   -0.228885    0.024041
     12          1           0        2.560954   -0.974766   -1.568117
     13          1           0        0.249457   -0.006605   -1.941472
     14          1           0        0.875111   -0.800596    1.809342
     15          1           0       -1.574739   -1.829303   -1.002888
     16          1           0       -1.904147   -1.705139    0.722915
     17          1           0       -3.241810    0.214226   -0.660853
     18          1           0       -1.669855    2.254593   -0.299672
     19          1           0        1.412143    1.952983    0.728628
 ---------------------------------------------------------------------

 SCF Done:  E(RB3LYP) =  -423.174814514     A.U. after    1 cycles

 The electronic state is 1-A.
 Alpha  occ. eigenvalues --  -19.15704 -19.13703 -10.23310 -10.22794 -10.18845
 Alpha  occ. eigenvalues --  -10.18296 -10.18200 -10.17949 -10.17909  -1.04600
 Alpha  occ. eigenvalues --   -1.01669  -0.86795  -0.77667  -0.70180  -0.69960
 Alpha  occ. eigenvalues --   -0.59315  -0.56621  -0.55206  -0.52276  -0.48343
 Alpha  occ. eigenvalues --   -0.45979  -0.43643  -0.42187  -0.41085  -0.39006
 Alpha  occ. eigenvalues --   -0.38367  -0.37652  -0.36369  -0.35368  -0.33332
 Alpha  occ. eigenvalues --   -0.29908  -0.27983  -0.23897  -0.22614
 Alpha virt. eigenvalues --    0.01606   0.05935   0.11365   0.11820   0.12290
 Alpha virt. eigenvalues --    0.14109   0.14752   0.15779   0.16954   0.17468
 Alpha virt. eigenvalues --    0.17852   0.19045   0.20317   0.21681   0.23998

 Mulliken charges:
               1
     1  C   -0.429527
     2  C   -0.123881
     3  C    0.362777
     4  O   -0.481477
     5  C   -0.333908
     6  C   -0.076867
     7  C   -0.139300
     8  C    0.253729
     9  O   -0.476440
    10  H    0.107079
    11  H    0.124478
    12  H    0.127427
    13  H    0.082159
    14  H    0.291611
    15  H    0.111770
    16  H    0.116217
    17  H    0.096954
    18  H    0.093989
    19  H    0.293212
 Sum of Mulliken charges =   0.00000

 Dipole moment (field-independent basis, Debye):
    X=              0.3050    Y=              1.4758    Z=             -1.0258  Tot=              1.8230
 Quadrupole moment (field-independent basis, Debye-Ang):
   XX=            -49.4085   YY=            -53.4465   ZZ=            -53.4644
   XY=              3.7476   XZ=              0.7763   YZ=              0.2914

  Exact polarizability:  88.760   4.780  76.688   0.481   0.114  63.152
 Approx polarizability: 119.636  12.662 122.602   2.795   1.550  98.216

                      1                      2                      3
                      A                      A                      A
 Frequencies --    114.4926               174.7919               200.2761
 Red. masses --      1.0445                 3.7156                 3.4641
 Frc consts  --      0.0081                 0.0669                 0.0819
 IR Inten    --      1.5037                 9.3866                 7.3781

                      4                      5                      6
                      A                      A                      A
 Frequencies --    220.5269               237.2999               259.1337
 Red. masses --      2.8407                 2.9106                 1.1207
 Frc consts  --      0.0814                 0.0966                 0.0443
 IR Inten    --      1.2139                 6.6959                60.6095

                      7                      8                      9
                      A                      A                      A
 Frequencies --    302.7422               346.6170               417.5369
 Red. masses --      3.1728                 1.5263                 2.0807
 Frc consts  --      0.1713                 0.1080                 0.2137
 IR Inten    --      2.0492                75.8595                14.1765

                     10                     11                     12
                      A                      A                      A
 Frequencies --    460.9556               517.8542               554.3117
 Red. masses --      2.3280                 4.0128                 3.5553
 Frc consts  --      0.2914                 0.6340                 0.6436
 IR Inten    --      0.7929                 5.0491                 7.5243

                     13                     14                     15
                      A                      A                      A
 Frequencies --    612.3507               719.5985               730.0897
 Red. masses --      4.4684                 1.9236                 2.5518
 Frc consts  --      0.9872                 0.5869                 0.8014
 IR Inten    --      6.0476                11.1498                10.7708

                     16                     17                     18
                      A                      A                      A
 Frequencies --    756.0668               782.0963               845.3385
 Red. masses --      3.5534                 3.5474                 3.1979
 Frc consts  --      1.1968                 1.2785                 1.3464
 IR Inten    --     23.3641                 7.0098                15.4745

                     19                     20                     21
                      A                      A                      A
 Frequencies --    935.7867               949.1788               983.6560
 Red. masses --      2.0379                 1.2774                 1.5542
 Frc consts  --      1.0514                 0.6781                 0.8860
 IR Inten    --      5.5315                 2.3083                 5.8833

                     22                     23                     24
                      A                      A                      A
 Frequencies --   1003.5426              1041.8126              1071.9264
 Red. masses --      1.5384                 1.6998                 2.2582
 Frc consts  --      0.9128                 1.0870                 1.5288
 IR Inten    --      5.7672                15.6828                 3.5982

                     25                     26                     27
                      A                      A                      A
 Frequencies --   1098.6216              1121.4091              1147.8201
 Red. masses --      3.3837                 1.3328                 1.4421
 Frc consts  --      2.4062                 0.9875                 1.1194
 IR Inten    --     12.4842                 0.5083                 1.8019

                     28                     29                     30
                      A                      A                      A
 Frequencies --   1168.2387              1196.0814              1228.7838
 Red. masses --      1.4589                 2.3754                 1.8999
 Frc consts  --      1.1731                 2.0022                 1.6902
 IR Inten    --      5.9643                99.0977                44.0651

                     31                     32                     33
                      A                      A                      A
 Frequencies --   1272.3420              1313.4029              1327.1031
 Red. masses --      1.5237                 1.7968                 1.4495
 Frc consts  --      1.4533                 1.8262                 1.5041
 IR Inten    --     51.4854                15.0156                68.8072

                     34                     35                     36
                      A                      A                      A
 Frequencies --   1380.5606              1393.6190              1413.9152
 Red. masses --      1.6291                 2.1024                 1.4517
 Frc consts  --      1.8294                 2.4057                 1.7099
 IR Inten    --      4.0421                 3.3241                 6.0949

                     37                     38                     39
                      A                      A                      A
 Frequencies --   1423.6880              1474.0055              1490.4885
 Red. masses --      2.6204                 1.1223                 1.0492
 Frc consts  --      3.1293                 1.4366                 1.3734
 IR Inten    --     18.9132                 4.0844                 2.8575

                     40                     41                     42
                      A                      A                      A
 Frequencies --   1501.5887              1660.0915              3025.0993
 Red. masses --      1.0733                 6.3203                 1.0591
 Frc consts  --      1.4258                10.2624                 5.7102
 IR Inten    --      9.8567                 3.0635                32.7822

                     43                     44                     45
                      A                      A                      A
 Frequencies --   3031.0363              3056.7385              3088.6614
 Red. masses --      1.0408                 1.1025                 1.0981
 Frc consts  --      5.6340                 6.0696                 6.1722
 IR Inten    --     37.4350                16.4947                19.9469

                     46                     47                     48
                      A                      A                      A
 Frequencies --   3122.3708              3137.4689              3185.9858
 Red. masses --      1.0909                 1.0942                 1.0847
 Frc consts  --      6.2665                 6.3462                 6.4870
 IR Inten    --      0.4712                24.1166                 5.1956

                     49                     50                     51
                      A                      A                      A
 Frequencies --   3210.1494              3751.5248              3810.6460
 Red. masses --      1.1039                 1.0660                 1.0667
 Frc consts  --      6.7024                 8.8391                 9.1261
 IR Inten    --     22.4923                37.4251                30.6747

 - Thermochemistry -
 -------------------
 Temperature   298.150 Kelvin.  Pressure   1.00000 Atm.
 Atom     1 has atomic number  6 and mass  12.00000

 Molecular mass:   126.06808 amu.
 Principal axes and moments of inertia in atomic units:
                           1         2         3
     Eigenvalues --   751.123861115.729861297.35800
           X            0.99948   0.02642  -0.01857
           Y           -0.02637   0.99965   0.00251
           Z            0.01863  -0.00202   0.99982
 This molecule is an asymmetric top.
 Rotational symmetry number  1.
 Warning -- assumption of classical behavior for rotation
           may cause significant error
 Rotational temperatures (Kelvin)      0.11531     0.07763     0.06676
 Rotational constants (GHZ):           2.40272     1.61754     1.39109
 Zero-point vibrational energy     414323.2 (Joules/Mol)
                                   99.02561 (Kcal/Mol)
 Warning -- explicit consideration of  13 degrees of freedom as
           vibrations may cause significant error
 Vibrational temperatures:    164.73   251.49   288.15   317.29   341.42
          (Kelvin)            372.84   435.58   498.70   600.74   663.21
                              745.08   797.53   881.04  1035.34  1050.43
                             1087.81  1125.26  1216.25  1346.39  1365.65
                             1415.26  1443.87  1498.93  1542.26  1580.67
                             1613.46  1651.46  1680.83  1720.89  1767.94
                             1830.61  1889.69  1909.40  1986.32  2005.10
                             2034.31  2048.37  2120.76  2144.48  2160.45
                             2388.50  4352.44  4360.98  4397.96  4443.89
                             4492.39  4514.11  4583.92  4618.68  5397.60
                             5482.66

 Zero-point correction=                           0.157807 (Hartree/Particle)
 Thermal correction to Energy=                    0.166772
 Thermal correction to Enthalpy=                  0.167716
 Thermal correction to Gibbs Free Energy=         0.124893
 Sum of electronic and zero-point Energies=           -423.017007
 Sum of electronic and thermal Energies=              -423.008042
 Sum of electronic and thermal Enthalpies=            -423.007098
 Sum of electronic and thermal Free Energies=         -423.049921

                     E (Thermal)             CV                S
                      KCal/Mol        Cal/Mol-Kelvin    Cal/Mol-Kelvin
 Total                  104.651             34.707             90.129
 Electronic               0.000              0.000              0.000
 Translational            0.889              2.981             40.409
 Rotational               0.889              2.981             28.477
 Vibrational            102.874             28.746             21.244
 Vibration     1          0.607              1.937              3.191
 Vibration     2          0.627              1.873              2.383
 Vibration     3          0.638              1.839              2.131
 Vibration     4          0.647              1.810              1.955
 Vibration     5          0.656              1.784              1.823
 Vibration     6          0.668              1.747              1.668
 Vibration     7          0.694              1.669              1.402
 Vibration     8          0.725              1.582              1.182
 Vibration     9          0.781              1.432              0.900
 Vibration    10          0.819              1.337              0.763
 Vibration    11          0.873              1.210              0.615
 Vibration    12          0.910              1.130              0.535
 Vibration    13          0.972              1.006              0.429

 Optimization completed.
    -- Stationary point found.
 Normal termination of Gaussian 09 at Mon Jan 27 22:51:11 2020.
