 Gaussian 09, Revision D.01,
 Gaussian 09:  ES64L-G09RevD.01 24-Apr-2013

 -----------------------------
 # b3lyp 6-31G(2df,p) opt Freq
 -----------------------------

 -----
 titel
 -----
 Symbolic Z-matrix:
 Charge =  0 Multiplicity = 1

 SCF Done:  E(RB3LYP) =  -423.175667840     A.U. after   13 cycles
 Optimization completed.
    -- Stationary point found.
 Normal termination of Gaussian 09 at Mon Jan 27 12:45:58 2020.

 ----------------------------------------------------------------------
 #N Geom=AllCheck Guess=TCheck SCRF=Check GenChk RB3LYP/6-31G(2df,p) Fr
 eq
 ----------------------------------------------------------------------

 Structure from the checkpoint file:  "/scratch/puck/g09_01a31613-ed8b-41dc-ba58-02bdcb277707/Gau-24614.chk"
 -----
 titel
 -----
 Charge =  0 Multiplicity = 1

                         Standard orientation:
 ---------------------------------------------------------------------
 Center     Atomic      Atomic             Coordinates (Angstroms)
 Number     Number       Type             X           Y           Z
 ---------------------------------------------------------------------
      1          6           0       -1.329735   -1.158705   -0.420195
      2          8           0       -1.527045    0.166740   -0.925173
      3          6           0       -1.229274    1.063991    0.112571
      4          6           0        0.218588    1.440171    0.287375
      5          6           0        1.281675    0.970241   -0.692170
      6          6           0        1.961621   -0.273940   -0.121811
      7          8           0        1.053466   -1.349889    0.057451
      8          6           0       -0.219078   -1.058445    0.642630
      9          6           0       -0.415353    0.366355    1.166431
     10          1           0       -2.261576   -1.527065    0.035942
     11          1           0       -1.045570   -1.810579   -1.249129
     12          1           0       -2.020540    1.770604    0.342794
     13          1           0        0.397114    2.391718    0.778924
     14          1           0        0.829232    0.727101   -1.659287
     15          1           0        2.025328    1.755708   -0.856468
     16          1           0        2.732440   -0.658226   -0.797031
     17          1           0        2.448291   -0.015678    0.833323
     18          1           0       -0.370932   -1.797394    1.436921
     19          1           0       -0.555822    0.530985    2.226810
 ---------------------------------------------------------------------

 SCF Done:  E(RB3LYP) =  -423.175667840     A.U. after    1 cycles

 The electronic state is 1-A.
 Alpha  occ. eigenvalues --  -19.14161 -19.13134 -10.23616 -10.23314 -10.22317
 Alpha  occ. eigenvalues --  -10.22286 -10.19504 -10.19227 -10.18117  -1.04774
 Alpha  occ. eigenvalues --   -1.01734  -0.85477  -0.77531  -0.72672  -0.64285
 Alpha  occ. eigenvalues --   -0.62524  -0.57972  -0.53659  -0.52297  -0.48554
 Alpha  occ. eigenvalues --   -0.46880  -0.45416  -0.44220  -0.43074  -0.41458
 Alpha  occ. eigenvalues --   -0.37820  -0.37013  -0.36591  -0.33902  -0.31574
 Alpha  occ. eigenvalues --   -0.29238  -0.28249  -0.25350  -0.23125
 Alpha virt. eigenvalues --    0.07920   0.09067   0.11789   0.12214   0.13959
 Alpha virt. eigenvalues --    0.14308   0.14923   0.16262   0.16450   0.16834
 Alpha virt. eigenvalues --    0.17915   0.18543   0.18763   0.19602   0.22026

 Mulliken charges:
               1
     1  C   -0.086270
     2  O   -0.258738
     3  C    0.085545
     4  C   -0.069322
     5  C   -0.246731
     6  C   -0.052337
     7  O   -0.282670
     8  C    0.092102
     9  C   -0.154559
    10  H    0.089112
    11  H    0.117819
    12  H    0.094741
    13  H    0.087988
    14  H    0.122678
    15  H    0.097896
    16  H    0.104184
    17  H    0.084131
    18  H    0.083457
    19  H    0.090971
 Sum of Mulliken charges =   0.00000

 Dipole moment (field-independent basis, Debye):
    X=              0.1822    Y=              0.9378    Z=              1.4330  Tot=              1.7222
 Quadrupole moment (field-independent basis, Debye-Ang):
   XX=            -52.7651   YY=            -52.3412   ZZ=            -53.0113
   XY=              2.9452   XZ=             -3.1158   YZ=              1.1639

  Exact polarizability:  79.402   3.790  75.093  -3.117   1.032  65.778
 Approx polarizability: 109.280   3.761 109.268  -1.711   0.148 102.108

                      1                      2                      3
                      A                      A                      A
 Frequencies --    102.6735               203.2352               294.1073
 Red. masses --      3.5164                 3.5469                 2.1318
 Frc consts  --      0.0218                 0.0863                 0.1086
 IR Inten    --      3.0223                 3.9816                 3.6156

                      4                      5                      6
                      A                      A                      A
 Frequencies --    380.6167               446.4764               465.0813
 Red. masses --      2.5525                 2.8660                 4.7834
 Frc consts  --      0.2179                 0.3366                 0.6096
 IR Inten    --      0.8367                 1.7972                 0.9765

                      7                      8                      9
                      A                      A                      A
 Frequencies --    580.5500               630.6240               705.9535
 Red. masses --      4.1865                 2.5795                 6.0941
 Frc consts  --      0.8314                 0.6044                 1.7894
 IR Inten    --      0.6327                 2.1734                 6.7048

                     10                     11                     12
                      A                      A                      A
 Frequencies --    758.2337               776.4534               799.9307
 Red. masses --      2.2496                 2.2262                 3.0741
 Frc consts  --      0.7620                 0.7908                 1.1590
 IR Inten    --     15.1225                 2.7695                 8.6343

                     13                     14                     15
                      A                      A                      A
 Frequencies --    812.0318               869.0358               916.7943
 Red. masses --      2.9325                 1.8880                 2.8463
 Frc consts  --      1.1393                 0.8401                 1.4095
 IR Inten    --      7.8969                11.6340                12.3802

                     16                     17                     18
                      A                      A                      A
 Frequencies --    965.6308               978.4801               995.2886
 Red. masses --      2.1906                 2.8534                 2.3407
 Frc consts  --      1.2035                 1.6096                 1.3661
 IR Inten    --     12.8150                 8.7642                 2.1006

                     19                     20                     21
                      A                      A                      A
 Frequencies --   1004.3631              1037.6706              1058.0953
 Red. masses --      1.7761                 2.2385                 2.3321
 Frc consts  --      1.0556                 1.4201                 1.5383
 IR Inten    --      9.0766                 4.7740                 3.7521

                     22                     23                     24
                      A                      A                      A
 Frequencies --   1076.5550              1089.1084              1111.4236
 Red. masses --      1.8389                 1.9365                 1.5253
 Frc consts  --      1.2557                 1.3533                 1.1101
 IR Inten    --     21.8763                24.0587                12.3508

                     25                     26                     27
                      A                      A                      A
 Frequencies --   1136.3697              1138.5840              1186.2329
 Red. masses --      2.8839                 3.1089                 1.5797
 Frc consts  --      2.1942                 2.3746                 1.3097
 IR Inten    --     84.1018                48.7732                44.2692

                     28                     29                     30
                      A                      A                      A
 Frequencies --   1236.8366              1250.4640              1270.9775
 Red. masses --      1.1926                 1.3678                 1.4730
 Frc consts  --      1.0749                 1.2601                 1.4020
 IR Inten    --      3.0741                12.5040                 4.8685

                     31                     32                     33
                      A                      A                      A
 Frequencies --   1294.6043              1306.7688              1330.9004
 Red. masses --      1.3546                 1.3805                 1.2946
 Frc consts  --      1.3377                 1.3889                 1.3511
 IR Inten    --      5.4582                 5.1100                 9.2348

                     34                     35                     36
                      A                      A                      A
 Frequencies --   1365.7388              1370.1148              1384.2438
 Red. masses --      1.3884                 1.3127                 1.4244
 Frc consts  --      1.5258                 1.4518                 1.6081
 IR Inten    --      1.2521                 7.1638                 0.9021

                     37                     38                     39
                      A                      A                      A
 Frequencies --   1415.1503              1418.0129              1475.9421
 Red. masses --      1.3137                 2.2661                 1.0938
 Frc consts  --      1.5501                 2.6846                 1.4038
 IR Inten    --      8.9034                 3.8857                 5.2825

                     40                     41                     42
                      A                      A                      A
 Frequencies --   1499.8136              1508.3360              2966.4312
 Red. masses --      1.1046                 1.0934                 1.0711
 Frc consts  --      1.4640                 1.4657                 5.5534
 IR Inten    --      1.4579                 0.4179                76.7428

                     43                     44                     45
                      A                      A                      A
 Frequencies --   2986.6138              3046.8927              3047.6573
 Red. masses --      1.0698                 1.0866                 1.0605
 Frc consts  --      5.6225                 5.9431                 5.8034
 IR Inten    --     63.0844                65.3669                11.5006

                     46                     47                     48
                      A                      A                      A
 Frequencies --   3077.0194              3094.8293              3111.8616
 Red. masses --      1.0907                 1.1042                 1.0947
 Frc consts  --      6.0842                 6.2314                 6.2455
 IR Inten    --     49.6662                13.8532                20.8663

                     49                     50                     51
                      A                      A                      A
 Frequencies --   3148.1118              3157.6159              3190.4967
 Red. masses --      1.0879                 1.0912                 1.0931
 Frc consts  --      6.3527                 6.4105                 6.5558
 IR Inten    --      9.0500                33.8784                14.2345

 - Thermochemistry -
 -------------------
 Temperature   298.150 Kelvin.  Pressure   1.00000 Atm.
 Atom     1 has atomic number  6 and mass  12.00000

 Molecular mass:   126.06808 amu.
 Principal axes and moments of inertia in atomic units:
                           1         2         3
     Eigenvalues --   683.62183 899.068131166.26931
           X            0.99545   0.09045  -0.03011
           Y           -0.09012   0.99586   0.01218
           Z            0.03109  -0.00941   0.99947
 This molecule is an asymmetric top.
 Rotational symmetry number  1.
 Warning -- assumption of classical behavior for rotation
           may cause significant error
 Rotational temperatures (Kelvin)      0.12670     0.09634     0.07427
 Rotational constants (GHZ):           2.63997     2.00735     1.54745
 Zero-point vibrational energy     427515.6 (Joules/Mol)
                                  102.17869 (Kcal/Mol)
 Warning -- explicit consideration of   7 degrees of freedom as
           vibrations may cause significant error
 Vibrational temperatures:    147.72   292.41   423.15   547.62   642.38
          (Kelvin)            669.15   835.28   907.33  1015.71  1090.93
                             1117.14  1150.92  1168.33  1250.35  1319.06
                             1389.33  1407.81  1432.00  1445.05  1492.97
                             1522.36  1548.92  1566.98  1599.09  1634.98
                             1638.17  1706.72  1779.53  1799.14  1828.65
                             1862.64  1880.15  1914.87  1964.99  1971.29
                             1991.62  2036.08  2040.20  2123.55  2157.89
                             2170.16  4268.03  4297.07  4383.79  4384.89
                             4427.14  4452.76  4477.27  4529.43  4543.10
                             4590.41

 Zero-point correction=                           0.162832 (Hartree/Particle)
 Thermal correction to Energy=                    0.169573
 Thermal correction to Enthalpy=                  0.170517
 Thermal correction to Gibbs Free Energy=         0.131758
 Sum of electronic and zero-point Energies=           -423.012836
 Sum of electronic and thermal Energies=              -423.006095
 Sum of electronic and thermal Enthalpies=            -423.005151
 Sum of electronic and thermal Free Energies=         -423.043910

                     E (Thermal)             CV                S
                      KCal/Mol        Cal/Mol-Kelvin    Cal/Mol-Kelvin
 Total                  106.409             27.739             81.575
 Electronic               0.000              0.000              0.000
 Translational            0.889              2.981             40.409
 Rotational               0.889              2.981             28.063
 Vibrational            104.631             21.777             13.103
 Vibration     1          0.605              1.947              3.403
 Vibration     2          0.639              1.835              2.104
 Vibration     3          0.689              1.685              1.450
 Vibration     4          0.750              1.512              1.037
 Vibration     5          0.806              1.369              0.807
 Vibration     6          0.823              1.328              0.751
 Vibration     7          0.937              1.073              0.484

 Optimization completed.
    -- Stationary point found.
 Normal termination of Gaussian 09 at Mon Jan 27 13:31:12 2020.
