 Gaussian 09, Revision D.01,
 Gaussian 09:  ES64L-G09RevD.01 24-Apr-2013

 -----------------------------
 # b3lyp 6-31G(2df,p) opt Freq
 -----------------------------

 -----
 titel
 -----
 Symbolic Z-matrix:
 Charge =  0 Multiplicity = 1

 SCF Done:  E(RB3LYP) =  -423.180194645     A.U. after   14 cycles
 Optimization completed.
    -- Stationary point found.
 Normal termination of Gaussian 09 at Tue Jan 28 03:59:00 2020.

 ----------------------------------------------------------------------
 #N Geom=AllCheck Guess=TCheck SCRF=Check GenChk RB3LYP/6-31G(2df,p) Fr
 eq
 ----------------------------------------------------------------------

 Structure from the checkpoint file:  "/scratch/puck/g09_18e88abb-c3a5-4d8a-8569-fa89a7a3b40e/Gau-14263.chk"
 -----
 titel
 -----
 Charge =  0 Multiplicity = 1

                         Standard orientation:
 ---------------------------------------------------------------------
 Center     Atomic      Atomic             Coordinates (Angstroms)
 Number     Number       Type             X           Y           Z
 ---------------------------------------------------------------------
      1          8           0        0.213441    2.042274   -0.003242
      2          6           0        0.695921    0.816058    0.483201
      3          6           0        2.073977    0.363041   -0.070173
      4          6           0        1.920038   -1.133289   -0.160985
      5          6           0        0.651330   -1.525230   -0.028887
      6          6           0       -0.268815   -0.360535    0.160190
      7          6           0       -1.567021   -0.482085    0.990246
      8          6           0       -2.298840   -0.102500   -0.306913
      9          8           0       -1.055598   -0.050694   -1.047243
     10          1           0       -0.269401    1.812381   -0.812361
     11          1           0        0.769282    0.903925    1.574135
     12          1           0        2.252902    0.807620   -1.057548
     13          1           0        2.906564    0.674481    0.569773
     14          1           0        2.759271   -1.799587   -0.332492
     15          1           0        0.289502   -2.545127   -0.095246
     16          1           0       -1.774936   -1.485514    1.366377
     17          1           0       -1.652735    0.236079    1.807588
     18          1           0       -2.976299   -0.858070   -0.719612
     19          1           0       -2.806428    0.868404   -0.296810
 ---------------------------------------------------------------------

 SCF Done:  E(RB3LYP) =  -423.180194645     A.U. after    1 cycles

 The electronic state is 1-A.
 Alpha  occ. eigenvalues --  -19.13995 -19.12425 -10.23885 -10.23322 -10.22650
 Alpha  occ. eigenvalues --  -10.19280 -10.18968 -10.18154 -10.18145  -1.04376
 Alpha  occ. eigenvalues --   -1.00482  -0.83598  -0.74707  -0.70472  -0.69428
 Alpha  occ. eigenvalues --   -0.61335  -0.56270  -0.54342  -0.50656  -0.48164
 Alpha  occ. eigenvalues --   -0.47429  -0.45465  -0.43334  -0.42677  -0.39123
 Alpha  occ. eigenvalues --   -0.38099  -0.37165  -0.36921  -0.33071  -0.31688
 Alpha  occ. eigenvalues --   -0.31285  -0.26665  -0.25597  -0.24832
 Alpha virt. eigenvalues --    0.00105   0.08092   0.10142   0.11069   0.11665
 Alpha virt. eigenvalues --    0.13105   0.14489   0.14605   0.15724   0.16708
 Alpha virt. eigenvalues --    0.17456   0.20061   0.20104   0.21619   0.22472

 Mulliken charges:
               1
     1  O   -0.445012
     2  C    0.079641
     3  C   -0.300766
     4  C   -0.073898
     5  C   -0.129103
     6  C    0.391305
     7  C   -0.354933
     8  C   -0.072332
     9  O   -0.340638
    10  H    0.285712
    11  H    0.089515
    12  H    0.119403
    13  H    0.107022
    14  H    0.101129
    15  H    0.096455
    16  H    0.109979
    17  H    0.119231
    18  H    0.107873
    19  H    0.109416
 Sum of Mulliken charges =   0.00000

 Dipole moment (field-independent basis, Debye):
    X=             -0.3687    Y=             -1.7387    Z=              0.8129  Tot=              1.9544
 Quadrupole moment (field-independent basis, Debye-Ang):
   XX=            -47.4626   YY=            -56.0514   ZZ=            -54.0676
   XY=             -0.8435   XZ=             -0.9111   YZ=             -1.3706

  Exact polarizability:  96.439   1.262  74.223  -0.632  -0.230  59.157
 Approx polarizability: 134.122   4.994 108.111   0.141  -1.314  93.643

                      1                      2                      3
                      A                      A                      A
 Frequencies --     65.7232                93.8491               223.1946
 Red. masses --      2.4489                 2.9290                 2.5344
 Frc consts  --      0.0062                 0.0152                 0.0744
 IR Inten    --      0.8759                 4.3636                 0.9060

                      4                      5                      6
                      A                      A                      A
 Frequencies --    250.1742               300.0447               411.5110
 Red. masses --      3.4140                 4.5472                 3.6381
 Frc consts  --      0.1259                 0.2412                 0.3630
 IR Inten    --      4.1136                13.6985                 3.7838

                      7                      8                      9
                      A                      A                      A
 Frequencies --    458.2678               505.8635               527.2723
 Red. masses --      2.4751                 2.7953                 1.3094
 Frc consts  --      0.3063                 0.4214                 0.2145
 IR Inten    --      2.8830                 2.5583                77.2697

                     10                     11                     12
                      A                      A                      A
 Frequencies --    573.8377               677.9481               750.5079
 Red. masses --      3.2918                 3.1771                 1.8735
 Frc consts  --      0.6386                 0.8604                 0.6217
 IR Inten    --     11.6883                 8.1366                16.2693

                     13                     14                     15
                      A                      A                      A
 Frequencies --    777.4020               786.2792               848.2086
 Red. masses --      1.8584                 1.4024                 4.4779
 Frc consts  --      0.6617                 0.5108                 1.8981
 IR Inten    --     16.2334                 1.2170                21.5150

                     16                     17                     18
                      A                      A                      A
 Frequencies --    896.4200               943.7766               967.0336
 Red. masses --      2.1809                 2.1137                 1.9211
 Frc consts  --      1.0325                 1.1093                 1.0585
 IR Inten    --     24.1678                 3.6398                 3.0029

                     19                     20                     21
                      A                      A                      A
 Frequencies --    980.3803               985.3235              1004.3063
 Red. masses --      1.4031                 2.8705                 4.1754
 Frc consts  --      0.7945                 1.6420                 2.4813
 IR Inten    --     10.1015                12.9150               108.8994

                     22                     23                     24
                      A                      A                      A
 Frequencies --   1024.9804              1042.6707              1112.6935
 Red. masses --      3.1252                 2.8771                 1.5570
 Frc consts  --      1.9344                 1.8429                 1.1358
 IR Inten    --     14.9025                 5.6321                22.0499

                     25                     26                     27
                      A                      A                      A
 Frequencies --   1125.2380              1161.2140              1163.8226
 Red. masses --      2.2767                 1.2580                 1.2396
 Frc consts  --      1.6984                 0.9995                 0.9892
 IR Inten    --     72.1009                23.1134                 1.0247

                     28                     29                     30
                      A                      A                      A
 Frequencies --   1195.8693              1206.7544              1247.6637
 Red. masses --      1.8996                 1.4793                 1.6935
 Frc consts  --      1.6006                 1.2692                 1.5533
 IR Inten    --     15.4696                 3.5941                 2.4002

                     31                     32                     33
                      A                      A                      A
 Frequencies --   1256.7505              1272.7071              1313.6205
 Red. masses --      1.4211                 1.8282                 1.6310
 Frc consts  --      1.3224                 1.7447                 1.6582
 IR Inten    --      6.8666                11.2800                 0.4884

                     34                     35                     36
                      A                      A                      A
 Frequencies --   1339.6727              1351.6818              1392.6806
 Red. masses --      1.3783                 1.4024                 1.7811
 Frc consts  --      1.4574                 1.5096                 2.0354
 IR Inten    --      9.4903                 2.5243                 4.9966

                     37                     38                     39
                      A                      A                      A
 Frequencies --   1448.4864              1481.9761              1482.4920
 Red. masses --      1.2445                 1.1051                 1.0955
 Frc consts  --      1.5384                 1.4299                 1.4186
 IR Inten    --     74.7916                 5.6715                 1.5705

                     40                     41                     42
                      A                      A                      A
 Frequencies --   1526.5379              1672.6080              3029.1546
 Red. masses --      1.1073                 6.4061                 1.0612
 Frc consts  --      1.5203                10.5593                 5.7369
 IR Inten    --      1.6244                 7.7062                85.0373

                     43                     44                     45
                      A                      A                      A
 Frequencies --   3029.8961              3032.1708              3071.3476
 Red. masses --      1.0696                 1.0720                 1.0996
 Frc consts  --      5.7852                 5.8071                 6.1113
 IR Inten    --     11.3306                30.6623                28.7173

                     46                     47                     48
                      A                      A                      A
 Frequencies --   3072.3593              3076.2691              3131.9399
 Red. masses --      1.1086                 1.0620                 1.1089
 Frc consts  --      6.1656                 5.9215                 6.4087
 IR Inten    --     23.6820                27.6704                18.6192

                     49                     50                     51
                      A                      A                      A
 Frequencies --   3178.4311              3204.1484              3698.7264
 Red. masses --      1.0853                 1.1034                 1.0645
 Frc consts  --      6.4596                 6.6743                 8.5802
 IR Inten    --      8.1158                20.1411                55.4050

 - Thermochemistry -
 -------------------
 Temperature   298.150 Kelvin.  Pressure   1.00000 Atm.
 Atom     1 has atomic number  8 and mass  15.99491

 Molecular mass:   126.06808 amu.
 Principal axes and moments of inertia in atomic units:
                           1         2         3
     Eigenvalues --   668.947211101.037661453.02184
           X            0.99991   0.00517  -0.01215
           Y           -0.00528   0.99994  -0.00957
           Z            0.01210   0.00964   0.99988
 This molecule is an asymmetric top.
 Rotational symmetry number  1.
 Warning -- assumption of classical behavior for rotation
           may cause significant error
 Rotational temperatures (Kelvin)      0.12948     0.07867     0.05961
 Rotational constants (GHZ):           2.69788     1.63913     1.24206
 Zero-point vibrational energy     420917.4 (Joules/Mol)
                                  100.60166 (Kcal/Mol)
 Warning -- explicit consideration of  10 degrees of freedom as
           vibrations may cause significant error
 Vibrational temperatures:     94.56   135.03   321.13   359.94   431.70
          (Kelvin)            592.07   659.34   727.82   758.63   825.62
                              975.41  1079.81  1118.51  1131.28  1220.38
                             1289.75  1357.88  1391.34  1410.55  1417.66
                             1444.97  1474.72  1500.17  1600.92  1618.96
                             1670.73  1674.48  1720.59  1736.25  1795.11
                             1808.18  1831.14  1890.00  1927.49  1944.77
                             2003.75  2084.05  2132.23  2132.97  2196.34
                             2406.51  4358.27  4359.34  4362.61  4418.98
                             4420.43  4426.06  4506.16  4573.05  4610.05
                             5321.64

 Zero-point correction=                           0.160319 (Hartree/Particle)
 Thermal correction to Energy=                    0.168276
 Thermal correction to Enthalpy=                  0.169220
 Thermal correction to Gibbs Free Energy=         0.127508
 Sum of electronic and zero-point Energies=           -423.019876
 Sum of electronic and thermal Energies=              -423.011919
 Sum of electronic and thermal Enthalpies=            -423.010974
 Sum of electronic and thermal Free Energies=         -423.052687

                     E (Thermal)             CV                S
                      KCal/Mol        Cal/Mol-Kelvin    Cal/Mol-Kelvin
 Total                  105.595             30.956             87.791
 Electronic               0.000              0.000              0.000
 Translational            0.889              2.981             40.409
 Rotational               0.889              2.981             28.461
 Vibrational            103.817             24.994             18.921
 Vibration     1          0.597              1.971              4.278
 Vibration     2          0.603              1.954              3.578
 Vibration     3          0.649              1.806              1.933
 Vibration     4          0.663              1.762              1.729
 Vibration     5          0.693              1.674              1.417
 Vibration     6          0.775              1.445              0.921
 Vibration     7          0.816              1.343              0.771
 Vibration     8          0.861              1.237              0.644
 Vibration     9          0.882              1.190              0.593
 Vibration    10          0.930              1.088              0.497

 Optimization completed.
    -- Stationary point found.
 Normal termination of Gaussian 09 at Tue Jan 28 04:46:41 2020.
