 Gaussian 09, Revision D.01,
 Gaussian 09:  ES64L-G09RevD.01 24-Apr-2013

 -----------------------------
 # b3lyp 6-31G(2df,p) opt Freq
 -----------------------------

 -----
 titel
 -----
 Symbolic Z-matrix:
 Charge =  0 Multiplicity = 1

 SCF Done:  E(RB3LYP) =  -423.150841700     A.U. after   14 cycles
 Optimization completed.
    -- Stationary point found.
 Normal termination of Gaussian 09 at Tue Jan 28 12:01:29 2020.

 ----------------------------------------------------------------------
 #N Geom=AllCheck Guess=TCheck SCRF=Check GenChk RB3LYP/6-31G(2df,p) Fr
 eq
 ----------------------------------------------------------------------

 Structure from the checkpoint file:  "/scratch/puck/g09_f01ced81-2459-403e-891f-00f31137c741/Gau-113135.chk"
 -----
 titel
 -----
 Charge =  0 Multiplicity = 1

                         Standard orientation:
 ---------------------------------------------------------------------
 Center     Atomic      Atomic             Coordinates (Angstroms)
 Number     Number       Type             X           Y           Z
 ---------------------------------------------------------------------
      1          6           0       -2.906743   -0.912039   -0.255419
      2          6           0       -1.579426   -0.920724    0.507165
      3          6           0       -0.495966   -0.106035   -0.178325
      4          8           0       -0.858451    1.269360   -0.218937
      5          6           0        0.356839    1.950166   -0.367711
      6          8           0        1.294343    1.295961    0.466424
      7          6           0        0.875002   -0.069715    0.570527
      8          6           0        1.855354   -0.996985    0.016100
      9          6           0        2.644412   -1.778716   -0.442683
     10          1           0       -3.281359    0.108804   -0.367545
     11          1           0       -2.790067   -1.339792   -1.257126
     12          1           0       -3.664114   -1.498749    0.272393
     13          1           0       -1.721058   -0.521314    1.518712
     14          1           0       -1.210329   -1.947959    0.615746
     15          1           0       -0.328062   -0.474584   -1.202654
     16          1           0        0.696491    1.924033   -1.418855
     17          1           0        0.236418    2.983988   -0.032712
     18          1           0        0.727539   -0.288374    1.636212
     19          1           0        3.350568   -2.464336   -0.841997
 ---------------------------------------------------------------------

 SCF Done:  E(RB3LYP) =  -423.150841700     A.U. after    1 cycles

 The electronic state is 1-A.
 Alpha  occ. eigenvalues --  -19.15450 -19.14942 -10.27705 -10.26038 -10.24445
 Alpha  occ. eigenvalues --  -10.19134 -10.18675 -10.18239 -10.17757  -1.09480
 Alpha  occ. eigenvalues --   -1.00052  -0.81424  -0.76666  -0.72436  -0.65431
 Alpha  occ. eigenvalues --   -0.64763  -0.59592  -0.54185  -0.51499  -0.50865
 Alpha  occ. eigenvalues --   -0.48558  -0.47088  -0.43803  -0.41679  -0.41080
 Alpha  occ. eigenvalues --   -0.39765  -0.35786  -0.35205  -0.34389  -0.33342
 Alpha  occ. eigenvalues --   -0.28904  -0.27771  -0.27212  -0.25934
 Alpha virt. eigenvalues --    0.02821   0.04716   0.09649   0.11440   0.11836
 Alpha virt. eigenvalues --    0.12310   0.13231   0.14087   0.15523   0.16071
 Alpha virt. eigenvalues --    0.17179   0.17838   0.18187   0.19109   0.21716

 Mulliken charges:
               1
     1  C   -0.386954
     2  C   -0.205440
     3  C    0.102217
     4  O   -0.248363
     5  C    0.017587
     6  O   -0.257338
     7  C   -0.086111
     8  C    0.330685
     9  C   -0.461792
    10  H    0.138025
    11  H    0.116933
    12  H    0.114996
    13  H    0.108842
    14  H    0.110399
    15  H    0.082355
    16  H    0.089705
    17  H    0.121908
    18  H    0.109573
    19  H    0.202772
 Sum of Mulliken charges =   0.00000

 Dipole moment (field-independent basis, Debye):
    X=             -0.5439    Y=             -1.0793    Z=             -0.4871  Tot=              1.3030
 Quadrupole moment (field-independent basis, Debye-Ang):
   XX=            -54.4726   YY=            -50.1209   ZZ=            -52.4226
   XY=             -1.7861   XZ=             -2.7848   YZ=             -0.3841

  Exact polarizability:  86.094  -9.140  83.328  -5.379   2.464  62.797
 Approx polarizability: 114.477 -20.003 120.791 -10.900   9.595  97.048

                      1                      2                      3
                      A                      A                      A
 Frequencies --     39.4185                87.3763               153.3526
 Red. masses --      4.4433                 2.3920                 3.3428
 Frc consts  --      0.0041                 0.0108                 0.0463
 IR Inten    --      0.6100                 0.0618                 0.5300

                      4                      5                      6
                      A                      A                      A
 Frequencies --    164.1861               200.8617               251.2145
 Red. masses --      3.0896                 1.6180                 1.7351
 Frc consts  --      0.0491                 0.0385                 0.0645
 IR Inten    --      0.4227                 0.6820                 1.0783

                      7                      8                      9
                      A                      A                      A
 Frequencies --    258.8816               359.2581               435.9039
 Red. masses --      2.7224                 3.9497                 3.2300
 Frc consts  --      0.1075                 0.3004                 0.3616
 IR Inten    --      4.0915                 3.4284                 6.3186

                     10                     11                     12
                      A                      A                      A
 Frequencies --    522.5961               540.3081               622.4951
 Red. masses --      5.9583                 4.3943                 1.3979
 Frc consts  --      0.9587                 0.7558                 0.3191
 IR Inten    --      3.1404                 1.4218                26.2633

                     13                     14                     15
                      A                      A                      A
 Frequencies --    646.0084               672.3461               740.9919
 Red. masses --      3.0271                 1.2528                 7.7925
 Frc consts  --      0.7443                 0.3337                 2.5209
 IR Inten    --     23.9106                33.3351                 0.3451

                     16                     17                     18
                      A                      A                      A
 Frequencies --    776.2383               911.8866               932.2397
 Red. masses --      1.3251                 1.7912                 4.7074
 Frc consts  --      0.4704                 0.8775                 2.4104
 IR Inten    --      3.0467                 1.4535                33.2196

                     19                     20                     21
                      A                      A                      A
 Frequencies --    962.4109               988.7896              1022.1011
 Red. masses --      2.1143                 4.1945                 4.8535
 Frc consts  --      1.1538                 2.4162                 2.9874
 IR Inten    --     29.5081                47.6656                33.2769

                     22                     23                     24
                      A                      A                      A
 Frequencies --   1052.7313              1089.7067              1116.3215
 Red. masses --      3.5890                 2.5959                 4.9102
 Frc consts  --      2.3434                 1.8162                 3.6052
 IR Inten    --     59.9346                 6.5270               169.1237

                     25                     26                     27
                      A                      A                      A
 Frequencies --   1126.8281              1157.3447              1187.4743
 Red. masses --      1.7808                 2.2946                 1.7583
 Frc consts  --      1.3323                 1.8109                 1.4608
 IR Inten    --      2.3312                18.8728                52.4235

                     28                     29                     30
                      A                      A                      A
 Frequencies --   1237.5983              1265.4371              1303.7613
 Red. masses --      1.2042                 1.3709                 1.1896
 Frc consts  --      1.0867                 1.2935                 1.1913
 IR Inten    --      6.5545                12.4987                 1.0179

                     31                     32                     33
                      A                      A                      A
 Frequencies --   1336.5096              1355.8613              1370.3985
 Red. masses --      1.2149                 1.2502                 1.2743
 Frc consts  --      1.2786                 1.3541                 1.4100
 IR Inten    --      2.1198                 7.5208                12.9197

                     34                     35                     36
                      A                      A                      A
 Frequencies --   1409.6849              1413.8356              1430.1476
 Red. masses --      1.3195                 1.4235                 1.2907
 Frc consts  --      1.5449                 1.6765                 1.5553
 IR Inten    --      2.2857                 6.1225                 5.8998

                     37                     38                     39
                      A                      A                      A
 Frequencies --   1474.7085              1497.7597              1507.9468
 Red. masses --      1.0780                 1.0416                 1.0601
 Frc consts  --      1.3813                 1.3767                 1.4203
 IR Inten    --      0.7247                 4.9769                 4.6473

                     40                     41                     42
                      A                      A                      A
 Frequencies --   1540.2091              2237.3462              2941.8479
 Red. masses --      1.1069                 5.9088                 1.0702
 Frc consts  --      1.5471                17.4266                 5.4572
 IR Inten    --      4.6839                 1.1525                93.9339

                     43                     44                     45
                      A                      A                      A
 Frequencies --   2980.5760              3018.8276              3030.8435
 Red. masses --      1.0824                 1.0815                 1.0612
 Frc consts  --      5.6656                 5.8072                 5.7436
 IR Inten    --     25.2454                17.4357                26.8006

                     46                     47                     48
                      A                      A                      A
 Frequencies --   3039.4787              3069.3986              3093.1884
 Red. masses --      1.0369                 1.1016                 1.0948
 Frc consts  --      5.6441                 6.1150                 6.1716
 IR Inten    --     26.8736                13.6955                43.0950

                     49                     50                     51
                      A                      A                      A
 Frequencies --   3106.3817              3123.7673              3501.2077
 Red. masses --      1.1009                 1.1018                 1.1629
 Frc consts  --      6.2588                 6.3345                 8.3987
 IR Inten    --     35.6644                21.5343                65.1659

 - Thermochemistry -
 -------------------
 Temperature   298.150 Kelvin.  Pressure   1.00000 Atm.
 Atom     1 has atomic number  6 and mass  12.00000

 Molecular mass:   126.06808 amu.
 Principal axes and moments of inertia in atomic units:
                           1         2         3
     Eigenvalues --   797.369961376.600811975.69860
           X            0.99929   0.03716  -0.00558
           Y           -0.03720   0.99927  -0.00834
           Z            0.00527   0.00854   0.99995
 This molecule is an asymmetric top.
 Rotational symmetry number  1.
 Warning -- assumption of classical behavior for rotation
           may cause significant error
 Rotational temperatures (Kelvin)      0.10862     0.06292     0.04384
 Rotational constants (GHZ):           2.26337     1.31101     0.91347
 Zero-point vibrational energy     414541.9 (Joules/Mol)
                                   99.07789 (Kcal/Mol)
 Warning -- explicit consideration of  11 degrees of freedom as
           vibrations may cause significant error
 Vibrational temperatures:     56.71   125.71   220.64   236.23   288.99
          (Kelvin)            361.44   372.47   516.89   627.17   751.90
                              777.38   895.63   929.46   967.35  1066.12
                             1116.83  1312.00  1341.28  1384.69  1422.65
                             1470.57  1514.64  1567.84  1606.14  1621.25
                             1665.16  1708.51  1780.63  1820.68  1875.82
                             1922.94  1950.78  1971.70  2028.22  2034.19
                             2057.66  2121.77  2154.94  2169.60  2216.01
                             3219.04  4232.66  4288.38  4343.41  4360.70
                             4373.13  4416.17  4450.40  4469.38  4494.40
                             5037.45

 Zero-point correction=                           0.157891 (Hartree/Particle)
 Thermal correction to Energy=                    0.167196
 Thermal correction to Enthalpy=                  0.168140
 Thermal correction to Gibbs Free Energy=         0.122941
 Sum of electronic and zero-point Energies=           -422.992951
 Sum of electronic and thermal Energies=              -422.983646
 Sum of electronic and thermal Enthalpies=            -422.982702
 Sum of electronic and thermal Free Energies=         -423.027901

                     E (Thermal)             CV                S
                      KCal/Mol        Cal/Mol-Kelvin    Cal/Mol-Kelvin
 Total                  104.917             33.743             95.129
 Electronic               0.000              0.000              0.000
 Translational            0.889              2.981             40.409
 Rotational               0.889              2.981             29.163
 Vibrational            103.140             27.782             25.558
 Vibration     1          0.594              1.981              5.288
 Vibration     2          0.601              1.958              3.718
 Vibration     3          0.619              1.899              2.630
 Vibration     4          0.623              1.886              2.501
 Vibration     5          0.638              1.839              2.125
 Vibration     6          0.663              1.761              1.722
 Vibration     7          0.668              1.748              1.669
 Vibration     8          0.734              1.556              1.125
 Vibration     9          0.796              1.392              0.840
 Vibration    10          0.878              1.200              0.604
 Vibration    11          0.895              1.161              0.565

 Optimization completed.
    -- Stationary point found.
 Normal termination of Gaussian 09 at Tue Jan 28 12:39:46 2020.
