 Gaussian 09, Revision D.01,
 Gaussian 09:  ES64L-G09RevD.01 24-Apr-2013

 -----------------------------
 # b3lyp 6-31G(2df,p) opt Freq
 -----------------------------

 -----
 titel
 -----
 Symbolic Z-matrix:
 Charge =  0 Multiplicity = 1

 SCF Done:  E(RB3LYP) =  -423.219577706     A.U. after   14 cycles
 Optimization completed.
    -- Stationary point found.
 Normal termination of Gaussian 09 at Tue Jan 28 00:49:22 2020.

 ----------------------------------------------------------------------
 #N Geom=AllCheck Guess=TCheck SCRF=Check GenChk RB3LYP/6-31G(2df,p) Fr
 eq
 ----------------------------------------------------------------------

 Structure from the checkpoint file:  "/scratch/puck/g09_650df749-722a-4a01-a167-8afda2670b9b/Gau-38486.chk"
 -----
 titel
 -----
 Charge =  0 Multiplicity = 1

                         Standard orientation:
 ---------------------------------------------------------------------
 Center     Atomic      Atomic             Coordinates (Angstroms)
 Number     Number       Type             X           Y           Z
 ---------------------------------------------------------------------
      1          6           0        2.368513   -1.251753    0.044036
      2          6           0        1.053244   -0.649200   -0.463013
      3          6           0       -0.150263   -1.184296    0.331471
      4          6           0       -1.476058   -0.503479    0.035629
      5          8           0       -2.531040   -1.075873    0.034708
      6          8           0       -1.456273    0.835428   -0.198301
      7          6           0       -0.252120    1.567417   -0.312854
      8          6           0        0.734862    1.644387    0.818129
      9          6           0        1.063876    0.868628   -0.448530
     10          1           0        3.215718   -0.910610   -0.559371
     11          1           0        2.556587   -0.957763    1.082434
     12          1           0        2.343229   -2.345488    0.000655
     13          1           0        0.919160   -0.955801   -1.509797
     14          1           0       -0.299318   -2.251413    0.155974
     15          1           0        0.034724   -1.072456    1.408049
     16          1           0       -0.453687    2.460849   -0.891322
     17          1           0        1.235332    2.590457    0.991271
     18          1           0        0.509283    1.091087    1.722632
     19          1           0        1.785148    1.324473   -1.120988
 ---------------------------------------------------------------------

 SCF Done:  E(RB3LYP) =  -423.219577706     A.U. after    1 cycles

 The electronic state is 1-A.
 Alpha  occ. eigenvalues --  -19.18150 -19.11481 -10.30333 -10.25447 -10.21131
 Alpha  occ. eigenvalues --  -10.20717 -10.20214 -10.20017 -10.18728  -1.09620
 Alpha  occ. eigenvalues --   -1.01443  -0.87631  -0.80681  -0.72225  -0.66214
 Alpha  occ. eigenvalues --   -0.64959  -0.58541  -0.53059  -0.52228  -0.50933
 Alpha  occ. eigenvalues --   -0.46789  -0.45726  -0.43839  -0.41668  -0.41046
 Alpha  occ. eigenvalues --   -0.39324  -0.38719  -0.37392  -0.35520  -0.34855
 Alpha  occ. eigenvalues --   -0.33879  -0.29285  -0.26959  -0.25665
 Alpha virt. eigenvalues --    0.01304   0.06972   0.08394   0.10531   0.12223
 Alpha virt. eigenvalues --    0.12984   0.13355   0.14643   0.15913   0.16630
 Alpha virt. eigenvalues --    0.17250   0.18806   0.19806   0.21861   0.22140

 Mulliken charges:
               1
     1  C   -0.394157
     2  C   -0.002947
     3  C   -0.367401
     4  C    0.405616
     5  O   -0.323052
     6  O   -0.225410
     7  C    0.116169
     8  C   -0.326737
     9  C   -0.058066
    10  H    0.117116
    11  H    0.119335
    12  H    0.118884
    13  H    0.090791
    14  H    0.136900
    15  H    0.133702
    16  H    0.116373
    17  H    0.122298
    18  H    0.125023
    19  H    0.095566
 Sum of Mulliken charges =   0.00000

 Dipole moment (field-independent basis, Debye):
    X=              4.3082    Y=              1.0322    Z=              0.0006  Tot=              4.4301
 Quadrupole moment (field-independent basis, Debye-Ang):
   XX=            -64.2246   YY=            -50.8555   ZZ=            -51.1434
   XY=             -2.2832   XZ=             -0.7151   YZ=             -0.6210

  Exact polarizability:  82.608   4.032  80.792   0.046   0.224  61.886
 Approx polarizability: 117.169  10.250 114.794   0.551   0.456  97.873

                      1                      2                      3
                      A                      A                      A
 Frequencies --     99.9893               131.0029               224.9956
 Red. masses --      5.3778                 2.9055                 1.5919
 Frc consts  --      0.0317                 0.0294                 0.0475
 IR Inten    --      0.5449                 2.8552                 0.8522

                      4                      5                      6
                      A                      A                      A
 Frequencies --    252.8238               287.2896               363.3274
 Red. masses --      1.4474                 2.7671                 3.9866
 Frc consts  --      0.0545                 0.1346                 0.3101
 IR Inten    --      0.6960                 1.5452                 0.4267

                      7                      8                      9
                      A                      A                      A
 Frequencies --    412.2098               474.8921               498.9418
 Red. masses --      3.7440                 3.3299                 2.7808
 Frc consts  --      0.3748                 0.4425                 0.4079
 IR Inten    --      0.3809                 1.7907                 3.6835

                     10                     11                     12
                      A                      A                      A
 Frequencies --    548.4600               622.0442               684.9611
 Red. masses --      2.9874                 3.4127                 3.7151
 Frc consts  --      0.5295                 0.7780                 1.0270
 IR Inten    --      1.8949                 3.7805                 3.6895

                     13                     14                     15
                      A                      A                      A
 Frequencies --    744.8002               810.2554               827.1961
 Red. masses --      2.4133                 3.8069                 1.4374
 Frc consts  --      0.7887                 1.4725                 0.5795
 IR Inten    --     11.5442                11.5213                11.0909

                     16                     17                     18
                      A                      A                      A
 Frequencies --    889.9074               910.3278               939.5290
 Red. masses --      2.5035                 1.5533                 2.0101
 Frc consts  --      1.1681                 0.7584                 1.0454
 IR Inten    --      8.9547                 3.1633                 3.6316

                     19                     20                     21
                      A                      A                      A
 Frequencies --    998.4058              1010.4484              1042.9461
 Red. masses --      2.0641                 2.4889                 1.5157
 Frc consts  --      1.2122                 1.4972                 0.9714
 IR Inten    --      7.1662                14.4761                 2.3109

                     22                     23                     24
                      A                      A                      A
 Frequencies --   1061.3990              1076.3959              1111.6235
 Red. masses --      1.4979                 2.5124                 1.9475
 Frc consts  --      0.9942                 1.7151                 1.4179
 IR Inten    --     12.8953                14.6289                 1.1175

                     25                     26                     27
                      A                      A                      A
 Frequencies --   1128.1504              1164.2592              1179.0466
 Red. masses --      1.2901                 1.9160                 1.6984
 Frc consts  --      0.9674                 1.5302                 1.3911
 IR Inten    --      2.0918                 9.8309                 6.3075

                     28                     29                     30
                      A                      A                      A
 Frequencies --   1193.4329              1249.9623              1264.9761
 Red. masses --      1.8619                 1.6805                 2.4200
 Frc consts  --      1.5624                 1.5470                 2.2816
 IR Inten    --    102.4450                22.7718               152.2395

                     31                     32                     33
                      A                      A                      A
 Frequencies --   1303.5934              1356.0323              1368.4761
 Red. masses --      1.4053                 1.4393                 1.5240
 Frc consts  --      1.4071                 1.5594                 1.6815
 IR Inten    --      5.3852                 4.3045                29.7713

                     34                     35                     36
                      A                      A                      A
 Frequencies --   1391.0381              1411.5984              1419.1103
 Red. masses --      1.5394                 1.2555                 1.4679
 Frc consts  --      1.7550                 1.4740                 1.7418
 IR Inten    --      2.7571                 9.2527                16.3253

                     37                     38                     39
                      A                      A                      A
 Frequencies --   1469.9395              1490.0055              1497.3925
 Red. masses --      1.1957                 1.2354                 1.0851
 Frc consts  --      1.5222                 1.6160                 1.4334
 IR Inten    --      3.6003                10.7481                11.3741

                     40                     41                     42
                      A                      A                      A
 Frequencies --   1500.0001              1846.6124              3005.2076
 Red. masses --      1.0559                12.3419                 1.0821
 Frc consts  --      1.3998                24.7961                 5.7581
 IR Inten    --      1.8252               360.7616                15.3468

                     43                     44                     45
                      A                      A                      A
 Frequencies --   3030.7810              3035.6224              3102.0390
 Red. masses --      1.0371                 1.0669                 1.1015
 Frc consts  --      5.6128                 5.7925                 6.2447
 IR Inten    --     19.9595                14.6840                25.1873

                     46                     47                     48
                      A                      A                      A
 Frequencies --   3104.1926              3116.4501              3141.4127
 Red. masses --      1.1018                 1.0928                 1.0579
 Frc consts  --      6.2554                 6.2531                 6.1512
 IR Inten    --     21.6506                13.1367                10.8005

                     49                     50                     51
                      A                      A                      A
 Frequencies --   3145.3560              3184.5915              3227.2408
 Red. masses --      1.0852                 1.0917                 1.1153
 Frc consts  --      6.3257                 6.5233                 6.8441
 IR Inten    --      9.4144                14.4679                 7.9786

 - Thermochemistry -
 -------------------
 Temperature   298.150 Kelvin.  Pressure   1.00000 Atm.
 Atom     1 has atomic number  6 and mass  12.00000

 Molecular mass:   126.06808 amu.
 Principal axes and moments of inertia in atomic units:
                           1         2         3
     Eigenvalues --   722.928461143.604681666.19953
           X            0.99863  -0.05228   0.00082
           Y            0.05228   0.99863  -0.00131
           Z           -0.00075   0.00136   1.00000
 This molecule is an asymmetric top.
 Rotational symmetry number  1.
 Warning -- assumption of classical behavior for rotation
           may cause significant error
 Rotational temperatures (Kelvin)      0.11981     0.07574     0.05198
 Rotational constants (GHZ):           2.49643     1.57812     1.08315
 Zero-point vibrational energy     420790.6 (Joules/Mol)
                                  100.57136 (Kcal/Mol)
 Warning -- explicit consideration of  10 degrees of freedom as
           vibrations may cause significant error
 Vibrational temperatures:    143.86   188.48   323.72   363.76   413.35
          (Kelvin)            522.75   593.08   683.26   717.87   789.11
                              894.98   985.51  1071.60  1165.78  1190.15
                             1280.38  1309.76  1351.77  1436.48  1453.81
                             1500.56  1527.11  1548.69  1599.38  1623.15
                             1675.11  1696.38  1717.08  1798.41  1820.02
                             1875.58  1951.03  1968.93  2001.39  2030.97
                             2041.78  2114.91  2143.78  2154.41  2158.16
                             2656.86  4323.82  4360.61  4367.58  4463.14
                             4466.24  4483.87  4519.79  4525.46  4581.91
                             4643.27

 Zero-point correction=                           0.160271 (Hartree/Particle)
 Thermal correction to Energy=                    0.168283
 Thermal correction to Enthalpy=                  0.169227
 Thermal correction to Gibbs Free Energy=         0.127769
 Sum of electronic and zero-point Energies=           -423.059307
 Sum of electronic and thermal Energies=              -423.051295
 Sum of electronic and thermal Enthalpies=            -423.050351
 Sum of electronic and thermal Free Energies=         -423.091809

                     E (Thermal)             CV                S
                      KCal/Mol        Cal/Mol-Kelvin    Cal/Mol-Kelvin
 Total                  105.599             31.312             87.256
 Electronic               0.000              0.000              0.000
 Translational            0.889              2.981             40.409
 Rotational               0.889              2.981             28.712
 Vibrational            103.822             25.350             18.136
 Vibration     1          0.604              1.949              3.455
 Vibration     2          0.612              1.922              2.931
 Vibration     3          0.650              1.803              1.919
 Vibration     4          0.664              1.758              1.711
 Vibration     5          0.684              1.697              1.490
 Vibration     6          0.737              1.548              1.108
 Vibration     7          0.776              1.444              0.919
 Vibration     8          0.832              1.306              0.724
 Vibration     9          0.854              1.252              0.661
 Vibration    10          0.904              1.143              0.547

 Optimization completed.
    -- Stationary point found.
 Normal termination of Gaussian 09 at Tue Jan 28 02:52:08 2020.
