 Gaussian 09, Revision D.01,
 Gaussian 09:  ES64L-G09RevD.01 24-Apr-2013

 -----------------------------
 # b3lyp 6-31G(2df,p) opt Freq
 -----------------------------

 -----
 titel
 -----
 Symbolic Z-matrix:
 Charge =  0 Multiplicity = 1

 SCF Done:  E(RB3LYP) =  -423.150510453     A.U. after   13 cycles
 SCF Done:  E(RB3LYP) =  -423.150511282     A.U. after    7 cycles
 SCF Done:  E(RB3LYP) =  -423.150511911     A.U. after    7 cycles
 SCF Done:  E(RB3LYP) =  -423.150512241     A.U. after    7 cycles
 SCF Done:  E(RB3LYP) =  -423.150512355     A.U. after    6 cycles
 SCF Done:  E(RB3LYP) =  -423.150512457     A.U. after    6 cycles
 Optimization completed.
    -- Stationary point found.
 Normal termination of Gaussian 09 at Tue Jan 28 12:35:12 2020.

 ----------------------------------------------------------------------
 #N Geom=AllCheck Guess=TCheck SCRF=Check GenChk RB3LYP/6-31G(2df,p) Fr
 eq
 ----------------------------------------------------------------------

 Structure from the checkpoint file:  "/scratch/puck/g09_b1819b63-8861-4b0d-b790-a0515d5ef5ac/Gau-85239.chk"
 -----
 titel
 -----
 Charge =  0 Multiplicity = 1

                         Standard orientation:
 ---------------------------------------------------------------------
 Center     Atomic      Atomic             Coordinates (Angstroms)
 Number     Number       Type             X           Y           Z
 ---------------------------------------------------------------------
      1          8           0        2.854884    0.518590    0.163538
      2          6           0        2.031612   -0.504826   -0.367647
      3          6           0        0.572354   -0.291243   -0.073858
      4          8           0       -0.345645   -1.202046   -0.688832
      5          6           0       -1.295186   -0.947145    0.407272
      6          6           0       -2.328002    0.049301   -0.106252
      7          6           0       -1.455783    1.275338   -0.506712
      8          6           0       -0.122459    1.032631    0.204404
      9          6           0       -0.233333   -0.134869    1.175347
     10          1           0        2.691998    1.317383   -0.347819
     11          1           0        2.152886   -0.613813   -1.457315
     12          1           0        2.369517   -1.441047    0.088643
     13          1           0       -1.671035   -1.879409    0.831770
     14          1           0       -2.898572   -0.357973   -0.945450
     15          1           0       -3.032599    0.303160    0.694480
     16          1           0       -1.328218    1.329514   -1.591877
     17          1           0       -1.906658    2.217549   -0.182759
     18          1           0        0.510628    1.864272    0.492143
     19          1           0        0.022922   -0.147109    2.225212
 ---------------------------------------------------------------------

 SCF Done:  E(RB3LYP) =  -423.150512457     A.U. after    1 cycles

 The electronic state is 1-A.
 Alpha  occ. eigenvalues --  -19.14224 -19.13164 -10.23656 -10.23580 -10.23193
 Alpha  occ. eigenvalues --  -10.19065 -10.18536 -10.18369 -10.18196  -1.05017
 Alpha  occ. eigenvalues --   -1.02187  -0.84353  -0.77281  -0.71038  -0.68757
 Alpha  occ. eigenvalues --   -0.59115  -0.56342  -0.53111  -0.52731  -0.49894
 Alpha  occ. eigenvalues --   -0.46930  -0.44801  -0.43381  -0.42711  -0.40191
 Alpha  occ. eigenvalues --   -0.36574  -0.35765  -0.34671  -0.34179  -0.32601
 Alpha  occ. eigenvalues --   -0.31052  -0.28292  -0.25984  -0.22464
 Alpha virt. eigenvalues --    0.06844   0.08719   0.10295   0.11525   0.13133
 Alpha virt. eigenvalues --    0.13672   0.14387   0.14935   0.16022   0.17108
 Alpha virt. eigenvalues --    0.17784   0.18378   0.19484   0.21190   0.22726

 Mulliken charges:
               1
     1  O   -0.406952
     2  C   -0.197360
     3  C    0.452741
     4  O   -0.351704
     5  C    0.092425
     6  C   -0.206093
     7  C   -0.228970
     8  C   -0.134263
     9  C   -0.208138
    10  H    0.287771
    11  H    0.103270
    12  H    0.122549
    13  H    0.079277
    14  H    0.107575
    15  H    0.098537
    16  H    0.107907
    17  H    0.099076
    18  H    0.083134
    19  H    0.099219
 Sum of Mulliken charges =   0.00000

 Dipole moment (field-independent basis, Debye):
    X=             -0.9858    Y=              1.2142    Z=              0.2082  Tot=              1.5778
 Quadrupole moment (field-independent basis, Debye-Ang):
   XX=            -54.9199   YY=            -51.3935   ZZ=            -52.8175
   XY=              1.2250   XZ=             -3.7781   YZ=             -2.9918

  Exact polarizability:  83.972  -0.246  72.452  -1.140  -1.795  65.480
 Approx polarizability: 108.865   1.122 109.837  -2.639   0.163 104.515

                      1                      2                      3
                      A                      A                      A
 Frequencies --     66.4965               177.2288               210.8271
 Red. masses --      3.2881                 4.6195                 2.2888
 Frc consts  --      0.0086                 0.0855                 0.0599
 IR Inten    --      3.5206                 2.3237                 3.6476

                      4                      5                      6
                      A                      A                      A
 Frequencies --    220.4473               328.7021               368.9521
 Red. masses --      1.9175                 1.0997                 3.5215
 Frc consts  --      0.0549                 0.0700                 0.2824
 IR Inten    --      3.7688               136.8189                13.1369

                      7                      8                      9
                      A                      A                      A
 Frequencies --    436.3798               515.0468               617.2414
 Red. masses --      4.4133                 3.1050                 3.8942
 Frc consts  --      0.4952                 0.4853                 0.8741
 IR Inten    --      1.4693                 5.9554                 3.9806

                     10                     11                     12
                      A                      A                      A
 Frequencies --    714.1222               736.3752               751.9740
 Red. masses --      3.2457                 3.1104                 3.6115
 Frc consts  --      0.9752                 0.9937                 1.2032
 IR Inten    --      6.5189                 2.0932                 6.5556

                     13                     14                     15
                      A                      A                      A
 Frequencies --    818.2982               846.1859               869.1441
 Red. masses --      1.9837                 2.2912                 1.9071
 Frc consts  --      0.7826                 0.9666                 0.8488
 IR Inten    --      6.8792                 2.7161                27.0534

                     16                     17                     18
                      A                      A                      A
 Frequencies --    900.6863               903.4210               938.9186
 Red. masses --      1.7289                 2.6716                 2.1895
 Frc consts  --      0.8263                 1.2847                 1.1372
 IR Inten    --      3.8091                 5.3874                 4.0680

                     19                     20                     21
                      A                      A                      A
 Frequencies --    979.0098              1006.6626              1021.2593
 Red. masses --      2.2343                 1.7508                 2.5499
 Frc consts  --      1.2617                 1.0453                 1.5669
 IR Inten    --     29.5261                14.2720                23.3748

                     22                     23                     24
                      A                      A                      A
 Frequencies --   1026.6814              1036.3619              1076.2501
 Red. masses --      1.6812                 2.0659                 2.1857
 Frc consts  --      1.0441                 1.3073                 1.4917
 IR Inten    --     31.0102                 7.3306                24.9208

                     25                     26                     27
                      A                      A                      A
 Frequencies --   1084.4776              1136.8200              1164.8067
 Red. masses --      3.8190                 1.8775                 1.2775
 Frc consts  --      2.6463                 1.4296                 1.0212
 IR Inten    --     56.1707                11.5117                 9.7707

                     28                     29                     30
                      A                      A                      A
 Frequencies --   1204.4662              1209.1307              1235.0782
 Red. masses --      1.8799                 1.4670                 1.4263
 Frc consts  --      1.6068                 1.2636                 1.2819
 IR Inten    --      1.1585                 8.7710                 8.8434

                     31                     32                     33
                      A                      A                      A
 Frequencies --   1254.8201              1283.1606              1296.1384
 Red. masses --      1.4336                 1.4863                 1.5576
 Frc consts  --      1.3300                 1.4418                 1.5418
 IR Inten    --      0.8999                 2.7356                 4.5586

                     34                     35                     36
                      A                      A                      A
 Frequencies --   1328.3658              1337.3975              1386.3843
 Red. masses --      1.5142                 1.5106                 1.3130
 Frc consts  --      1.5743                 1.5919                 1.4869
 IR Inten    --      6.6455                 0.6174                12.6677

                     37                     38                     39
                      A                      A                      A
 Frequencies --   1413.1622              1460.0047              1474.5984
 Red. masses --      1.2989                 4.5543                 1.1105
 Frc consts  --      1.5283                 5.7198                 1.4228
 IR Inten    --     33.2631                 3.2857                 0.8369

                     40                     41                     42
                      A                      A                      A
 Frequencies --   1499.0064              1504.0415              2981.7978
 Red. masses --      1.0974                 1.0925                 1.0694
 Frc consts  --      1.4529                 1.4561                 5.6020
 IR Inten    --      0.9974                 0.1037                51.4656

                     43                     44                     45
                      A                      A                      A
 Frequencies --   3039.5106              3055.7012              3073.2886
 Red. masses --      1.0629                 1.0605                 1.0925
 Frc consts  --      5.7855                 5.8340                 6.0795
 IR Inten    --     26.2478                41.2188                25.7890

                     46                     47                     48
                      A                      A                      A
 Frequencies --   3087.6165              3103.0640              3105.5517
 Red. masses --      1.1017                 1.0963                 1.0978
 Frc consts  --      6.1882                 6.2194                 6.2382
 IR Inten    --      8.1811                42.3093                38.7494

                     49                     50                     51
                      A                      A                      A
 Frequencies --   3179.1820              3211.5536              3822.3799
 Red. masses --      1.0892                 1.0965                 1.0661
 Frc consts  --      6.4859                 6.6632                 9.1775
 IR Inten    --     11.1529                 8.2608                18.0426

 - Thermochemistry -
 -------------------
 Temperature   298.150 Kelvin.  Pressure   1.00000 Atm.
 Atom     1 has atomic number  8 and mass  15.99491

 Molecular mass:   126.06808 amu.
 Principal axes and moments of inertia in atomic units:
                           1         2         3
     Eigenvalues --   489.758371375.024611550.40522
           X            0.99991  -0.01250  -0.00562
           Y            0.01218   0.99852  -0.05295
           Z            0.00628   0.05288   0.99858
 This molecule is an asymmetric top.
 Rotational symmetry number  1.
 Warning -- assumption of classical behavior for rotation
           may cause significant error
 Rotational temperatures (Kelvin)      0.17685     0.06299     0.05587
 Rotational constants (GHZ):           3.68496     1.31252     1.16404
 Zero-point vibrational energy     421672.7 (Joules/Mol)
                                  100.78220 (Kcal/Mol)
 Warning -- explicit consideration of   9 degrees of freedom as
           vibrations may cause significant error
 Vibrational temperatures:     95.67   254.99   303.33   317.17   472.93
          (Kelvin)            530.84   627.85   741.04   888.07  1027.46
                             1059.48  1081.92  1177.35  1217.47  1250.50
                             1295.89  1299.82  1350.89  1408.58  1448.36
                             1469.36  1477.16  1491.09  1548.48  1560.32
                             1635.63  1675.89  1732.96  1739.67  1777.00
                             1805.40  1846.18  1864.85  1911.22  1924.21
                             1994.70  2033.22  2100.62  2121.62  2156.73
                             2163.98  4290.14  4373.17  4396.47  4421.77
                             4442.39  4464.61  4468.19  4574.13  4620.70
                             5499.55

 Zero-point correction=                           0.160607 (Hartree/Particle)
 Thermal correction to Energy=                    0.168339
 Thermal correction to Enthalpy=                  0.169283
 Thermal correction to Gibbs Free Energy=         0.128219
 Sum of electronic and zero-point Energies=           -422.989906
 Sum of electronic and thermal Energies=              -422.982174
 Sum of electronic and thermal Enthalpies=            -422.981229
 Sum of electronic and thermal Free Energies=         -423.022293

                     E (Thermal)             CV                S
                      KCal/Mol        Cal/Mol-Kelvin    Cal/Mol-Kelvin
 Total                  105.634             30.421             86.426
 Electronic               0.000              0.000              0.000
 Translational            0.889              2.981             40.409
 Rotational               0.889              2.981             28.436
 Vibrational            103.857             24.459             17.581
 Vibration     1          0.598              1.970              4.254
 Vibration     2          0.628              1.870              2.357
 Vibration     3          0.643              1.824              2.037
 Vibration     4          0.647              1.810              1.955
 Vibration     5          0.712              1.618              1.266
 Vibration     6          0.741              1.536              1.084
 Vibration     7          0.797              1.391              0.838
 Vibration     8          0.870              1.217              0.622
 Vibration     9          0.977              0.995              0.421

 Optimization completed.
    -- Stationary point found.
 Normal termination of Gaussian 09 at Tue Jan 28 13:21:27 2020.
