 Gaussian 09, Revision D.01,
 Gaussian 09:  ES64L-G09RevD.01 24-Apr-2013

 -----------------------------
 # b3lyp 6-31G(2df,p) opt Freq
 -----------------------------

 -----
 titel
 -----
 Symbolic Z-matrix:
 Charge =  0 Multiplicity = 1

 SCF Done:  E(RB3LYP) =  -423.140612719     A.U. after   13 cycles
 Optimization completed.
    -- Stationary point found.
 Normal termination of Gaussian 09 at Mon Jan 27 23:03:11 2020.

 ----------------------------------------------------------------------
 #N Geom=AllCheck Guess=TCheck SCRF=Check GenChk RB3LYP/6-31G(2df,p) Fr
 eq
 ----------------------------------------------------------------------

 Structure from the checkpoint file:  "/scratch/puck/g09_269d85bf-24d7-4fbd-875b-df8a7a62401e/Gau-195640.chk"
 -----
 titel
 -----
 Charge =  0 Multiplicity = 1

                         Standard orientation:
 ---------------------------------------------------------------------
 Center     Atomic      Atomic             Coordinates (Angstroms)
 Number     Number       Type             X           Y           Z
 ---------------------------------------------------------------------
      1          6           0       -1.662224    1.699778    0.064312
      2          6           0       -1.487558    0.255544   -0.375639
      3          6           0       -1.129369   -0.903866    0.597358
      4          6           0        0.158346   -0.441585    1.315915
      5          6           0        0.885971    0.045678    0.049359
      6          6           0        1.910625    1.084665   -0.056664
      7          8           0        2.239462   -0.304525   -0.192315
      8          6           0       -0.173111   -0.294116   -0.995835
      9          8           0       -0.580862   -1.626956   -0.549809
     10          1           0       -1.738789    2.360148   -0.806167
     11          1           0       -2.583633    1.817309    0.644690
     12          1           0       -0.831615    2.057814    0.678037
     13          1           0       -2.320060   -0.072235   -1.003149
     14          1           0       -1.874440   -1.463175    1.163048
     15          1           0       -0.001591    0.336303    2.067091
     16          1           0        0.684283   -1.282444    1.772548
     17          1           0        2.001847    1.676825   -0.967320
     18          1           0        2.284571    1.568587    0.845133
     19          1           0        0.094546   -0.223876   -2.049760
 ---------------------------------------------------------------------

 SCF Done:  E(RB3LYP) =  -423.140612719     A.U. after    1 cycles

 The electronic state is 1-A.
 Alpha  occ. eigenvalues --  -19.14970 -19.13498 -10.24203 -10.24028 -10.23752
 Alpha  occ. eigenvalues --  -10.23457 -10.19958 -10.18779 -10.18605  -1.07531
 Alpha  occ. eigenvalues --   -1.04680  -0.80149  -0.74565  -0.70319  -0.66432
 Alpha  occ. eigenvalues --   -0.65757  -0.56507  -0.54701  -0.52763  -0.47667
 Alpha  occ. eigenvalues --   -0.46806  -0.44588  -0.43871  -0.42224  -0.40310
 Alpha  occ. eigenvalues --   -0.39742  -0.36676  -0.36222  -0.35038  -0.32513
 Alpha  occ. eigenvalues --   -0.31554  -0.29668  -0.27291  -0.24160
 Alpha virt. eigenvalues --    0.07705   0.08554   0.10144   0.11352   0.12418
 Alpha virt. eigenvalues --    0.12976   0.14067   0.14774   0.15272   0.16174
 Alpha virt. eigenvalues --    0.16543   0.17848   0.18001   0.19063   0.20349

 Mulliken charges:
               1
     1  C   -0.438422
     2  C    0.027772
     3  C    0.051375
     4  C   -0.327552
     5  C    0.507301
     6  C   -0.285755
     7  O   -0.286648
     8  C   -0.038262
     9  O   -0.296367
    10  H    0.123753
    11  H    0.122921
    12  H    0.123018
    13  H    0.091202
    14  H    0.081721
    15  H    0.104036
    16  H    0.128312
    17  H    0.112813
    18  H    0.114589
    19  H    0.084192
 Sum of Mulliken charges =   0.00000

 Dipole moment (field-independent basis, Debye):
    X=             -1.6193    Y=              2.7316    Z=              0.8556  Tot=              3.2887
 Quadrupole moment (field-independent basis, Debye-Ang):
   XX=            -55.4046   YY=            -55.4600   ZZ=            -50.3918
   XY=              2.4907   XZ=             -0.1182   YZ=             -2.5738

  Exact polarizability:  79.137   4.005  72.936  -0.815  -2.526  69.998
 Approx polarizability: 109.489   4.486 111.444  -2.812  -0.529 105.297

                      1                      2                      3
                      A                      A                      A
 Frequencies --    118.4336               186.2991               228.8778
 Red. masses --      3.5234                 1.0819                 2.5546
 Frc consts  --      0.0291                 0.0221                 0.0788
 IR Inten    --      0.3123                 0.0934                 1.5001

                      4                      5                      6
                      A                      A                      A
 Frequencies --    268.9578               322.8582               348.4534
 Red. masses --      3.3899                 2.6028                 3.5371
 Frc consts  --      0.1445                 0.1599                 0.2530
 IR Inten    --      0.5305                 0.2932                 1.6123

                      7                      8                      9
                      A                      A                      A
 Frequencies --    441.1539               497.8889               582.0114
 Red. masses --      2.0137                 5.0649                 5.3676
 Frc consts  --      0.2309                 0.7397                 1.0713
 IR Inten    --      2.6181                 2.2800                16.3795

                     10                     11                     12
                      A                      A                      A
 Frequencies --    597.3698               725.3637               793.6337
 Red. masses --      3.6066                 2.9006                 3.2434
 Frc consts  --      0.7583                 0.8992                 1.2036
 IR Inten    --      5.9805                 4.6654                 5.4886

                     13                     14                     15
                      A                      A                      A
 Frequencies --    829.7919               849.1432               863.9684
 Red. masses --      2.8293                 2.7561                 2.8105
 Frc consts  --      1.1478                 1.1709                 1.2360
 IR Inten    --      8.2715                21.9529                27.8958

                     16                     17                     18
                      A                      A                      A
 Frequencies --    882.8100               910.1635               941.7840
 Red. masses --      2.3291                 1.9609                 2.9868
 Frc consts  --      1.0695                 0.9571                 1.5609
 IR Inten    --      4.3970                17.3279                25.1990

                     19                     20                     21
                      A                      A                      A
 Frequencies --    949.4427              1005.0687              1015.3135
 Red. masses --      3.3743                 1.6824                 2.3143
 Frc consts  --      1.7921                 1.0013                 1.4056
 IR Inten    --     14.3591                17.8484                 6.4246

                     22                     23                     24
                      A                      A                      A
 Frequencies --   1053.8260              1079.3806              1122.2591
 Red. masses --      1.4730                 1.4504                 1.2793
 Frc consts  --      0.9638                 0.9956                 0.9493
 IR Inten    --      3.9906                 3.7729                 1.4802

                     25                     26                     27
                      A                      A                      A
 Frequencies --   1137.9079              1153.8397              1170.4427
 Red. masses --      1.5354                 2.3558                 1.5187
 Frc consts  --      1.1713                 1.8479                 1.2258
 IR Inten    --      2.0258                 9.9020                 2.4259

                     28                     29                     30
                      A                      A                      A
 Frequencies --   1185.9873              1203.0976              1207.1846
 Red. masses --      1.7560                 2.5458                 1.3189
 Frc consts  --      1.4552                 2.1711                 1.1324
 IR Inten    --      2.0189                 2.9074                 0.0738

                     31                     32                     33
                      A                      A                      A
 Frequencies --   1244.1499              1288.0109              1294.9265
 Red. masses --      1.5574                 1.6072                 1.4797
 Frc consts  --      1.4203                 1.5709                 1.4619
 IR Inten    --      8.1914                 1.5021                 2.5738

                     34                     35                     36
                      A                      A                      A
 Frequencies --   1318.6731              1383.9404              1414.9971
 Red. masses --      1.6099                 1.5667                 1.2968
 Frc consts  --      1.6494                 1.7679                 1.5298
 IR Inten    --      6.3457                 6.6795                 8.0784

                     37                     38                     39
                      A                      A                      A
 Frequencies --   1437.7807              1473.9750              1496.5473
 Red. masses --      2.0266                 1.1388                 1.0500
 Frc consts  --      2.4683                 1.4577                 1.3855
 IR Inten    --     12.0182                 4.7736                 3.0115

                     40                     41                     42
                      A                      A                      A
 Frequencies --   1501.2901              1538.8791              3036.9712
 Red. masses --      1.0501                 1.6075                 1.0369
 Frc consts  --      1.3945                 2.2428                 5.6348
 IR Inten    --      3.7622                 4.9769                19.9272

                     43                     44                     45
                      A                      A                      A
 Frequencies --   3067.6637              3074.6399              3081.9543
 Red. masses --      1.0602                 1.0506                 1.0858
 Frc consts  --      5.8783                 5.8515                 6.0766
 IR Inten    --     15.0801                24.6018                 8.2977

                     46                     47                     48
                      A                      A                      A
 Frequencies --   3096.6291              3118.0040              3121.9988
 Red. masses --      1.1006                 1.0990                 1.0949
 Frc consts  --      6.2182                 6.2951                 6.2876
 IR Inten    --     16.9826                30.3922                39.9173

                     49                     50                     51
                      A                      A                      A
 Frequencies --   3125.5661              3132.4844              3158.2237
 Red. masses --      1.1004                 1.0927                 1.1189
 Frc consts  --      6.3335                 6.3173                 6.5752
 IR Inten    --     27.9016                18.6102                23.2991

 - Thermochemistry -
 -------------------
 Temperature   298.150 Kelvin.  Pressure   1.00000 Atm.
 Atom     1 has atomic number  6 and mass  12.00000

 Molecular mass:   126.06808 amu.
 Principal axes and moments of inertia in atomic units:
                           1         2         3
     Eigenvalues --   679.093561089.117041329.92234
           X            0.99988  -0.01535   0.00169
           Y            0.01540   0.99933  -0.03317
           Z           -0.00117   0.03319   0.99945
 This molecule is an asymmetric top.
 Rotational symmetry number  1.
 Warning -- assumption of classical behavior for rotation
           may cause significant error
 Rotational temperatures (Kelvin)      0.12754     0.07953     0.06513
 Rotational constants (GHZ):           2.65757     1.65707     1.35703
 Zero-point vibrational energy     419171.6 (Joules/Mol)
                                  100.18441 (Kcal/Mol)
 Warning -- explicit consideration of  10 degrees of freedom as
           vibrations may cause significant error
 Vibrational temperatures:    170.40   268.04   329.30   386.97   464.52
          (Kelvin)            501.35   634.72   716.35   837.38   859.48
                             1043.64  1141.86  1193.88  1221.73  1243.06
                             1270.17  1309.52  1355.02  1366.03  1446.07
                             1460.81  1516.22  1552.99  1614.68  1637.19
                             1660.12  1684.00  1706.37  1730.99  1736.87
                             1790.05  1853.16  1863.11  1897.27  1991.18
                             2035.86  2068.64  2120.72  2153.20  2160.02
                             2214.10  4369.52  4413.68  4423.72  4434.24
                             4455.35  4486.11  4491.85  4496.99  4506.94
                             4543.97

 Zero-point correction=                           0.159654 (Hartree/Particle)
 Thermal correction to Energy=                    0.167261
 Thermal correction to Enthalpy=                  0.168206
 Thermal correction to Gibbs Free Energy=         0.127843
 Sum of electronic and zero-point Energies=           -422.980959
 Sum of electronic and thermal Energies=              -422.973351
 Sum of electronic and thermal Enthalpies=            -422.972407
 Sum of electronic and thermal Free Energies=         -423.012769

                     E (Thermal)             CV                S
                      KCal/Mol        Cal/Mol-Kelvin    Cal/Mol-Kelvin
 Total                  104.958             30.462             84.949
 Electronic               0.000              0.000              0.000
 Translational            0.889              2.981             40.409
 Rotational               0.889              2.981             28.377
 Vibrational            103.181             24.500             16.164
 Vibration     1          0.609              1.934              3.126
 Vibration     2          0.632              1.859              2.264
 Vibration     3          0.652              1.797              1.888
 Vibration     4          0.673              1.730              1.603
 Vibration     5          0.708              1.630              1.296
 Vibration     6          0.726              1.578              1.173
 Vibration     7          0.801              1.380              0.823
 Vibration     8          0.853              1.255              0.663
 Vibration     9          0.939              1.070              0.482
 Vibration    10          0.955              1.037              0.454

 Optimization completed.
    -- Stationary point found.
 Normal termination of Gaussian 09 at Mon Jan 27 23:46:52 2020.
