 Gaussian 09, Revision D.01,
 Gaussian 09:  ES64L-G09RevD.01 24-Apr-2013

 -----------------------------
 # b3lyp 6-31G(2df,p) opt Freq
 -----------------------------

 -----
 titel
 -----
 Symbolic Z-matrix:
 Charge =  0 Multiplicity = 1

 SCF Done:  E(RB3LYP) =  -423.177361072     A.U. after   14 cycles
 Optimization completed.
    -- Stationary point found.
 Normal termination of Gaussian 09 at Tue Jan 28 09:18:34 2020.

 ----------------------------------------------------------------------
 #N Geom=AllCheck Guess=TCheck SCRF=Check GenChk RB3LYP/6-31G(2df,p) Fr
 eq
 ----------------------------------------------------------------------

 Structure from the checkpoint file:  "/scratch/puck/g09_d9c5c555-5074-465c-8af6-576ac73fb28a/Gau-46298.chk"
 -----
 titel
 -----
 Charge =  0 Multiplicity = 1

                         Standard orientation:
 ---------------------------------------------------------------------
 Center     Atomic      Atomic             Coordinates (Angstroms)
 Number     Number       Type             X           Y           Z
 ---------------------------------------------------------------------
      1          6           0        1.119628    2.067350   -0.323762
      2          6           0        0.877804    0.633807    0.058091
      3          8           0       -0.002516    0.405785    1.194820
      4          6           0       -0.376298   -0.143311   -0.086230
      5          6           0       -1.694452    0.362288   -0.608142
      6          8           0       -2.773034   -0.146943    0.163295
      7          6           0       -0.005053   -1.619844   -0.227988
      8          6           0        1.503759   -1.609385   -0.120755
      9          6           0        1.989131   -0.374086    0.012385
     10          1           0        1.849294    2.520919    0.356173
     11          1           0        1.523059    2.133960   -1.339598
     12          1           0        0.201551    2.655338   -0.269704
     13          1           0       -1.698589    1.461076   -0.621599
     14          1           0       -1.859218    0.011122   -1.632327
     15          1           0       -2.603232    0.117909    1.074866
     16          1           0       -0.476529   -2.227958    0.552131
     17          1           0       -0.345433   -2.023314   -1.190729
     18          1           0        2.092964   -2.519461   -0.123177
     19          1           0        3.033430   -0.101245    0.107449
 ---------------------------------------------------------------------

 SCF Done:  E(RB3LYP) =  -423.177361073     A.U. after    1 cycles

 The electronic state is 1-A.
 Alpha  occ. eigenvalues --  -19.14285 -19.13421 -10.24231 -10.23372 -10.23010
 Alpha  occ. eigenvalues --  -10.18994 -10.18969 -10.18710 -10.18326  -1.06427
 Alpha  occ. eigenvalues --   -1.01375  -0.81932  -0.75499  -0.73020  -0.67541
 Alpha  occ. eigenvalues --   -0.62605  -0.56158  -0.54388  -0.51064  -0.47862
 Alpha  occ. eigenvalues --   -0.45485  -0.44547  -0.42931  -0.42828  -0.41189
 Alpha  occ. eigenvalues --   -0.38277  -0.38023  -0.36779  -0.35351  -0.33693
 Alpha  occ. eigenvalues --   -0.30139  -0.27295  -0.25756  -0.24320
 Alpha virt. eigenvalues --    0.00246   0.08013   0.09722   0.11155   0.11494
 Alpha virt. eigenvalues --    0.13225   0.13631   0.14865   0.16873   0.17084
 Alpha virt. eigenvalues --    0.17821   0.18888   0.20533   0.21292   0.21996

 Mulliken charges:
               1
     1  C   -0.496420
     2  C    0.315648
     3  O   -0.346767
     4  C    0.303863
     5  C   -0.152600
     6  O   -0.418612
     7  C   -0.324521
     8  C   -0.085654
     9  C   -0.122355
    10  H    0.130858
    11  H    0.127542
    12  H    0.132219
    13  H    0.090114
    14  H    0.108160
    15  H    0.293487
    16  H    0.129794
    17  H    0.112256
    18  H    0.102501
    19  H    0.100489
 Sum of Mulliken charges =   0.00000

 Dipole moment (field-independent basis, Debye):
    X=              1.5461    Y=              0.3400    Z=             -1.0635  Tot=              1.9071
 Quadrupole moment (field-independent basis, Debye-Ang):
   XX=            -55.9499   YY=            -49.5428   ZZ=            -53.7666
   XY=             -1.0152   XZ=             -1.5575   YZ=             -0.3747

  Exact polarizability:  84.348   4.463  84.970   0.718   1.521  58.056
 Approx polarizability: 116.975  13.148 125.347  -0.200   6.615  96.669

                      1                      2                      3
                      A                      A                      A
 Frequencies --     61.7295               144.9839               176.2043
 Red. masses --      3.5930                 2.6520                 1.2174
 Frc consts  --      0.0081                 0.0328                 0.0223
 IR Inten    --      5.1636                 0.2385                 0.3608

                      4                      5                      6
                      A                      A                      A
 Frequencies --    218.2752               273.8983               293.0947
 Red. masses --      2.1608                 2.7310                 3.4013
 Frc consts  --      0.0607                 0.1207                 0.1721
 IR Inten    --      0.1919                 0.7443                 2.6177

                      7                      8                      9
                      A                      A                      A
 Frequencies --    339.4880               424.9038               436.1448
 Red. masses --      1.8077                 1.4965                 2.2726
 Frc consts  --      0.1228                 0.1592                 0.2547
 IR Inten    --     18.6275                53.4286                56.2070

                     10                     11                     12
                      A                      A                      A
 Frequencies --    476.6634               528.7927               604.7006
 Red. masses --      3.3171                 3.0455                 3.4394
 Frc consts  --      0.4441                 0.5017                 0.7410
 IR Inten    --      3.7053                 6.7903                 2.9807

                     13                     14                     15
                      A                      A                      A
 Frequencies --    698.3740               723.5905               751.7648
 Red. masses --      3.9493                 3.7439                 1.9924
 Frc consts  --      1.1349                 1.1549                 0.6634
 IR Inten    --     11.9711                 4.6205                24.4138

                     16                     17                     18
                      A                      A                      A
 Frequencies --    812.5834               886.5652               901.1545
 Red. masses --      3.3225                 2.2183                 3.1742
 Frc consts  --      1.2926                 1.0273                 1.5187
 IR Inten    --      6.4882                 4.3208                37.1255

                     19                     20                     21
                      A                      A                      A
 Frequencies --    944.2759               952.7890               953.9797
 Red. masses --      1.7494                 1.9978                 1.3186
 Frc consts  --      0.9191                 1.0686                 0.7070
 IR Inten    --      8.4065                 6.6747                 2.7838

                     22                     23                     24
                      A                      A                      A
 Frequencies --   1007.2971              1041.6296              1068.4483
 Red. masses --      2.1559                 2.7860                 2.4594
 Frc consts  --      1.2888                 1.7810                 1.6542
 IR Inten    --      0.9197                93.5772                 9.3761

                     25                     26                     27
                      A                      A                      A
 Frequencies --   1096.8647              1149.1508              1158.5105
 Red. masses --      1.5686                 1.4002                 1.3540
 Frc consts  --      1.1119                 1.0894                 1.0707
 IR Inten    --     14.2511                 1.5405                 3.6778

                     28                     29                     30
                      A                      A                      A
 Frequencies --   1200.0797              1227.3782              1257.6310
 Red. masses --      1.5256                 2.0812                 1.7158
 Frc consts  --      1.2945                 1.8473                 1.5989
 IR Inten    --      9.5387                 7.8723                15.5523

                     31                     32                     33
                      A                      A                      A
 Frequencies --   1323.5325              1368.5179              1372.3740
 Red. masses --      2.3587                 1.4271                 1.6959
 Frc consts  --      2.4344                 1.5748                 1.8819
 IR Inten    --     13.9188                 2.3582                11.9308

                     34                     35                     36
                      A                      A                      A
 Frequencies --   1409.8175              1425.7661              1448.2738
 Red. masses --      1.3250                 1.3396                 1.7793
 Frc consts  --      1.5516                 1.6044                 2.1989
 IR Inten    --      4.9092                44.0457                14.9581

                     37                     38                     39
                      A                      A                      A
 Frequencies --   1460.7092              1485.6423              1490.7215
 Red. masses --      1.2959                 1.1506                 1.0941
 Frc consts  --      1.6291                 1.4962                 1.4326
 IR Inten    --     14.8247                 6.0446                 0.8186

                     40                     41                     42
                      A                      A                      A
 Frequencies --   1499.7616              1668.8848              3007.1302
 Red. masses --      1.1415                 6.4084                 1.0651
 Frc consts  --      1.5128                10.5160                 5.6746
 IR Inten    --      2.9394                 6.9147                44.5720

                     43                     44                     45
                      A                      A                      A
 Frequencies --   3028.0906              3037.7992              3070.7400
 Red. masses --      1.0648                 1.0377                 1.0960
 Frc consts  --      5.7526                 5.6420                 6.0891
 IR Inten    --     20.5782                21.0357                 7.2494

                     46                     47                     48
                      A                      A                      A
 Frequencies --   3076.5527              3097.4602              3132.3039
 Red. masses --      1.0975                 1.1001                 1.0997
 Frc consts  --      6.1206                 6.2188                 6.3571
 IR Inten    --     30.2278                15.9753                15.3996

                     49                     50                     51
                      A                      A                      A
 Frequencies --   3188.8482              3214.0134              3796.6966
 Red. masses --      1.0851                 1.1043                 1.0658
 Frc consts  --      6.5011                 6.7210                 9.0522
 IR Inten    --      5.7552                19.5662                21.5960

 - Thermochemistry -
 -------------------
 Temperature   298.150 Kelvin.  Pressure   1.00000 Atm.
 Atom     1 has atomic number  6 and mass  12.00000

 Molecular mass:   126.06808 amu.
 Principal axes and moments of inertia in atomic units:
                           1         2         3
     Eigenvalues --   709.658351174.642921614.38999
           X            0.99990   0.01408   0.00000
           Y           -0.01408   0.99977  -0.01647
           Z           -0.00023   0.01647   0.99986
 This molecule is an asymmetric top.
 Rotational symmetry number  1.
 Warning -- assumption of classical behavior for rotation
           may cause significant error
 Rotational temperatures (Kelvin)      0.12205     0.07374     0.05365
 Rotational constants (GHZ):           2.54311     1.53642     1.11791
 Zero-point vibrational energy     415191.4 (Joules/Mol)
                                   99.23313 (Kcal/Mol)
 Warning -- explicit consideration of  12 degrees of freedom as
           vibrations may cause significant error
 Vibrational temperatures:     88.81   208.60   253.52   314.05   394.08
          (Kelvin)            421.70   488.45   611.34   627.51   685.81
                              760.81   870.03  1004.80  1041.08  1081.62
                             1169.12  1275.57  1296.56  1358.60  1370.85
                             1372.56  1449.27  1498.67  1537.26  1578.14
                             1653.37  1666.84  1726.64  1765.92  1809.45
                             1904.27  1968.99  1974.54  2028.41  2051.36
                             2083.74  2101.63  2137.51  2144.81  2157.82
                             2401.15  4326.58  4356.74  4370.71  4418.10
                             4426.47  4456.55  4506.68  4588.04  4624.24
                             5462.59

 Zero-point correction=                           0.158138 (Hartree/Particle)
 Thermal correction to Energy=                    0.166891
 Thermal correction to Enthalpy=                  0.167835
 Thermal correction to Gibbs Free Energy=         0.124773
 Sum of electronic and zero-point Energies=           -423.019223
 Sum of electronic and thermal Energies=              -423.010470
 Sum of electronic and thermal Enthalpies=            -423.009526
 Sum of electronic and thermal Free Energies=         -423.052588

                     E (Thermal)             CV                S
                      KCal/Mol        Cal/Mol-Kelvin    Cal/Mol-Kelvin
 Total                  104.726             33.502             90.632
 Electronic               0.000              0.000              0.000
 Translational            0.889              2.981             40.409
 Rotational               0.889              2.981             28.689
 Vibrational            102.948             27.540             21.535
 Vibration     1          0.597              1.973              4.401
 Vibration     2          0.616              1.908              2.737
 Vibration     3          0.628              1.872              2.368
 Vibration     4          0.646              1.813              1.973
 Vibration     5          0.676              1.722              1.571
 Vibration     6          0.688              1.687              1.456
 Vibration     7          0.719              1.597              1.215
 Vibration     8          0.787              1.416              0.875
 Vibration     9          0.797              1.391              0.839
 Vibration    10          0.833              1.302              0.719
 Vibration    11          0.884              1.186              0.590
 Vibration    12          0.963              1.022              0.442

 Optimization completed.
    -- Stationary point found.
 Normal termination of Gaussian 09 at Tue Jan 28 10:04:51 2020.
