 Gaussian 09, Revision D.01,
 Gaussian 09:  ES64L-G09RevD.01 24-Apr-2013

 -----------------------------
 # b3lyp 6-31G(2df,p) opt Freq
 -----------------------------

 -----
 titel
 -----
 Symbolic Z-matrix:
 Charge =  0 Multiplicity = 1

 SCF Done:  E(RB3LYP) =  -423.233989340     A.U. after   14 cycles
 Optimization completed.
    -- Stationary point found.
 Normal termination of Gaussian 09 at Mon Jan 27 22:03:21 2020.

 ----------------------------------------------------------------------
 #N Geom=AllCheck Guess=TCheck SCRF=Check GenChk RB3LYP/6-31G(2df,p) Fr
 eq
 ----------------------------------------------------------------------

 Structure from the checkpoint file:  "/scratch/puck/g09_3fce7b52-24da-455e-8749-593c49adfe7a/Gau-181019.chk"
 -----
 titel
 -----
 Charge =  0 Multiplicity = 1

                         Standard orientation:
 ---------------------------------------------------------------------
 Center     Atomic      Atomic             Coordinates (Angstroms)
 Number     Number       Type             X           Y           Z
 ---------------------------------------------------------------------
      1          6           0        2.320009    1.103173    0.272779
      2          6           0        0.894159    0.636069    0.074495
      3          6           0       -0.100239    1.533486   -0.005400
      4          6           0       -1.577598    1.396067   -0.223625
      5          6           0       -2.133285   -0.020648   -0.367701
      6          6           0       -1.505190   -0.986538    0.630561
      7          8           0       -0.298879   -1.564670    0.129588
      8          6           0        0.823135   -0.851649   -0.123849
      9          8           0        1.795438   -1.460547   -0.498870
     10          1           0        2.937904    0.819221   -0.582998
     11          1           0        2.361518    2.186932    0.403858
     12          1           0        2.771993    0.626989    1.149366
     13          1           0        0.204288    2.574111    0.107554
     14          1           0       -2.070737    1.892999    0.625813
     15          1           0       -1.857247    2.002729   -1.096231
     16          1           0       -3.219057    0.003263   -0.225631
     17          1           0       -1.955065   -0.417748   -1.372978
     18          1           0       -1.319648   -0.497901    1.595669
     19          1           0       -2.152368   -1.848625    0.806269
 ---------------------------------------------------------------------

 SCF Done:  E(RB3LYP) =  -423.233989340     A.U. after    1 cycles

 The electronic state is 1-A.
 Alpha  occ. eigenvalues --  -19.17340 -19.10989 -10.29958 -10.24716 -10.20592
 Alpha  occ. eigenvalues --  -10.20562 -10.20504 -10.19897 -10.17837  -1.08951
 Alpha  occ. eigenvalues --   -1.00633  -0.83122  -0.79122  -0.72996  -0.67041
 Alpha  occ. eigenvalues --   -0.64999  -0.58958  -0.54642  -0.49593  -0.48635
 Alpha  occ. eigenvalues --   -0.45240  -0.45109  -0.43165  -0.42461  -0.41408
 Alpha  occ. eigenvalues --   -0.40260  -0.38388  -0.36603  -0.36570  -0.34627
 Alpha  occ. eigenvalues --   -0.32163  -0.28746  -0.26243  -0.25726
 Alpha virt. eigenvalues --   -0.03065   0.07036   0.07800   0.10998   0.11725
 Alpha virt. eigenvalues --    0.12690   0.12843   0.14126   0.14667   0.16309
 Alpha virt. eigenvalues --    0.18022   0.19395   0.19509   0.20093   0.22287

 Mulliken charges:
               1
     1  C   -0.455859
     2  C    0.124473
     3  C   -0.116045
     4  C   -0.262053
     5  C   -0.225406
     6  C   -0.073396
     7  O   -0.222893
     8  C    0.357580
     9  O   -0.326397
    10  H    0.151441
    11  H    0.109923
    12  H    0.132671
    13  H    0.095929
    14  H    0.119086
    15  H    0.121766
    16  H    0.107014
    17  H    0.125149
    18  H    0.112944
    19  H    0.124072
 Sum of Mulliken charges =   0.00000

 Dipole moment (field-independent basis, Debye):
    X=             -3.2826    Y=              3.0819    Z=              1.0382  Tot=              4.6208
 Quadrupole moment (field-independent basis, Debye-Ang):
   XX=            -52.3326   YY=            -56.2150   ZZ=            -52.6254
   XY=              4.6560   XZ=              1.2792   YZ=             -1.8378

  Exact polarizability:  99.814  -6.425  82.059  -0.636   0.361  56.557
 Approx polarizability: 143.715 -24.165 126.292  -5.277   3.150  88.415

                      1                      2                      3
                      A                      A                      A
 Frequencies --     68.9391               115.1815               171.0501
 Red. masses --      4.0739                 3.0231                 1.0619
 Frc consts  --      0.0114                 0.0236                 0.0183
 IR Inten    --      1.9252                 0.6636                 0.4636

                      4                      5                      6
                      A                      A                      A
 Frequencies --    251.7470               270.5446               324.9661
 Red. masses --      2.1402                 2.4932                 3.4278
 Frc consts  --      0.0799                 0.1075                 0.2133
 IR Inten    --      0.7504                 0.4785                 5.8125

                      7                      8                      9
                      A                      A                      A
 Frequencies --    359.8402               365.7272               420.5458
 Red. masses --      3.0393                 3.4054                 3.8679
 Frc consts  --      0.2319                 0.2684                 0.4030
 IR Inten    --      1.4215                 2.6689                 2.6145

                     10                     11                     12
                      A                      A                      A
 Frequencies --    538.0055               573.2903               629.7505
 Red. masses --      4.5583                 2.6789                 3.2490
 Frc consts  --      0.7774                 0.5188                 0.7592
 IR Inten    --      2.4669                 7.2626                 1.3108

                     13                     14                     15
                      A                      A                      A
 Frequencies --    722.6736               764.6448               824.6332
 Red. masses --      4.1441                 3.5000                 1.8899
 Frc consts  --      1.2752                 1.2057                 0.7572
 IR Inten    --      1.8446                 5.5768                10.9797

                     16                     17                     18
                      A                      A                      A
 Frequencies --    859.5601               902.9975               938.3270
 Red. masses --      2.4993                 1.9477                 1.6203
 Frc consts  --      1.0880                 0.9357                 0.8405
 IR Inten    --      6.2899                10.0454                 5.1039

                     19                     20                     21
                      A                      A                      A
 Frequencies --    995.0815              1040.9560              1074.7167
 Red. masses --      2.0799                 1.6596                 1.4933
 Frc consts  --      1.2134                 1.0595                 1.0162
 IR Inten    --      0.9255                15.6399                 0.7944

                     22                     23                     24
                      A                      A                      A
 Frequencies --   1080.9395              1095.0101              1125.0671
 Red. masses --      3.6669                 2.1813                 1.6260
 Frc consts  --      2.5243                 1.5410                 1.2126
 IR Inten    --     32.4271                 9.0180                21.3739

                     25                     26                     27
                      A                      A                      A
 Frequencies --   1132.6815              1212.6606              1242.2636
 Red. masses --      4.5875                 1.2921                 2.4682
 Frc consts  --      3.4677                 1.1195                 2.2442
 IR Inten    --     68.4713                25.4819               133.6197

                     28                     29                     30
                      A                      A                      A
 Frequencies --   1275.4542              1306.8252              1377.1161
 Red. masses --      1.4046                 1.1760                 1.5869
 Frc consts  --      1.3463                 1.1833                 1.7732
 IR Inten    --      2.5946                40.2272                14.1214

                     31                     32                     33
                      A                      A                      A
 Frequencies --   1383.1706              1405.5790              1417.3505
 Red. masses --      1.4596                 1.3259                 1.2913
 Frc consts  --      1.6453                 1.5433                 1.5284
 IR Inten    --     11.8382                 2.3128                 6.5167

                     34                     35                     36
                      A                      A                      A
 Frequencies --   1426.0071              1464.9882              1470.2809
 Red. masses --      1.4613                 1.0856                 1.0489
 Frc consts  --      1.7508                 1.3727                 1.3359
 IR Inten    --     31.9411                 7.5283                 5.7946

                     37                     38                     39
                      A                      A                      A
 Frequencies --   1482.7157              1491.8533              1506.0168
 Red. masses --      1.0928                 1.0578                 1.1033
 Frc consts  --      1.4154                 1.3870                 1.4743
 IR Inten    --      5.8495                 9.0529                11.1656

                     40                     41                     42
                      A                      A                      A
 Frequencies --   1713.5220              1792.5385              2995.8416
 Red. masses --      7.1765                12.5843                 1.0674
 Frc consts  --     12.4149                23.8240                 5.6445
 IR Inten    --      6.0397               320.5249                20.4199

                     43                     44                     45
                      A                      A                      A
 Frequencies --   3024.5327              3028.9107              3042.5740
 Red. masses --      1.0896                 1.0672                 1.0366
 Frc consts  --      5.8724                 5.7684                 5.6536
 IR Inten    --     14.5719                25.2810                19.5264

                     46                     47                     48
                      A                      A                      A
 Frequencies --   3045.7320              3086.8627              3103.7256
 Red. masses --      1.0625                 1.1032                 1.0977
 Frc consts  --      5.8070                 6.1938                 6.2304
 IR Inten    --     26.6047                24.3277                10.8625

                     49                     50                     51
                      A                      A                      A
 Frequencies --   3105.9779              3122.3348              3131.0402
 Red. masses --      1.0981                 1.0903                 1.0995
 Frc consts  --      6.2417                 6.2624                 6.3508
 IR Inten    --     31.5603                 7.7021                25.1750

 - Thermochemistry -
 -------------------
 Temperature   298.150 Kelvin.  Pressure   1.00000 Atm.
 Atom     1 has atomic number  6 and mass  12.00000

 Molecular mass:   126.06808 amu.
 Principal axes and moments of inertia in atomic units:
                           1         2         3
     Eigenvalues --   745.963511139.347111735.57130
           X            0.99772   0.06678   0.00952
           Y           -0.06672   0.99775  -0.00691
           Z           -0.00996   0.00626   0.99993
 This molecule is an asymmetric top.
 Rotational symmetry number  1.
 Warning -- assumption of classical behavior for rotation
           may cause significant error
 Rotational temperatures (Kelvin)      0.11611     0.07602     0.04991
 Rotational constants (GHZ):           2.41934     1.58401     1.03985
 Zero-point vibrational energy     420503.8 (Joules/Mol)
                                  100.50283 (Kcal/Mol)
 Warning -- explicit consideration of  11 degrees of freedom as
           vibrations may cause significant error
 Vibrational temperatures:     99.19   165.72   246.10   362.21   389.25
          (Kelvin)            467.55   517.73   526.20   605.07   774.07
                              824.84   906.07  1039.76  1100.15  1186.46
                             1236.71  1299.21  1350.04  1431.70  1497.70
                             1546.28  1555.23  1575.47  1618.72  1629.67
                             1744.75  1787.34  1835.09  1880.23  1981.36
                             1990.07  2022.31  2039.25  2051.70  2107.79
                             2115.40  2133.29  2146.44  2166.82  2465.37
                             2579.06  4310.34  4351.62  4357.92  4377.58
                             4382.12  4441.30  4465.56  4468.80  4492.34
                             4504.86

 Zero-point correction=                           0.160161 (Hartree/Particle)
 Thermal correction to Energy=                    0.168678
 Thermal correction to Enthalpy=                  0.169623
 Thermal correction to Gibbs Free Energy=         0.126834
 Sum of electronic and zero-point Energies=           -423.073828
 Sum of electronic and thermal Energies=              -423.065311
 Sum of electronic and thermal Enthalpies=            -423.064367
 Sum of electronic and thermal Free Energies=         -423.107156

                     E (Thermal)             CV                S
                      KCal/Mol        Cal/Mol-Kelvin    Cal/Mol-Kelvin
 Total                  105.847             31.998             90.056
 Electronic               0.000              0.000              0.000
 Translational            0.889              2.981             40.409
 Rotational               0.889              2.981             28.780
 Vibrational            104.070             26.037             20.868
 Vibration     1          0.598              1.969              4.183
 Vibration     2          0.608              1.937              3.180
 Vibration     3          0.626              1.878              2.424
 Vibration     4          0.664              1.760              1.718
 Vibration     5          0.674              1.727              1.593
 Vibration     6          0.709              1.626              1.285
 Vibration     7          0.734              1.555              1.123
 Vibration     8          0.739              1.543              1.098
 Vibration     9          0.783              1.426              0.890
 Vibration    10          0.893              1.166              0.570
 Vibration    11          0.930              1.089              0.498

 Normal termination of Gaussian 09 at Mon Jan 27 22:47:19 2020.
