 Gaussian 09, Revision D.01,
 Gaussian 09:  ES64L-G09RevD.01 24-Apr-2013

 -----------------------------
 # b3lyp 6-31G(2df,p) opt Freq
 -----------------------------

 -----
 titel
 -----
 Symbolic Z-matrix:
 Charge =  0 Multiplicity = 1

 SCF Done:  E(RB3LYP) =  -423.124877542     A.U. after   14 cycles
 Optimization completed.
    -- Stationary point found.
 Normal termination of Gaussian 09 at Tue Jan 28 12:39:11 2020.

 ----------------------------------------------------------------------
 #N Geom=AllCheck Guess=TCheck SCRF=Check GenChk RB3LYP/6-31G(2df,p) Fr
 eq
 ----------------------------------------------------------------------

 Structure from the checkpoint file:  "/scratch/puck/g09_299828d5-f5b0-4c46-ab71-d887563003a9/Gau-106760.chk"
 -----
 titel
 -----
 Charge =  0 Multiplicity = 1

                         Standard orientation:
 ---------------------------------------------------------------------
 Center     Atomic      Atomic             Coordinates (Angstroms)
 Number     Number       Type             X           Y           Z
 ---------------------------------------------------------------------
      1          6           0       -3.376452   -0.470888   -0.495776
      2          8           0       -2.216006   -0.948347    0.162428
      3          6           0       -1.065576   -0.277602   -0.227438
      4          6           0       -0.685132    1.010704    0.447723
      5          8           0       -0.030131    2.000761   -0.273147
      6          6           0        0.059849   -0.285666    0.790194
      7          6           0        1.425124   -0.398899    0.373586
      8          6           0        2.578236   -0.413834    0.017482
      9          6           0        3.968645   -0.487092   -0.409216
     10          1           0       -3.311028   -0.618256   -1.583763
     11          1           0       -4.221590   -1.044975   -0.109720
     12          1           0       -3.542639    0.597468   -0.299905
     13          1           0       -0.785017   -0.372262   -1.277594
     14          1           0       -1.359983    1.385026    1.214796
     15          1           0        0.919948    1.836923   -0.200355
     16          1           0       -0.202156   -0.734436    1.743588
     17          1           0        4.363797   -1.501698   -0.287817
     18          1           0        4.074392   -0.216107   -1.465451
     19          1           0        4.605212    0.188667    0.172643
 ---------------------------------------------------------------------

 SCF Done:  E(RB3LYP) =  -423.124877542     A.U. after    1 cycles

 The electronic state is 1-A.
 Alpha  occ. eigenvalues --  -19.14954 -19.14003 -10.23815 -10.23614 -10.22632
 Alpha  occ. eigenvalues --  -10.21050 -10.20853 -10.18246 -10.17805  -1.04680
 Alpha  occ. eigenvalues --   -1.02619  -0.85080  -0.77888  -0.71413  -0.68888
 Alpha  occ. eigenvalues --   -0.62568  -0.59357  -0.53715  -0.51783  -0.47257
 Alpha  occ. eigenvalues --   -0.45828  -0.44995  -0.43960  -0.43096  -0.42879
 Alpha  occ. eigenvalues --   -0.42194  -0.39467  -0.36246  -0.33101  -0.31706
 Alpha  occ. eigenvalues --   -0.28711  -0.26925  -0.23959  -0.22959
 Alpha virt. eigenvalues --    0.04287   0.04753   0.09416   0.09970   0.11474
 Alpha virt. eigenvalues --    0.12106   0.14015   0.14852   0.15728   0.16799
 Alpha virt. eigenvalues --    0.17395   0.17984   0.18745   0.19758   0.21021

 Mulliken charges:
               1
     1  C   -0.234866
     2  O   -0.237238
     3  C    0.063241
     4  C    0.074236
     5  O   -0.425448
     6  C   -0.310640
     7  C    0.018737
     8  C    0.122321
     9  C   -0.501259
    10  H    0.111576
    11  H    0.129272
    12  H    0.115866
    13  H    0.101377
    14  H    0.105738
    15  H    0.289555
    16  H    0.123325
    17  H    0.153685
    18  H    0.151247
    19  H    0.149276
 Sum of Mulliken charges =   0.00000

 Dipole moment (field-independent basis, Debye):
    X=              0.8952    Y=             -0.2572    Z=             -0.2755  Tot=              0.9713
 Quadrupole moment (field-independent basis, Debye-Ang):
   XX=            -40.3499   YY=            -58.3724   ZZ=            -52.0182
   XY=             -0.2349   XZ=             -0.7106   YZ=              1.8594

  Exact polarizability: 124.521  -2.654  64.645  -5.605   0.058  62.134
 Approx polarizability: 163.225  -3.532  96.478 -13.603  -2.423  93.988

                      1                      2                      3
                      A                      A                      A
 Frequencies --     39.7901                65.3096                80.4985
 Red. masses --      1.0284                 3.1942                 3.6283
 Frc consts  --      0.0010                 0.0080                 0.0139
 IR Inten    --      0.1154                 3.2252                 1.6386

                      4                      5                      6
                      A                      A                      A
 Frequencies --    121.4886               174.2977               183.4093
 Red. masses --      2.9660                 1.8109                 1.7446
 Frc consts  --      0.0258                 0.0324                 0.0346
 IR Inten    --      0.6239                 4.1300                15.9943

                      7                      8                      9
                      A                      A                      A
 Frequencies --    208.9587               251.9008               289.7389
 Red. masses --      1.4109                 4.0670                 3.5061
 Frc consts  --      0.0363                 0.1520                 0.1734
 IR Inten    --     46.1029                 6.6774                23.9937

                     10                     11                     12
                      A                      A                      A
 Frequencies --    310.1202               389.6846               402.8642
 Red. masses --      2.3259                 3.8166                 4.8172
 Frc consts  --      0.1318                 0.3415                 0.4606
 IR Inten    --      0.0249                 2.5662                 0.7015

                     13                     14                     15
                      A                      A                      A
 Frequencies --    447.1749               523.8165               608.1473
 Red. masses --      4.4186                 4.3178                 4.4448
 Frc consts  --      0.5206                 0.6980                 0.9686
 IR Inten    --      7.0789                 1.9213                 2.2040

                     16                     17                     18
                      A                      A                      A
 Frequencies --    761.5286               879.4965               899.9145
 Red. masses --      4.1155                 4.3892                 1.7901
 Frc consts  --      1.4062                 2.0003                 0.8542
 IR Inten    --      6.2772                10.7893                 4.9327

                     19                     20                     21
                      A                      A                      A
 Frequencies --    950.4090              1035.2656              1051.1370
 Red. masses --      4.4330                 3.5340                 1.3991
 Frc consts  --      2.3592                 2.2316                 0.9108
 IR Inten    --     21.1263                45.7535                 0.8799

                     22                     23                     24
                      A                      A                      A
 Frequencies --   1054.0013              1060.5196              1080.8747
 Red. masses --      1.3927                 1.4197                 1.2763
 Frc consts  --      0.9116                 0.9407                 0.8785
 IR Inten    --      1.3282                11.1637                15.6935

                     25                     26                     27
                      A                      A                      A
 Frequencies --   1134.0121              1161.8340              1182.1092
 Red. masses --      2.4545                 2.9529                 1.3060
 Frc consts  --      1.8597                 2.3484                 1.0752
 IR Inten    --     30.9393               153.4424                 2.7438

                     28                     29                     30
                      A                      A                      A
 Frequencies --   1188.3591              1212.7319              1239.3456
 Red. masses --      2.2742                 1.5767                 2.0643
 Frc consts  --      1.8922                 1.3662                 1.8681
 IR Inten    --     16.8687                29.9268                59.1657

                     31                     32                     33
                      A                      A                      A
 Frequencies --   1305.0180              1348.8070              1376.7504
 Red. masses --      1.2694                 1.7526                 1.2298
 Frc consts  --      1.2738                 1.8786                 1.3734
 IR Inten    --     10.4133                 7.8985                61.3905

                     34                     35                     36
                      A                      A                      A
 Frequencies --   1414.8958              1440.9627              1476.6696
 Red. masses --      1.2603                 1.9379                 1.0395
 Frc consts  --      1.4866                 2.3708                 1.3355
 IR Inten    --     12.4397                33.1420                 5.9228

                     37                     38                     39
                      A                      A                      A
 Frequencies --   1479.2684              1485.1341              1488.7057
 Red. masses --      1.0398                 1.0786                 1.2650
 Frc consts  --      1.3406                 1.4017                 1.6518
 IR Inten    --      6.0187                 5.4270                 4.4274

                     40                     41                     42
                      A                      A                      A
 Frequencies --   1507.8868              2357.1936              2990.1100
 Red. masses --      1.0721                11.8059                 1.0357
 Frc consts  --      1.4362                38.6492                 5.4557
 IR Inten    --      6.7086                 1.7519                59.4438

                     43                     44                     45
                      A                      A                      A
 Frequencies --   3027.1590              3043.5280              3087.3425
 Red. masses --      1.0347                 1.1030                 1.1004
 Frc consts  --      5.5865                 6.0200                 6.1797
 IR Inten    --     33.1953                45.3707                10.1895

                     46                     47                     48
                      A                      A                      A
 Frequencies --   3089.7974              3099.6947              3122.8934
 Red. masses --      1.1001                 1.0882                 1.0984
 Frc consts  --      6.1876                 6.1602                 6.3112
 IR Inten    --      8.5253                13.4260                31.0506

                     49                     50                     51
                      A                      A                      A
 Frequencies --   3130.2401              3158.9997              3738.1296
 Red. masses --      1.0883                 1.0869                 1.0662
 Frc consts  --      6.2829                 6.3906                 8.7777
 IR Inten    --     19.7654                 7.7832                73.1442

 - Thermochemistry -
 -------------------
 Temperature   298.150 Kelvin.  Pressure   1.00000 Atm.
 Atom     1 has atomic number  6 and mass  12.00000

 Molecular mass:   126.06808 amu.
 Principal axes and moments of inertia in atomic units:
                           1         2         3
     Eigenvalues --   507.589172356.800932651.38862
           X            0.99999  -0.00372  -0.00151
           Y            0.00376   0.99964   0.02662
           Z            0.00141  -0.02663   0.99964
 This molecule is an asymmetric top.
 Rotational symmetry number  1.
 Warning -- assumption of classical behavior for rotation
           may cause significant error
 Rotational temperatures (Kelvin)      0.17064     0.03675     0.03267
 Rotational constants (GHZ):           3.55552     0.76576     0.68068
 Zero-point vibrational energy     407674.9 (Joules/Mol)
                                   97.43664 (Kcal/Mol)
 Warning -- explicit consideration of  15 degrees of freedom as
           vibrations may cause significant error
 Vibrational temperatures:     57.25    93.97   115.82   174.79   250.78
          (Kelvin)            263.88   300.64   362.43   416.87   446.19
                              560.67   579.63   643.38   753.65   874.99
                             1095.67  1265.40  1294.77  1367.42  1489.51
                             1512.35  1516.47  1525.85  1555.14  1631.59
                             1671.62  1700.79  1709.78  1744.85  1783.14
                             1877.63  1940.63  1980.83  2035.72  2073.22
                             2124.60  2128.33  2136.77  2141.91  2169.51
                             3391.47  4302.10  4355.40  4378.95  4441.99
                             4445.52  4459.76  4493.14  4503.71  4545.09
                             5378.33

 Zero-point correction=                           0.155275 (Hartree/Particle)
 Thermal correction to Energy=                    0.166120
 Thermal correction to Enthalpy=                  0.167064
 Thermal correction to Gibbs Free Energy=         0.118128
 Sum of electronic and zero-point Energies=           -422.969602
 Sum of electronic and thermal Energies=              -422.958757
 Sum of electronic and thermal Enthalpies=            -422.957813
 Sum of electronic and thermal Free Energies=         -423.006750

                     E (Thermal)             CV                S
                      KCal/Mol        Cal/Mol-Kelvin    Cal/Mol-Kelvin
 Total                  104.242             37.055            102.996
 Electronic               0.000              0.000              0.000
 Translational            0.889              2.981             40.409
 Rotational               0.889              2.981             29.541
 Vibrational            102.465             31.094             33.046
 Vibration     1          0.594              1.981              5.270
 Vibration     2          0.597              1.971              4.290
 Vibration     3          0.600              1.962              3.879
 Vibration     4          0.609              1.931              3.077
 Vibration     5          0.627              1.874              2.389
 Vibration     6          0.631              1.862              2.293
 Vibration     7          0.642              1.827              2.053
 Vibration     8          0.664              1.760              1.717
 Vibration     9          0.686              1.693              1.475
 Vibration    10          0.699              1.654              1.362
 Vibration    11          0.758              1.492              1.001
 Vibration    12          0.768              1.464              0.952
 Vibration    13          0.806              1.367              0.804
 Vibration    14          0.879              1.197              0.601
 Vibration    15          0.967              1.015              0.436

 Optimization completed.
    -- Stationary point found.
 Normal termination of Gaussian 09 at Tue Jan 28 13:12:56 2020.
