 Gaussian 09, Revision D.01,
 Gaussian 09:  ES64L-G09RevD.01 24-Apr-2013

 -----------------------------
 # b3lyp 6-31G(2df,p) opt Freq
 -----------------------------

 -----
 titel
 -----
 Symbolic Z-matrix:
 Charge =  0 Multiplicity = 1

 SCF Done:  E(RB3LYP) =  -423.138804227     A.U. after   14 cycles
 Optimization completed.
    -- Stationary point found.
 Normal termination of Gaussian 09 at Mon Jan 27 23:05:01 2020.

 ----------------------------------------------------------------------
 #N Geom=AllCheck Guess=TCheck SCRF=Check GenChk RB3LYP/6-31G(2df,p) Fr
 eq
 ----------------------------------------------------------------------

 Structure from the checkpoint file:  "/scratch/puck/g09_e167a4b7-58a2-4720-9dda-f8a6c91243a6/Gau-48929.chk"
 -----
 titel
 -----
 Charge =  0 Multiplicity = 1

                         Standard orientation:
 ---------------------------------------------------------------------
 Center     Atomic      Atomic             Coordinates (Angstroms)
 Number     Number       Type             X           Y           Z
 ---------------------------------------------------------------------
      1          6           0       -2.476350   -0.935522    0.002705
      2          6           0       -0.977388   -0.673859   -0.017938
      3          6           0       -0.487486    0.395488    0.997636
      4          8           0       -0.943262    1.434769    0.059306
      5          6           0       -0.519970    0.464747   -0.957819
      6          6           0        1.014860    0.533411   -0.754595
      7          8           0        1.741072   -0.716581   -0.819466
      8          6           0        1.905634   -0.744699    0.619299
      9          6           0        1.037528    0.517388    0.794329
     10          1           0       -3.034262    0.002589    0.054801
     11          1           0       -2.788779   -1.474400   -0.898002
     12          1           0       -2.752186   -1.549765    0.866669
     13          1           0       -0.411615   -1.604985   -0.082676
     14          1           0       -0.902327    0.493544    2.001395
     15          1           0       -0.942868    0.640881   -1.947047
     16          1           0        1.504818    1.332456   -1.316187
     17          1           0        1.536659   -1.676760    1.064258
     18          1           0        2.956813   -0.606527    0.898556
     19          1           0        1.470295    1.355732    1.337818
 ---------------------------------------------------------------------

 SCF Done:  E(RB3LYP) =  -423.138804227     A.U. after    1 cycles

 The electronic state is 1-A.
 Alpha  occ. eigenvalues --  -19.13826 -19.13595 -10.24094 -10.23526 -10.23417
 Alpha  occ. eigenvalues --  -10.23381 -10.19424 -10.19357 -10.17645  -1.05836
 Alpha  occ. eigenvalues --   -1.02914  -0.78704  -0.75397  -0.72128  -0.66564
 Alpha  occ. eigenvalues --   -0.65148  -0.54579  -0.53496  -0.51824  -0.49934
 Alpha  occ. eigenvalues --   -0.47959  -0.44765  -0.43531  -0.41816  -0.39974
 Alpha  occ. eigenvalues --   -0.38106  -0.37057  -0.36391  -0.32954  -0.31581
 Alpha  occ. eigenvalues --   -0.30555  -0.29809  -0.26542  -0.24409
 Alpha virt. eigenvalues --    0.06982   0.08969   0.09919   0.11158   0.11849
 Alpha virt. eigenvalues --    0.14308   0.14620   0.15006   0.15732   0.17000
 Alpha virt. eigenvalues --    0.17647   0.17982   0.18944   0.19620   0.19937

 Mulliken charges:
               1
     1  C   -0.429868
     2  C    0.019118
     3  C    0.042307
     4  O   -0.305896
     5  C    0.038621
     6  C    0.120764
     7  O   -0.300098
     8  C   -0.112012
     9  C   -0.067209
    10  H    0.135624
    11  H    0.116594
    12  H    0.113369
    13  H    0.090217
    14  H    0.078633
    15  H    0.076869
    16  H    0.084106
    17  H    0.102779
    18  H    0.106637
    19  H    0.089447
 Sum of Mulliken charges =   0.00000

 Dipole moment (field-independent basis, Debye):
    X=              0.0410    Y=             -0.5436    Z=              1.1667  Tot=              1.2878
 Quadrupole moment (field-independent basis, Debye-Ang):
   XX=            -54.1493   YY=            -55.9470   ZZ=            -50.6605
   XY=              3.9222   XZ=              3.1541   YZ=             -2.1711

  Exact polarizability:  82.434   1.751  67.556   2.708  -2.675  70.046
 Approx polarizability: 106.994  -3.669 106.286   1.666  -2.259 109.764

                      1                      2                      3
                      A                      A                      A
 Frequencies --    198.8935               210.7264               237.3346
 Red. masses --      3.3577                 2.3291                 1.1899
 Frc consts  --      0.0783                 0.0609                 0.0395
 IR Inten    --      3.4412                 1.9762                 0.8598

                      4                      5                      6
                      A                      A                      A
 Frequencies --    269.9837               335.2685               399.9183
 Red. masses --      2.3536                 3.5350                 3.1545
 Frc consts  --      0.1011                 0.2341                 0.2972
 IR Inten    --      0.5596                 5.4758                 5.9245

                      7                      8                      9
                      A                      A                      A
 Frequencies --    536.4819               571.3536               668.6936
 Red. masses --      7.1631                 4.1436                 4.5471
 Frc consts  --      1.2147                 0.7970                 1.1980
 IR Inten    --      2.7919                 5.3154                 2.2209

                     10                     11                     12
                      A                      A                      A
 Frequencies --    785.8310               802.6423               846.3092
 Red. masses --      2.8342                 2.1519                 2.7795
 Frc consts  --      1.0312                 0.8168                 1.1729
 IR Inten    --      1.0100                 2.8544                14.2433

                     13                     14                     15
                      A                      A                      A
 Frequencies --    856.1368               876.0490               878.6808
 Red. masses --      3.5426                 1.8379                 2.9702
 Frc consts  --      1.5299                 0.8310                 1.3511
 IR Inten    --     15.3690                 8.6082                21.9227

                     16                     17                     18
                      A                      A                      A
 Frequencies --    936.6070               954.6523               987.3641
 Red. masses --      3.6124                 2.3106                 2.4930
 Frc consts  --      1.8671                 1.2407                 1.4320
 IR Inten    --      8.0752                18.4731                16.3745

                     19                     20                     21
                      A                      A                      A
 Frequencies --   1006.3717              1019.3038              1041.2251
 Red. masses --      4.1264                 4.3118                 1.3510
 Frc consts  --      2.4623                 2.6395                 0.8630
 IR Inten    --     48.7904                27.7549                 7.6047

                     22                     23                     24
                      A                      A                      A
 Frequencies --   1062.3552              1072.0653              1093.1747
 Red. masses --      1.9465                 1.7164                 2.4278
 Frc consts  --      1.2943                 1.1622                 1.7094
 IR Inten    --     12.5100                 5.4066                 6.2620

                     25                     26                     27
                      A                      A                      A
 Frequencies --   1099.2908              1163.7854              1187.0191
 Red. masses --      2.1388                 1.1963                 1.4200
 Frc consts  --      1.5228                 0.9546                 1.1788
 IR Inten    --      3.2174                 2.7886                 2.6714

                     28                     29                     30
                      A                      A                      A
 Frequencies --   1193.8366              1229.5954              1234.9049
 Red. masses --      1.9738                 1.4107                 1.5457
 Frc consts  --      1.6575                 1.2566                 1.3888
 IR Inten    --      4.7850                 1.6274                 1.9010

                     31                     32                     33
                      A                      A                      A
 Frequencies --   1256.6108              1275.8333              1291.5373
 Red. masses --      1.6165                 1.5017                 1.4144
 Frc consts  --      1.5040                 1.4402                 1.3901
 IR Inten    --      1.8096                 2.8722                 2.9925

                     34                     35                     36
                      A                      A                      A
 Frequencies --   1321.3907              1336.0119              1356.4956
 Red. masses --      1.5092                 1.4379                 1.4425
 Frc consts  --      1.5526                 1.5122                 1.5639
 IR Inten    --      4.3989                 1.4818                 2.7995

                     37                     38                     39
                      A                      A                      A
 Frequencies --   1405.8962              1408.0003              1495.6073
 Red. masses --      1.2815                 1.5898                 1.0513
 Frc consts  --      1.4924                 1.8570                 1.3856
 IR Inten    --      4.3787                 0.4199                 3.4584

                     40                     41                     42
                      A                      A                      A
 Frequencies --   1507.1623              1520.1147              3018.0813
 Red. masses --      1.0490                 1.0979                 1.0552
 Frc consts  --      1.4039                 1.4947                 5.6628
 IR Inten    --      3.0751                 0.6851                69.5990

                     43                     44                     45
                      A                      A                      A
 Frequencies --   3035.1935              3061.1314              3081.6484
 Red. masses --      1.0365                 1.1107                 1.0884
 Frc consts  --      5.6260                 6.1319                 6.0897
 IR Inten    --     32.2591                35.0847                33.1680

                     46                     47                     48
                      A                      A                      A
 Frequencies --   3094.5607              3097.3668              3114.5344
 Red. masses --      1.1009                 1.0847                 1.0894
 Frc consts  --      6.2114                 6.1314                 6.2261
 IR Inten    --     19.5637                13.7105                39.7177

                     49                     50                     51
                      A                      A                      A
 Frequencies --   3122.7568              3127.7485              3130.1254
 Red. masses --      1.0906                 1.0992                 1.0921
 Frc consts  --      6.2662                 6.3356                 6.3040
 IR Inten    --     46.6828                19.1390                25.3543

 - Thermochemistry -
 -------------------
 Temperature   298.150 Kelvin.  Pressure   1.00000 Atm.
 Atom     1 has atomic number  6 and mass  12.00000

 Molecular mass:   126.06808 amu.
 Principal axes and moments of inertia in atomic units:
                           1         2         3
     Eigenvalues --   559.687501188.053871266.75619
           X            0.99881   0.04558   0.01715
           Y           -0.04356   0.99365  -0.10377
           Z           -0.02177   0.10290   0.99445
 This molecule is an asymmetric top.
 Rotational symmetry number  1.
 Warning -- assumption of classical behavior for rotation
           may cause significant error
 Rotational temperatures (Kelvin)      0.15475     0.07290     0.06837
 Rotational constants (GHZ):           3.22455     1.51907     1.42469
 Zero-point vibrational energy     423559.8 (Joules/Mol)
                                  101.23321 (Kcal/Mol)
 Warning -- explicit consideration of   8 degrees of freedom as
           vibrations may cause significant error
 Vibrational temperatures:    286.16   303.19   341.47   388.45   482.38
          (Kelvin)            575.39   771.88   822.05   962.10  1130.63
                             1154.82  1217.65  1231.79  1260.44  1264.22
                             1347.57  1373.53  1420.59  1447.94  1466.55
                             1498.09  1528.49  1542.46  1572.83  1581.63
                             1674.43  1707.85  1717.66  1769.11  1776.75
                             1807.98  1835.64  1858.23  1901.18  1922.22
                             1951.69  2022.77  2025.80  2151.84  2168.47
                             2187.10  4342.34  4366.96  4404.28  4433.80
                             4452.38  4456.41  4481.11  4492.94  4500.13
                             4503.55

 Zero-point correction=                           0.161325 (Hartree/Particle)
 Thermal correction to Energy=                    0.168341
 Thermal correction to Enthalpy=                  0.169285
 Thermal correction to Gibbs Free Energy=         0.130223
 Sum of electronic and zero-point Energies=           -422.977479
 Sum of electronic and thermal Energies=              -422.970464
 Sum of electronic and thermal Enthalpies=            -422.969519
 Sum of electronic and thermal Free Energies=         -423.008581

                     E (Thermal)             CV                S
                      KCal/Mol        Cal/Mol-Kelvin    Cal/Mol-Kelvin
 Total                  105.635             28.735             82.212
 Electronic               0.000              0.000              0.000
 Translational            0.889              2.981             40.409
 Rotational               0.889              2.981             28.223
 Vibrational            103.858             22.773             13.580
 Vibration     1          0.637              1.841              2.143
 Vibration     2          0.643              1.824              2.037
 Vibration     3          0.656              1.784              1.823
 Vibration     4          0.674              1.728              1.596
 Vibration     5          0.716              1.605              1.235
 Vibration     6          0.766              1.470              0.963
 Vibration     7          0.891              1.169              0.573
 Vibration     8          0.928              1.093              0.502

 Optimization completed.
    -- Stationary point found.
 Normal termination of Gaussian 09 at Mon Jan 27 23:56:14 2020.
