 Gaussian 09, Revision D.01,
 Gaussian 09:  ES64L-G09RevD.01 24-Apr-2013

 -----------------------------
 # b3lyp 6-31G(2df,p) opt Freq
 -----------------------------

 -----
 titel
 -----
 Symbolic Z-matrix:
 Charge =  0 Multiplicity = 1

 SCF Done:  E(RB3LYP) =  -423.102297239     A.U. after   13 cycles
 Optimization completed.
    -- Stationary point found.
 Normal termination of Gaussian 09 at Mon Jan 27 17:02:28 2020.

 ----------------------------------------------------------------------
 #N Geom=AllCheck Guess=TCheck SCRF=Check GenChk RB3LYP/6-31G(2df,p) Fr
 eq
 ----------------------------------------------------------------------

 Structure from the checkpoint file:  "/scratch/puck/g09_b9472e28-b4e3-4a1c-87cc-b3d709208763/Gau-85693.chk"
 -----
 titel
 -----
 Charge =  0 Multiplicity = 1

                         Standard orientation:
 ---------------------------------------------------------------------
 Center     Atomic      Atomic             Coordinates (Angstroms)
 Number     Number       Type             X           Y           Z
 ---------------------------------------------------------------------
      1          6           0        2.391935   -0.626971   -0.160262
      2          6           0        0.919031   -0.515238    0.062025
      3          6           0        0.000025   -1.135418    1.150251
      4          6           0       -0.919006   -0.515274    0.062027
      5          6           0       -2.391906   -0.627058   -0.160262
      6          8           0        0.000023   -1.091849   -0.963825
      7          6           0       -0.000012    0.717318    0.080370
      8          6           0       -0.000047    2.062624    0.634822
      9          8           0       -0.000042    1.802573   -0.794417
     10          1           0        2.687286   -1.674942   -0.264828
     11          1           0        2.677324   -0.090042   -1.069636
     12          1           0        2.938283   -0.195869    0.684624
     13          1           0        0.000048   -2.226117    1.156527
     14          1           0        0.000018   -0.694791    2.151566
     15          1           0       -2.687214   -1.675037   -0.264870
     16          1           0       -2.938272   -0.196012    0.684641
     17          1           0       -2.677317   -0.090105   -1.069614
     18          1           0       -0.919763    2.498588    1.021854
     19          1           0        0.919645    2.498640    1.021851
 ---------------------------------------------------------------------

 SCF Done:  E(RB3LYP) =  -423.102297239     A.U. after    1 cycles

 The electronic state is 1-A.
 Alpha  occ. eigenvalues --  -19.15465 -19.12611 -10.24861 -10.24858 -10.24394
 Alpha  occ. eigenvalues --  -10.23716 -10.19155 -10.18520 -10.18520  -1.08254
 Alpha  occ. eigenvalues --   -1.04202  -0.78719  -0.76034  -0.72146  -0.66801
 Alpha  occ. eigenvalues --   -0.64869  -0.57307  -0.53297  -0.49063  -0.47728
 Alpha  occ. eigenvalues --   -0.45733  -0.44407  -0.43707  -0.42441  -0.40969
 Alpha  occ. eigenvalues --   -0.40512  -0.37102  -0.35512  -0.34718  -0.33311
 Alpha  occ. eigenvalues --   -0.31664  -0.29744  -0.25870  -0.23589
 Alpha virt. eigenvalues --    0.08504   0.09572   0.10124   0.10850   0.12834
 Alpha virt. eigenvalues --    0.13568   0.13928   0.13998   0.14539   0.15339
 Alpha virt. eigenvalues --    0.16397   0.17820   0.17977   0.18749   0.22270

 Mulliken charges:
               1
     1  C   -0.518520
     2  C    0.286845
     3  C   -0.299707
     4  C    0.286848
     5  C   -0.518521
     6  O   -0.381060
     7  C    0.491807
     8  C   -0.312550
     9  O   -0.287795
    10  H    0.136144
    11  H    0.145124
    12  H    0.125987
    13  H    0.106518
    14  H    0.092202
    15  H    0.136145
    16  H    0.125987
    17  H    0.145124
    18  H    0.119711
    19  H    0.119711
 Sum of Mulliken charges =   0.00000

 Dipole moment (field-independent basis, Debye):
    X=              0.0000    Y=              0.0886    Z=              2.9071  Tot=              2.9084
 Quadrupole moment (field-independent basis, Debye-Ang):
   XX=            -47.7602   YY=            -54.0149   ZZ=            -55.4575
   XY=              0.0001   XZ=             -0.0001   YZ=              1.8220

  Exact polarizability:  83.449   0.000  79.921   0.000   2.560  66.255
 Approx polarizability: 108.642   0.000 114.005   0.000   5.226 110.362

                      1                      2                      3
                      A                      A                      A
 Frequencies --    160.5142               168.9797               175.7364
 Red. masses --      1.3015                 1.7898                 1.3530
 Frc consts  --      0.0198                 0.0301                 0.0246
 IR Inten    --      0.2089                 0.3139                 0.0090

                      4                      5                      6
                      A                      A                      A
 Frequencies --    194.4515               212.7048               238.3574
 Red. masses --      2.2755                 2.4992                 2.8361
 Frc consts  --      0.0507                 0.0666                 0.0949
 IR Inten    --      0.8238                 1.6225                 0.6262

                      7                      8                      9
                      A                      A                      A
 Frequencies --    246.4605               401.5092               475.5741
 Red. masses --      2.9606                 2.9025                 2.6823
 Frc consts  --      0.1060                 0.2757                 0.3574
 IR Inten    --      5.0080                 2.8871                 2.2772

                     10                     11                     12
                      A                      A                      A
 Frequencies --    484.7374               590.1830               602.4092
 Red. masses --      3.8210                 2.7000                 3.7372
 Frc consts  --      0.5290                 0.5541                 0.7991
 IR Inten    --      1.8258                 3.8305                 0.9054

                     13                     14                     15
                      A                      A                      A
 Frequencies --    670.1187               693.2694               736.9716
 Red. masses --      4.4381                 4.5271                 2.8533
 Frc consts  --      1.1742                 1.2820                 0.9131
 IR Inten    --     21.0520                28.1721                18.6099

                     16                     17                     18
                      A                      A                      A
 Frequencies --    751.6109               858.5237               889.1665
 Red. masses --      2.3283                 2.4529                 3.3565
 Frc consts  --      0.7749                 1.0652                 1.5635
 IR Inten    --      0.1204                 5.2528                15.4056

                     19                     20                     21
                      A                      A                      A
 Frequencies --    939.9591               990.7133              1006.9741
 Red. masses --      3.7165                 2.6238                 1.1623
 Frc consts  --      1.9347                 1.5173                 0.6944
 IR Inten    --     15.9232                15.7340                 1.3036

                     22                     23                     24
                      A                      A                      A
 Frequencies --   1050.1696              1052.7430              1075.6377
 Red. masses --      1.6704                 2.5356                 1.5744
 Frc consts  --      1.0854                 1.6557                 1.0732
 IR Inten    --      7.6284                38.2637                 1.0952

                     25                     26                     27
                      A                      A                      A
 Frequencies --   1111.2935              1149.1354              1156.0903
 Red. masses --      1.3067                 1.6050                 1.5872
 Frc consts  --      0.9508                 1.2487                 1.2499
 IR Inten    --      1.3514                 0.2088                 6.0286

                     28                     29                     30
                      A                      A                      A
 Frequencies --   1163.4483              1166.6347              1204.4726
 Red. masses --      2.0805                 1.8784                 2.3288
 Frc consts  --      1.6592                 1.5063                 1.9906
 IR Inten    --      8.2107                13.4987                21.7799

                     31                     32                     33
                      A                      A                      A
 Frequencies --   1295.8779              1359.8457              1408.8389
 Red. masses --      3.1253                 1.9542                 1.4290
 Frc consts  --      3.0922                 2.1291                 1.6711
 IR Inten    --     44.2138                 7.8918                21.2202

                     34                     35                     36
                      A                      A                      A
 Frequencies --   1415.8623              1450.4215              1475.7970
 Red. masses --      1.7159                 1.3347                 1.0449
 Frc consts  --      2.0267                 1.6543                 1.3409
 IR Inten    --      5.3235                 2.6356                 0.0212

                     37                     38                     39
                      A                      A                      A
 Frequencies --   1477.7504              1486.8837              1487.6810
 Red. masses --      1.0731                 1.0456                 1.0615
 Frc consts  --      1.3807                 1.3620                 1.3842
 IR Inten    --      7.2029                 0.9707                10.0809

                     40                     41                     42
                      A                      A                      A
 Frequencies --   1501.0886              1567.3867              3041.3653
 Red. masses --      1.3807                 3.1560                 1.0349
 Frc consts  --      1.8330                 4.5681                 5.6400
 IR Inten    --      1.9940                27.4687                 0.8361

                     43                     44                     45
                      A                      A                      A
 Frequencies --   3041.3965              3055.0981              3085.2238
 Red. masses --      1.0347                 1.0574                 1.0507
 Frc consts  --      5.6394                 5.8146                 5.8927
 IR Inten    --     28.3356                30.9601                20.3914

                     46                     47                     48
                      A                      A                      A
 Frequencies --   3114.2011              3114.2796              3119.7012
 Red. masses --      1.1006                 1.1009                 1.1019
 Frc consts  --      6.2887                 6.2907                 6.3184
 IR Inten    --     22.4695                 0.0109                18.2163

                     49                     50                     51
                      A                      A                      A
 Frequencies --   3119.8199              3144.7144              3171.6174
 Red. masses --      1.1021                 1.1082                 1.1190
 Frc consts  --      6.3203                 6.4571                 6.6318
 IR Inten    --      0.0548                20.0934                17.7248

 - Thermochemistry -
 -------------------
 Temperature   298.150 Kelvin.  Pressure   1.00000 Atm.
 Atom     1 has atomic number  6 and mass  12.00000

 Molecular mass:   126.06808 amu.
 Principal axes and moments of inertia in atomic units:
                           1         2         3
     Eigenvalues --   861.22236 940.982411389.31885
           X            1.00000   0.00002   0.00000
           Y           -0.00002   0.99990   0.01413
           Z            0.00000  -0.01413   0.99990
 This molecule is an asymmetric top.
 Rotational symmetry number  1.
 Warning -- assumption of classical behavior for rotation
           may cause significant error
 Rotational temperatures (Kelvin)      0.10057     0.09205     0.06234
 Rotational constants (GHZ):           2.09556     1.91793     1.29901
 Zero-point vibrational energy     410040.4 (Joules/Mol)
                                   98.00201 (Kcal/Mol)
 Warning -- explicit consideration of  12 degrees of freedom as
           vibrations may cause significant error
 Vibrational temperatures:    230.94   243.12   252.85   279.77   306.03
          (Kelvin)            342.94   354.60   577.68   684.24   697.43
                              849.14   866.73   964.15   997.46  1060.34
                             1081.40  1235.22  1279.31  1352.39  1425.41
                             1448.81  1510.96  1514.66  1547.60  1598.90
                             1653.35  1663.35  1673.94  1678.52  1732.97
                             1864.48  1956.51  2027.00  2037.11  2086.83
                             2123.34  2126.15  2139.29  2140.44  2159.73
                             2255.12  4375.84  4375.89  4395.60  4438.94
                             4480.64  4480.75  4488.55  4488.72  4524.54
                             4563.24

 Zero-point correction=                           0.156176 (Hartree/Particle)
 Thermal correction to Energy=                    0.165010
 Thermal correction to Enthalpy=                  0.165954
 Thermal correction to Gibbs Free Energy=         0.123275
 Sum of electronic and zero-point Energies=           -422.946121
 Sum of electronic and thermal Energies=              -422.937287
 Sum of electronic and thermal Enthalpies=            -422.936343
 Sum of electronic and thermal Free Energies=         -422.979022

                     E (Thermal)             CV                S
                      KCal/Mol        Cal/Mol-Kelvin    Cal/Mol-Kelvin
 Total                  103.545             33.835             89.826
 Electronic               0.000              0.000              0.000
 Translational            0.889              2.981             40.409
 Rotational               0.889              2.981             28.511
 Vibrational            101.768             27.874             20.906
 Vibration     1          0.622              1.891              2.544
 Vibration     2          0.625              1.881              2.447
 Vibration     3          0.628              1.872              2.373
 Vibration     4          0.635              1.848              2.185
 Vibration     5          0.644              1.822              2.020
 Vibration     6          0.656              1.782              1.815
 Vibration     7          0.661              1.769              1.756
 Vibration     8          0.767              1.467              0.957
 Vibration     9          0.832              1.304              0.722
 Vibration    10          0.841              1.284              0.697
 Vibration    11          0.948              1.053              0.467
 Vibration    12          0.961              1.027              0.446

 Optimization completed.
    -- Stationary point found.
 Normal termination of Gaussian 09 at Mon Jan 27 17:48:53 2020.
