 Gaussian 09, Revision D.01,
 Gaussian 09:  ES64L-G09RevD.01 24-Apr-2013

 -----------------------------
 # b3lyp 6-31G(2df,p) opt Freq
 -----------------------------

 -----
 titel
 -----
 Symbolic Z-matrix:
 Charge =  0 Multiplicity = 1

 SCF Done:  E(RB3LYP) =  -423.162515685     A.U. after   14 cycles
 Optimization completed.
    -- Stationary point found.
 Normal termination of Gaussian 09 at Mon Jan 27 16:36:24 2020.

 ----------------------------------------------------------------------
 #N Geom=AllCheck Guess=TCheck SCRF=Check GenChk RB3LYP/6-31G(2df,p) Fr
 eq
 ----------------------------------------------------------------------

 Structure from the checkpoint file:  "/scratch/puck/g09_e2d9cb29-8765-48fa-9fdf-ace1ce3bc0fc/Gau-167518.chk"
 -----
 titel
 -----
 Charge =  0 Multiplicity = 1

                         Standard orientation:
 ---------------------------------------------------------------------
 Center     Atomic      Atomic             Coordinates (Angstroms)
 Number     Number       Type             X           Y           Z
 ---------------------------------------------------------------------
      1          6           0        0.229363    1.889317   -0.107063
      2          6           0       -0.118845    0.415766   -0.237982
      3          8           0        0.996799   -0.226675   -0.923482
      4          6           0        2.102985   -0.484630   -0.218253
      5          8           0        2.284774   -0.261481    0.948419
      6          6           0       -1.484025   -0.063076   -0.807346
      7          6           0       -1.197059   -1.452602   -0.158643
      8          6           0       -0.778870   -0.398701    0.916457
      9          6           0       -2.108742    0.333490    0.564420
     10          1           0        0.488684    2.293272   -1.090538
     11          1           0       -0.592866    2.481019    0.295408
     12          1           0        1.091292    2.009122    0.553343
     13          1           0        2.843769   -0.949603   -0.889224
     14          1           0       -1.881102    0.140396   -1.802732
     15          1           0       -2.078422   -2.049065    0.086437
     16          1           0       -0.413624   -2.061269   -0.605586
     17          1           0       -0.358605   -0.580043    1.903533
     18          1           0       -3.019183   -0.206932    0.830431
     19          1           0       -2.201353    1.390960    0.809896
 ---------------------------------------------------------------------

 SCF Done:  E(RB3LYP) =  -423.162515685     A.U. after    1 cycles

 The electronic state is 1-A.
 Alpha  occ. eigenvalues --  -19.18359 -19.13054 -10.30632 -10.25652 -10.20742
 Alpha  occ. eigenvalues --  -10.20532 -10.19420 -10.19062 -10.17976  -1.10129
 Alpha  occ. eigenvalues --   -1.01937  -0.91686  -0.75068  -0.68387  -0.64925
 Alpha  occ. eigenvalues --   -0.63478  -0.60276  -0.52258  -0.50170  -0.49430
 Alpha  occ. eigenvalues --   -0.48767  -0.46344  -0.42778  -0.42111  -0.40816
 Alpha  occ. eigenvalues --   -0.38163  -0.36700  -0.33740  -0.33139  -0.32779
 Alpha  occ. eigenvalues --   -0.32010  -0.30542  -0.29528  -0.27378
 Alpha virt. eigenvalues --    0.01042   0.10116   0.11457   0.12302   0.12344
 Alpha virt. eigenvalues --    0.13387   0.14195   0.14753   0.15041   0.16142
 Alpha virt. eigenvalues --    0.16689   0.18683   0.19153   0.19841   0.21744

 Mulliken charges:
               1
     1  C   -0.492681
     2  C    0.504201
     3  O   -0.272781
     4  C    0.167779
     5  O   -0.311461
     6  C   -0.105701
     7  C   -0.231448
     8  C   -0.090240
     9  C   -0.246020
    10  H    0.125347
    11  H    0.126250
    12  H    0.150406
    13  H    0.107238
    14  H    0.076037
    15  H    0.093767
    16  H    0.106638
    17  H    0.094297
    18  H    0.100582
    19  H    0.097790
 Sum of Mulliken charges =   0.00000

 Dipole moment (field-independent basis, Debye):
    X=             -1.4670    Y=              0.2395    Z=             -1.1697  Tot=              1.8915
 Quadrupole moment (field-independent basis, Debye-Ang):
   XX=            -53.8950   YY=            -51.2471   ZZ=            -55.4061
   XY=             -0.5760   XZ=             -4.4955   YZ=              0.3593

  Exact polarizability:  85.884  -1.227  72.948  -1.112   1.421  68.099
 Approx polarizability: 115.566  -2.960 103.477   3.474   2.939 116.382

                      1                      2                      3
                      A                      A                      A
 Frequencies --     84.2739               162.0196               186.3780
 Red. masses --      6.2931                 4.0456                 1.0383
 Frc consts  --      0.0263                 0.0626                 0.0213
 IR Inten    --      1.7916                 2.9500                 0.1619

                      4                      5                      6
                      A                      A                      A
 Frequencies --    238.5582               239.5314               356.9523
 Red. masses --      3.4596                 2.4941                 2.9533
 Frc consts  --      0.1160                 0.0843                 0.2217
 IR Inten    --      5.1012                 7.2561                 2.0321

                      7                      8                      9
                      A                      A                      A
 Frequencies --    398.7305               456.4580               532.2018
 Red. masses --      3.0645                 3.5733                 3.5772
 Frc consts  --      0.2871                 0.4387                 0.5970
 IR Inten    --      1.6498                 8.0326                 4.2197

                     10                     11                     12
                      A                      A                      A
 Frequencies --    583.5710               655.7045               754.1755
 Red. masses --      2.3017                 2.9577                 3.6348
 Frc consts  --      0.4618                 0.7492                 1.2181
 IR Inten    --      1.2413                 2.6875                 4.2528

                     13                     14                     15
                      A                      A                      A
 Frequencies --    793.3814               828.4340               881.4026
 Red. masses --      3.1302                 3.6582                 2.2187
 Frc consts  --      1.1609                 1.4792                 1.0155
 IR Inten    --      0.5154                 2.3508                25.0673

                     16                     17                     18
                      A                      A                      A
 Frequencies --    900.5883               903.4955               911.7235
 Red. masses --      1.9844                 2.1685                 3.0428
 Frc consts  --      0.9483                 1.0429                 1.4902
 IR Inten    --      0.3065                 6.2514                 4.5801

                     19                     20                     21
                      A                      A                      A
 Frequencies --   1005.2188              1014.9833              1026.3178
 Red. masses --      1.3921                 1.0153                 1.0690
 Frc consts  --      0.8288                 0.6163                 0.6634
 IR Inten    --      1.5472                 0.0117                 5.7515

                     22                     23                     24
                      A                      A                      A
 Frequencies --   1046.2863              1069.1529              1091.4301
 Red. masses --      1.6641                 1.8699                 1.3872
 Frc consts  --      1.0733                 1.2594                 0.9736
 IR Inten    --      0.7773                12.8656                 1.2097

                     25                     26                     27
                      A                      A                      A
 Frequencies --   1110.6795              1145.0149              1153.3687
 Red. masses --      2.0521                 2.3109                 1.9700
 Frc consts  --      1.4915                 1.7851                 1.5440
 IR Inten    --     19.4619                68.6361                40.0929

                     28                     29                     30
                      A                      A                      A
 Frequencies --   1190.1025              1196.1057              1210.1722
 Red. masses --      1.5941                 1.4093                 4.2732
 Frc consts  --      1.3302                 1.1879                 3.6872
 IR Inten    --     12.7459                 3.7110               258.4538

                     31                     32                     33
                      A                      A                      A
 Frequencies --   1214.1643              1247.3813              1250.5056
 Red. masses --      2.3643                 1.7998                 1.8004
 Frc consts  --      2.0535                 1.6499                 1.6588
 IR Inten    --     42.5398                 1.9356                13.1873

                     34                     35                     36
                      A                      A                      A
 Frequencies --   1306.7270              1410.1720              1413.0998
 Red. masses --      2.8289                 1.2141                 1.1961
 Frc consts  --      2.8460                 1.4225                 1.4073
 IR Inten    --     22.7613                 7.0125                 9.0892

                     37                     38                     39
                      A                      A                      A
 Frequencies --   1485.7916              1497.6060              1514.5256
 Red. masses --      1.0555                 1.0650                 1.0795
 Frc consts  --      1.3729                 1.4073                 1.4589
 IR Inten    --      5.3533                 2.9460                 3.5229

                     40                     41                     42
                      A                      A                      A
 Frequencies --   1547.1199              1812.3802              3014.1958
 Red. masses --      1.1227                 9.6441                 1.0893
 Frc consts  --      1.5832                18.6643                 5.8311
 IR Inten    --      4.7223               233.0152                78.1076

                     43                     44                     45
                      A                      A                      A
 Frequencies --   3055.1905              3077.9618              3080.0919
 Red. masses --      1.0391                 1.0593                 1.0575
 Frc consts  --      5.7148                 5.9129                 5.9107
 IR Inten    --     15.8593                36.6783                32.7844

                     46                     47                     48
                      A                      A                      A
 Frequencies --   3108.1195              3123.7903              3139.1903
 Red. masses --      1.0911                 1.0988                 1.1059
 Frc consts  --      6.2102                 6.3176                 6.4210
 IR Inten    --     56.3879                 9.4440                29.4484

                     49                     50                     51
                      A                      A                      A
 Frequencies --   3141.5908              3154.3692              3159.6144
 Red. masses --      1.0946                 1.0995                 1.1056
 Frc consts  --      6.3652                 6.4455                 6.5032
 IR Inten    --     20.9264                25.7841                25.2202

 - Thermochemistry -
 -------------------
 Temperature   298.150 Kelvin.  Pressure   1.00000 Atm.
 Atom     1 has atomic number  6 and mass  12.00000

 Molecular mass:   126.06808 amu.
 Principal axes and moments of inertia in atomic units:
                           1         2         3
     Eigenvalues --   599.786501256.891481410.97774
           X            0.99980   0.00925  -0.01795
           Y           -0.00891   0.99978   0.01905
           Z            0.01813  -0.01889   0.99966
 This molecule is an asymmetric top.
 Rotational symmetry number  1.
 Warning -- assumption of classical behavior for rotation
           may cause significant error
 Rotational temperatures (Kelvin)      0.14441     0.06891     0.06139
 Rotational constants (GHZ):           3.00897     1.43588     1.27907
 Zero-point vibrational energy     417975.2 (Joules/Mol)
                                   99.89847 (Kcal/Mol)
 Warning -- explicit consideration of  10 degrees of freedom as
           vibrations may cause significant error
 Vibrational temperatures:    121.25   233.11   268.16   343.23   344.63
          (Kelvin)            513.57   573.68   656.74   765.72   839.63
                              943.41  1085.09  1141.50  1191.93  1268.14
                             1295.74  1299.93  1311.77  1446.28  1460.33
                             1476.64  1505.37  1538.27  1570.32  1598.02
                             1647.42  1659.44  1712.29  1720.93  1741.17
                             1746.91  1794.70  1799.20  1880.09  2028.92
                             2033.13  2137.72  2154.72  2179.06  2225.96
                             2607.61  4336.75  4395.73  4428.49  4431.56
                             4471.89  4494.43  4516.59  4520.04  4538.43
                             4545.97

 Zero-point correction=                           0.159198 (Hartree/Particle)
 Thermal correction to Energy=                    0.167284
 Thermal correction to Enthalpy=                  0.168228
 Thermal correction to Gibbs Free Energy=         0.126630
 Sum of electronic and zero-point Energies=           -423.003317
 Sum of electronic and thermal Energies=              -422.995232
 Sum of electronic and thermal Enthalpies=            -422.994288
 Sum of electronic and thermal Free Energies=         -423.035886

                     E (Thermal)             CV                S
                      KCal/Mol        Cal/Mol-Kelvin    Cal/Mol-Kelvin
 Total                  104.972             31.357             87.551
 Electronic               0.000              0.000              0.000
 Translational            0.889              2.981             40.409
 Rotational               0.889              2.981             28.455
 Vibrational            103.195             25.396             18.687
 Vibration     1          0.601              1.960              3.789
 Vibration     2          0.622              1.889              2.526
 Vibration     3          0.632              1.858              2.264
 Vibration     4          0.657              1.782              1.814
 Vibration     5          0.657              1.780              1.806
 Vibration     6          0.732              1.561              1.135
 Vibration     7          0.765              1.473              0.967
 Vibration     8          0.815              1.347              0.776
 Vibration     9          0.887              1.179              0.582
 Vibration    10          0.940              1.067              0.479

 Optimization completed.
    -- Stationary point found.
 Normal termination of Gaussian 09 at Mon Jan 27 17:23:35 2020.
