 Gaussian 09, Revision D.01,
 Gaussian 09:  ES64L-G09RevD.01 24-Apr-2013

 -----------------------------
 # b3lyp 6-31G(2df,p) opt Freq
 -----------------------------

 -----
 titel
 -----
 Symbolic Z-matrix:
 Charge =  0 Multiplicity = 1

 SCF Done:  E(RB3LYP) =  -423.108709995     A.U. after   12 cycles
 Optimization completed.
    -- Stationary point found.
 Normal termination of Gaussian 09 at Mon Jan 27 16:23:48 2020.

 ----------------------------------------------------------------------
 #N Geom=AllCheck Guess=TCheck SCRF=Check GenChk RB3LYP/6-31G(2df,p) Fr
 eq
 ----------------------------------------------------------------------

 Structure from the checkpoint file:  "/scratch/puck/g09_76e82d62-89ce-415b-a4da-fd288cf4ae6f/Gau-37128.chk"
 -----
 titel
 -----
 Charge =  0 Multiplicity = 1

                         Standard orientation:
 ---------------------------------------------------------------------
 Center     Atomic      Atomic             Coordinates (Angstroms)
 Number     Number       Type             X           Y           Z
 ---------------------------------------------------------------------
      1          8           0        1.292294    1.486314    0.009939
      2          6           0        1.262611    0.079342    0.008103
      3          6           0        2.311809   -0.690676   -0.749453
      4          6           0        2.307257   -0.691496    0.773447
      5          6           0       -0.153679   -0.405914   -0.002361
      6          6           0       -1.187902    0.388255    0.779973
      7          6           0       -2.538801   -0.302731    0.646063
      8          8           0       -2.423057   -0.338736   -0.805317
      9          6           0       -1.194791    0.392207   -0.730455
     10          1           0        2.207208    1.777778   -0.038512
     11          1           0        2.021789   -1.595835   -1.272200
     12          1           0        3.089830   -0.122079   -1.250568
     13          1           0        2.014476   -1.598091    1.292197
     14          1           0        3.080992   -0.121620    1.279290
     15          1           0       -0.250429   -1.489346   -0.036336
     16          1           0       -0.920655    1.169784    1.475904
     17          1           0       -2.649707   -1.304257    1.080251
     18          1           0       -3.386095    0.325134    0.945187
     19          1           0       -1.000328    1.163995   -1.464088
 ---------------------------------------------------------------------

 SCF Done:  E(RB3LYP) =  -423.108709995     A.U. after    1 cycles

 The electronic state is 1-A.
 Alpha  occ. eigenvalues --  -19.14891 -19.12931 -10.24866 -10.22924 -10.22914
 Alpha  occ. eigenvalues --  -10.19196 -10.18802 -10.18729 -10.18710  -1.04356
 Alpha  occ. eigenvalues --   -1.03416  -0.85337  -0.82108  -0.69557  -0.64092
 Alpha  occ. eigenvalues --   -0.60996  -0.57499  -0.54111  -0.51502  -0.51379
 Alpha  occ. eigenvalues --   -0.47205  -0.46301  -0.44295  -0.39735  -0.39006
 Alpha  occ. eigenvalues --   -0.38976  -0.37762  -0.37459  -0.33277  -0.31462
 Alpha  occ. eigenvalues --   -0.29627  -0.27195  -0.24677  -0.21829
 Alpha virt. eigenvalues --    0.06178   0.08582   0.09856   0.11602   0.12630
 Alpha virt. eigenvalues --    0.13152   0.13453   0.14637   0.15386   0.16822
 Alpha virt. eigenvalues --    0.18979   0.19443   0.20449   0.21695   0.22521

 Mulliken charges:
               1
     1  O   -0.473494
     2  C    0.398764
     3  C   -0.331239
     4  C   -0.326034
     5  C   -0.079302
     6  C   -0.140052
     7  C   -0.102435
     8  O   -0.296993
     9  C    0.093204
    10  H    0.284008
    11  H    0.122185
    12  H    0.107420
    13  H    0.119154
    14  H    0.107339
    15  H    0.085550
    16  H    0.110037
    17  H    0.100590
    18  H    0.108172
    19  H    0.113125
 Sum of Mulliken charges =   0.00000

 Dipole moment (field-independent basis, Debye):
    X=              2.2855    Y=              0.2232    Z=              1.1222  Tot=              2.5559
 Quadrupole moment (field-independent basis, Debye-Ang):
   XX=            -50.7576   YY=            -51.8825   ZZ=            -53.5892
   XY=              1.5229   XZ=             -4.4506   YZ=             -1.1706

  Exact polarizability:  92.069  -0.934  67.869  -3.929  -1.219  67.701
 Approx polarizability: 115.646  -1.164 103.079  -2.556  -0.938 106.656

                      1                      2                      3
                      A                      A                      A
 Frequencies --     59.6120               117.4897               152.0116
 Red. masses --      3.4608                 1.0831                 3.3473
 Frc consts  --      0.0072                 0.0088                 0.0456
 IR Inten    --     13.0952                79.9516                 0.1043

                      4                      5                      6
                      A                      A                      A
 Frequencies --    161.6472               298.5102               317.5830
 Red. masses --      3.4913                 4.1906                 2.3877
 Frc consts  --      0.0537                 0.2200                 0.1419
 IR Inten    --      1.3722                 3.0981                 1.6318

                      7                      8                      9
                      A                      A                      A
 Frequencies --    349.6539               385.3092               471.5016
 Red. masses --      2.3951                 4.1678                 3.1022
 Frc consts  --      0.1725                 0.3646                 0.4063
 IR Inten    --      2.0517                 6.2659                 9.3352

                     10                     11                     12
                      A                      A                      A
 Frequencies --    522.1885               738.6042               755.1167
 Red. masses --      3.5426                 2.8463                 1.1649
 Frc consts  --      0.5691                 0.9149                 0.3914
 IR Inten    --      0.4517                11.9702                 4.1326

                     13                     14                     15
                      A                      A                      A
 Frequencies --    790.3112               832.4090               860.1202
 Red. masses --      1.9488                 2.2258                 1.7937
 Frc consts  --      0.7172                 0.9087                 0.7818
 IR Inten    --     12.9699                 5.7435                10.3854

                     16                     17                     18
                      A                      A                      A
 Frequencies --    900.4662               917.7433               950.2456
 Red. masses --      1.9489                 1.9895                 3.4147
 Frc consts  --      0.9311                 0.9873                 1.8167
 IR Inten    --      9.1286                20.8308                 0.6457

                     19                     20                     21
                      A                      A                      A
 Frequencies --    959.3456               978.2777               989.6901
 Red. masses --      5.0111                 1.7832                 2.7603
 Frc consts  --      2.7173                 1.0055                 1.5930
 IR Inten    --     19.1303                 2.3296                74.6761

                     22                     23                     24
                      A                      A                      A
 Frequencies --   1001.5497              1021.1447              1040.6341
 Red. masses --      1.6329                 2.1426                 1.6999
 Frc consts  --      0.9650                 1.3163                 1.0846
 IR Inten    --      8.6003                 4.5678                 6.3055

                     25                     26                     27
                      A                      A                      A
 Frequencies --   1053.5052              1063.1304              1085.8244
 Red. masses --      1.6606                 1.4657                 1.7072
 Frc consts  --      1.0859                 0.9760                 1.1859
 IR Inten    --     10.3802                 0.9424                26.3460

                     28                     29                     30
                      A                      A                      A
 Frequencies --   1102.2892              1157.5695              1180.1160
 Red. masses --      1.7931                 1.1793                 1.4853
 Frc consts  --      1.2836                 0.9310                 1.2188
 IR Inten    --      7.1927                 3.0251                59.3563

                     31                     32                     33
                      A                      A                      A
 Frequencies --   1184.0972              1189.4857              1239.5396
 Red. masses --      1.2826                 1.8830                 1.3838
 Frc consts  --      1.0595                 1.5697                 1.2527
 IR Inten    --      0.3500                 8.4159                 7.3695

                     34                     35                     36
                      A                      A                      A
 Frequencies --   1248.5283              1310.7170              1336.5392
 Red. masses --      1.7237                 2.4885                 1.6471
 Frc consts  --      1.5831                 2.5189                 1.7336
 IR Inten    --     46.7089                32.3077                 8.8549

                     37                     38                     39
                      A                      A                      A
 Frequencies --   1388.5660              1458.6530              1466.5772
 Red. masses --      2.0263                 1.0896                 1.6794
 Frc consts  --      2.3019                 1.3659                 2.1282
 IR Inten    --      4.7907                 1.3712                 9.7778

                     40                     41                     42
                      A                      A                      A
 Frequencies --   1505.5592              1515.4139              3016.2742
 Red. masses --      1.9178                 1.1201                 1.0548
 Frc consts  --      2.5612                 1.5156                 5.6543
 IR Inten    --     35.8718                 4.5270                88.2485

                     43                     44                     45
                      A                      A                      A
 Frequencies --   3064.7029              3120.3208              3122.5740
 Red. masses --      1.1110                 1.0516                 1.0745
 Frc consts  --      6.1483                 6.0325                 6.1726
 IR Inten    --     40.7123                16.1540                 5.5732

                     46                     47                     48
                      A                      A                      A
 Frequencies --   3126.7913              3198.2112              3201.3425
 Red. masses --      1.0723                 1.0916                 1.1178
 Frc consts  --      6.1769                 6.5784                 6.7493
 IR Inten    --     11.2773                12.6969                 0.2287

                     49                     50                     51
                      A                      A                      A
 Frequencies --   3216.3243              3226.1636              3837.4556
 Red. masses --      1.1151                 1.0956                 1.0663
 Frc consts  --      6.7963                 6.7187                 9.2513
 IR Inten    --     16.5581                 4.5609                20.9512

 - Thermochemistry -
 -------------------
 Temperature   298.150 Kelvin.  Pressure   1.00000 Atm.
 Atom     1 has atomic number  8 and mass  15.99491

 Molecular mass:   126.06808 amu.
 Principal axes and moments of inertia in atomic units:
                           1         2         3
     Eigenvalues --   451.416051742.949231795.99755
           X            0.99985  -0.00895  -0.01481
           Y            0.00782   0.99718  -0.07463
           Z            0.01544   0.07451   0.99710
 This molecule is an asymmetric top.
 Rotational symmetry number  1.
 Warning -- assumption of classical behavior for rotation
           may cause significant error
 Rotational temperatures (Kelvin)      0.19187     0.04969     0.04823
 Rotational constants (GHZ):           3.99796     1.03545     1.00487
 Zero-point vibrational energy     413832.8 (Joules/Mol)
                                   98.90841 (Kcal/Mol)
 Warning -- explicit consideration of  10 degrees of freedom as
           vibrations may cause significant error
 Vibrational temperatures:     85.77   169.04   218.71   232.57   429.49
          (Kelvin)            456.93   503.07   554.37   678.38   751.31
                             1062.69  1086.44  1137.08  1197.65  1237.52
                             1295.57  1320.43  1367.19  1380.28  1407.52
                             1423.94  1441.00  1469.20  1497.24  1515.76
                             1529.61  1562.26  1585.95  1665.48  1697.92
                             1703.65  1711.40  1783.42  1796.35  1885.83
                             1922.98  1997.83  2098.67  2110.07  2166.16
                             2180.34  4339.74  4409.42  4489.44  4492.68
                             4498.75  4601.51  4606.01  4627.57  4641.72
                             5521.24

 Zero-point correction=                           0.157621 (Hartree/Particle)
 Thermal correction to Energy=                    0.166230
 Thermal correction to Enthalpy=                  0.167174
 Thermal correction to Gibbs Free Energy=         0.123997
 Sum of electronic and zero-point Energies=           -422.951089
 Sum of electronic and thermal Energies=              -422.942480
 Sum of electronic and thermal Enthalpies=            -422.941536
 Sum of electronic and thermal Free Energies=         -422.984713

                     E (Thermal)             CV                S
                      KCal/Mol        Cal/Mol-Kelvin    Cal/Mol-Kelvin
 Total                  104.311             32.706             90.875
 Electronic               0.000              0.000              0.000
 Translational            0.889              2.981             40.409
 Rotational               0.889              2.981             28.737
 Vibrational            102.534             26.745             21.729
 Vibration     1          0.597              1.974              4.470
 Vibration     2          0.608              1.935              3.141
 Vibration     3          0.619              1.900              2.647
 Vibration     4          0.622              1.889              2.530
 Vibration     5          0.692              1.676              1.425
 Vibration     6          0.704              1.640              1.323
 Vibration     7          0.727              1.576              1.168
 Vibration     8          0.754              1.502              1.018
 Vibration     9          0.828              1.313              0.733
 Vibration    10          0.877              1.201              0.605

 Optimization completed.
    -- Stationary point found.
 Normal termination of Gaussian 09 at Mon Jan 27 17:16:24 2020.
