 Gaussian 09, Revision D.01,
 Gaussian 09:  ES64L-G09RevD.01 24-Apr-2013

 -----------------------------
 # b3lyp 6-31G(2df,p) opt Freq
 -----------------------------

 -----
 titel
 -----
 Symbolic Z-matrix:
 Charge =  0 Multiplicity = 1

 SCF Done:  E(RB3LYP) =  -423.227456776     A.U. after   14 cycles
 Optimization completed.
    -- Stationary point found.
 Normal termination of Gaussian 09 at Tue Jan 28 11:45:01 2020.

 ----------------------------------------------------------------------
 #N Geom=AllCheck Guess=TCheck SCRF=Check GenChk RB3LYP/6-31G(2df,p) Fr
 eq
 ----------------------------------------------------------------------

 Structure from the checkpoint file:  "/scratch/puck/g09_b7ff46e6-f65f-4650-af30-b4cfaf74779c/Gau-89516.chk"
 -----
 titel
 -----
 Charge =  0 Multiplicity = 1

                         Standard orientation:
 ---------------------------------------------------------------------
 Center     Atomic      Atomic             Coordinates (Angstroms)
 Number     Number       Type             X           Y           Z
 ---------------------------------------------------------------------
      1          6           0        2.976800   -0.080666    0.366601
      2          6           0        1.562774    0.295156    0.065443
      3          6           0        0.987027    1.506298    0.030269
      4          6           0       -0.478645    1.479341   -0.319603
      5          6           0       -0.799757   -0.018779   -0.490510
      6          6           0       -1.863442   -0.549238    0.482153
      7          8           0       -3.124564    0.077590    0.317720
      8          6           0        0.542123   -0.733326   -0.256490
      9          8           0        0.719604   -1.931373   -0.305735
     10          1           0        3.419029   -0.621756   -0.477065
     11          1           0        3.593337    0.795099    0.583438
     12          1           0        3.020383   -0.762369    1.222973
     13          1           0        1.506770    2.438637    0.230991
     14          1           0       -1.092686    1.940252    0.463414
     15          1           0       -0.675327    2.058773   -1.229929
     16          1           0       -1.128593   -0.247049   -1.512121
     17          1           0       -1.926330   -1.640863    0.379029
     18          1           0       -1.559760   -0.332819    1.512753
     19          1           0       -3.478428   -0.190359   -0.536543
 ---------------------------------------------------------------------

 SCF Done:  E(RB3LYP) =  -423.227456776     A.U. after    1 cycles

 The electronic state is 1-A.
 Alpha  occ. eigenvalues --  -19.13976 -19.12160 -10.25778 -10.23163 -10.20617
 Alpha  occ. eigenvalues --  -10.19572 -10.19557 -10.19304 -10.18605  -1.03092
 Alpha  occ. eigenvalues --   -1.02010  -0.85464  -0.77090  -0.71738  -0.66590
 Alpha  occ. eigenvalues --   -0.64488  -0.57300  -0.50768  -0.49704  -0.48162
 Alpha  occ. eigenvalues --   -0.46931  -0.44102  -0.42349  -0.41730  -0.39958
 Alpha  occ. eigenvalues --   -0.38350  -0.38173  -0.37281  -0.36311  -0.35577
 Alpha  occ. eigenvalues --   -0.32463  -0.27598  -0.26111  -0.23599
 Alpha virt. eigenvalues --   -0.04105   0.05525   0.07315   0.10562   0.11845
 Alpha virt. eigenvalues --    0.12865   0.13416   0.15013   0.16437   0.16978
 Alpha virt. eigenvalues --    0.17603   0.18225   0.19929   0.21318   0.23121

 Mulliken charges:
               1
     1  C   -0.492020
     2  C    0.212002
     3  C   -0.153878
     4  C   -0.280472
     5  C   -0.135070
     6  C   -0.070698
     7  O   -0.419192
     8  C    0.321292
     9  O   -0.344139
    10  H    0.142449
    11  H    0.120616
    12  H    0.142832
    13  H    0.106464
    14  H    0.130590
    15  H    0.116526
    16  H    0.091885
    17  H    0.114053
    18  H    0.113989
    19  H    0.282770
 Sum of Mulliken charges =   0.00000

 Dipole moment (field-independent basis, Debye):
    X=              0.2848    Y=              2.2972    Z=             -0.8473  Tot=              2.4650
 Quadrupole moment (field-independent basis, Debye-Ang):
   XX=            -52.1198   YY=            -57.0494   ZZ=            -51.5147
   XY=              4.9334   XZ=              5.4938   YZ=             -0.8337

  Exact polarizability:  92.238  -4.200  87.381   5.092   0.447  57.219
 Approx polarizability: 116.779 -13.762 154.585   5.901   3.180  89.416

                      1                      2                      3
                      A                      A                      A
 Frequencies --     45.7501               100.7485               114.2635
 Red. masses --      3.9832                 1.0548                 2.6391
 Frc consts  --      0.0049                 0.0063                 0.0203
 IR Inten    --      1.8514                 0.6146                 4.8087

                      4                      5                      6
                      A                      A                      A
 Frequencies --    165.6669               222.8730               255.6301
 Red. masses --      4.0308                 2.5544                 3.2677
 Frc consts  --      0.0652                 0.0748                 0.1258
 IR Inten    --      4.1811                 1.4857                 3.3536

                      7                      8                      9
                      A                      A                      A
 Frequencies --    298.8660               310.2371               364.1781
 Red. masses --      2.3592                 1.3512                 3.6893
 Frc consts  --      0.1242                 0.0766                 0.2883
 IR Inten    --     28.3547                70.3264                 9.2905

                     10                     11                     12
                      A                      A                      A
 Frequencies --    432.0718               521.1783               629.0271
 Red. masses --      2.4149                 3.4465                 4.4151
 Frc consts  --      0.2656                 0.5516                 1.0293
 IR Inten    --     13.5773                 7.9156                 5.8302

                     13                     14                     15
                      A                      A                      A
 Frequencies --    678.0559               707.6902               810.4311
 Red. masses --      4.7871                 4.2330                 2.5735
 Frc consts  --      1.2967                 1.2491                 0.9959
 IR Inten    --      2.2044                 0.6945                 6.6991

                     16                     17                     18
                      A                      A                      A
 Frequencies --    843.5509               887.7670               933.3953
 Red. masses --      1.7413                 2.3548                 1.4293
 Frc consts  --      0.7301                 1.0935                 0.7337
 IR Inten    --     13.5720                 2.8487                 5.7748

                     19                     20                     21
                      A                      A                      A
 Frequencies --    950.4872              1023.6817              1041.0930
 Red. masses --      1.8714                 1.8722                 2.2179
 Frc consts  --      0.9961                 1.1559                 1.4164
 IR Inten    --      1.8089                44.0398                47.0976

                     22                     23                     24
                      A                      A                      A
 Frequencies --   1068.7216              1079.4475              1090.7772
 Red. masses --      1.5289                 2.8577                 3.3900
 Frc consts  --      1.0288                 1.9619                 2.3764
 IR Inten    --      3.9203                13.6574                60.4984

                     25                     26                     27
                      A                      A                      A
 Frequencies --   1095.8955              1144.8029              1198.5344
 Red. masses --      2.2101                 1.1203                 1.4841
 Frc consts  --      1.5639                 0.8650                 1.2561
 IR Inten    --     18.4643                26.2375                 5.9662

                     28                     29                     30
                      A                      A                      A
 Frequencies --   1235.4215              1257.3524              1318.1148
 Red. masses --      1.4831                 1.7087                 1.6539
 Frc consts  --      1.3336                 1.5916                 1.6931
 IR Inten    --     17.4335                 5.6268                 8.3619

                     31                     32                     33
                      A                      A                      A
 Frequencies --   1334.1385              1353.2951              1382.8984
 Red. masses --      1.7203                 2.0179                 1.2871
 Frc consts  --      1.8041                 2.1773                 1.4503
 IR Inten    --     17.3365                20.1255                 0.6421

                     34                     35                     36
                      A                      A                      A
 Frequencies --   1414.3726              1416.2334              1473.4726
 Red. masses --      1.2835                 1.2039                 1.0432
 Frc consts  --      1.5128                 1.4227                 1.3345
 IR Inten    --      1.5875                57.1376                 5.9206

                     37                     38                     39
                      A                      A                      A
 Frequencies --   1478.3287              1484.8670              1507.9347
 Red. masses --      1.0944                 1.0583                 1.0901
 Frc consts  --      1.4091                 1.3748                 1.4604
 IR Inten    --      2.9649                 9.5745                 1.4157

                     40                     41                     42
                      A                      A                      A
 Frequencies --   1698.0571              1796.4890              3016.1509
 Red. masses --      6.9973                12.6584                 1.0608
 Frc consts  --     11.8874                24.0701                 5.6860
 IR Inten    --     13.8572               222.7593                32.0991

                     43                     44                     45
                      A                      A                      A
 Frequencies --   3026.0904              3035.7193              3036.9743
 Red. masses --      1.0762                 1.0686                 1.0361
 Frc consts  --      5.8062                 5.8022                 5.6302
 IR Inten    --      9.7854                15.7067                19.5390

                     46                     47                     48
                      A                      A                      A
 Frequencies --   3058.8564              3074.2145              3090.6364
 Red. masses --      1.1007                 1.1027                 1.0986
 Frc consts  --      6.0678                 6.1401                 6.1826
 IR Inten    --      8.1908                35.2785                10.0496

                     49                     50                     51
                      A                      A                      A
 Frequencies --   3122.2851              3178.4598              3813.8163
 Red. masses --      1.1022                 1.0935                 1.0662
 Frc consts  --      6.3305                 6.5086                 9.1367
 IR Inten    --     13.8995                14.7201                21.3326

 - Thermochemistry -
 -------------------
 Temperature   298.150 Kelvin.  Pressure   1.00000 Atm.
 Atom     1 has atomic number  6 and mass  12.00000

 Molecular mass:   126.06808 amu.
 Principal axes and moments of inertia in atomic units:
                           1         2         3
     Eigenvalues --   586.514351594.070772028.47205
           X            0.99985   0.01171   0.01295
           Y           -0.01151   0.99982  -0.01491
           Z           -0.01312   0.01476   0.99980
 This molecule is an asymmetric top.
 Rotational symmetry number  1.
 Warning -- assumption of classical behavior for rotation
           may cause significant error
 Rotational temperatures (Kelvin)      0.14768     0.05433     0.04270
 Rotational constants (GHZ):           3.07706     1.13216     0.88970
 Zero-point vibrational energy     416414.1 (Joules/Mol)
                                   99.52536 (Kcal/Mol)
 Warning -- explicit consideration of  11 degrees of freedom as
           vibrations may cause significant error
 Vibrational temperatures:     65.82   144.95   164.40   238.36   320.66
          (Kelvin)            367.79   430.00   446.36   523.97   621.65
                              749.86   905.03   975.57  1018.21  1166.03
                             1213.68  1277.30  1342.95  1367.54  1472.85
                             1497.90  1537.65  1553.08  1569.38  1576.75
                             1647.11  1724.42  1777.49  1809.05  1896.47
                             1919.53  1947.09  1989.68  2034.96  2037.64
                             2120.00  2126.98  2136.39  2169.58  2443.12
                             2584.74  4339.56  4353.86  4367.72  4369.52
                             4401.01  4423.10  4446.73  4492.27  4573.09
                             5487.22

 Zero-point correction=                           0.158604 (Hartree/Particle)
 Thermal correction to Energy=                    0.167985
 Thermal correction to Enthalpy=                  0.168929
 Thermal correction to Gibbs Free Energy=         0.123749
 Sum of electronic and zero-point Energies=           -423.068853
 Sum of electronic and thermal Energies=              -423.059472
 Sum of electronic and thermal Enthalpies=            -423.058528
 Sum of electronic and thermal Free Energies=         -423.103708

                     E (Thermal)             CV                S
                      KCal/Mol        Cal/Mol-Kelvin    Cal/Mol-Kelvin
 Total                  105.412             33.785             95.089
 Electronic               0.000              0.000              0.000
 Translational            0.889              2.981             40.409
 Rotational               0.889              2.981             29.030
 Vibrational            103.635             27.823             25.651
 Vibration     1          0.595              1.979              4.993
 Vibration     2          0.604              1.949              3.440
 Vibration     3          0.607              1.938              3.195
 Vibration     4          0.624              1.885              2.484
 Vibration     5          0.649              1.806              1.936
 Vibration     6          0.666              1.753              1.691
 Vibration     7          0.692              1.676              1.423
 Vibration     8          0.699              1.654              1.361
 Vibration     9          0.738              1.546              1.104
 Vibration    10          0.793              1.400              0.852
 Vibration    11          0.876              1.203              0.607

 Normal termination of Gaussian 09 at Tue Jan 28 13:18:09 2020.
