 Gaussian 09, Revision D.01,
 Gaussian 09:  ES64L-G09RevD.01 24-Apr-2013

 -----------------------------
 # b3lyp 6-31G(2df,p) opt Freq
 -----------------------------

 -----
 titel
 -----
 Symbolic Z-matrix:
 Charge =  0 Multiplicity = 1

 SCF Done:  E(RB3LYP) =  -423.177348855     A.U. after   14 cycles
 Optimization completed.
    -- Stationary point found.
 Normal termination of Gaussian 09 at Tue Jan 28 11:58:28 2020.

 ----------------------------------------------------------------------
 #N Geom=AllCheck Guess=TCheck SCRF=Check GenChk RB3LYP/6-31G(2df,p) Fr
 eq
 ----------------------------------------------------------------------

 Structure from the checkpoint file:  "/scratch/puck/g09_98d3fc39-4ebc-4778-9956-956db767509a/Gau-138512.chk"
 -----
 titel
 -----
 Charge =  0 Multiplicity = 1

                         Standard orientation:
 ---------------------------------------------------------------------
 Center     Atomic      Atomic             Coordinates (Angstroms)
 Number     Number       Type             X           Y           Z
 ---------------------------------------------------------------------
      1          6           0       -2.927890   -0.339747    0.248311
      2          8           0       -1.982932    0.657333   -0.094653
      3          6           0       -0.667421    0.311027    0.183464
      4          8           0       -0.292586   -0.791220   -0.644221
      5          6           0        0.697554   -1.632467   -0.102047
      6          6           0        2.019913   -0.994971    0.216637
      7          6           0        2.364336    0.301594    0.185429
      8          6           0        1.527517    1.469159   -0.082651
      9          6           0        0.190864    1.514699   -0.084797
     10          1           0       -2.868904   -0.591146    1.318686
     11          1           0       -3.915423    0.074127    0.034740
     12          1           0       -2.779477   -1.252437   -0.338348
     13          1           0       -0.566781   -0.013292    1.239897
     14          1           0        0.328896   -2.160254    0.797935
     15          1           0        0.855181   -2.408309   -0.862904
     16          1           0        2.789437   -1.718661    0.482060
     17          1           0        3.404940    0.532855    0.402976
     18          1           0        2.068624    2.394668   -0.263288
     19          1           0       -0.341577    2.437784   -0.286836
 ---------------------------------------------------------------------

 SCF Done:  E(RB3LYP) =  -423.177348855     A.U. after    1 cycles

 The electronic state is 1-A.
 Alpha  occ. eigenvalues --  -19.14555 -19.14086 -10.27795 -10.23797 -10.22210
 Alpha  occ. eigenvalues --  -10.19079 -10.18826 -10.18666 -10.18010  -1.06824
 Alpha  occ. eigenvalues --   -1.00962  -0.80897  -0.77843  -0.70710  -0.68230
 Alpha  occ. eigenvalues --   -0.64003  -0.57085  -0.53750  -0.51787  -0.49400
 Alpha  occ. eigenvalues --   -0.47689  -0.45672  -0.44447  -0.42222  -0.41888
 Alpha  occ. eigenvalues --   -0.39655  -0.37406  -0.35816  -0.33313  -0.32333
 Alpha  occ. eigenvalues --   -0.30244  -0.27314  -0.26045  -0.22213
 Alpha virt. eigenvalues --   -0.03056   0.07997   0.08824   0.09990   0.12988
 Alpha virt. eigenvalues --    0.13826   0.15118   0.15403   0.15870   0.16453
 Alpha virt. eigenvalues --    0.17659   0.18641   0.19208   0.20397   0.22323

 Mulliken charges:
               1
     1  C   -0.240789
     2  O   -0.239389
     3  C    0.167652
     4  O   -0.255884
     5  C   -0.136156
     6  C   -0.076579
     7  C   -0.079096
     8  C   -0.073964
     9  C   -0.096861
    10  H    0.102453
    11  H    0.128345
    12  H    0.128500
    13  H    0.063409
    14  H    0.098116
    15  H    0.125430
    16  H    0.094243
    17  H    0.089673
    18  H    0.094277
    19  H    0.106621
 Sum of Mulliken charges =   0.00000

 Dipole moment (field-independent basis, Debye):
    X=              0.5840    Y=             -1.0484    Z=              1.3114  Tot=              1.7776
 Quadrupole moment (field-independent basis, Debye-Ang):
   XX=            -48.3960   YY=            -49.7254   ZZ=            -55.7634
   XY=              1.2083   XZ=             -1.1204   YZ=             -0.8873

  Exact polarizability: 101.020  -2.642  91.346   1.345  -3.077  51.357
 Approx polarizability: 138.328  -9.675 144.278   3.821  -5.608  82.167

                      1                      2                      3
                      A                      A                      A
 Frequencies --     69.4751               125.2355               181.7498
 Red. masses --      3.1203                 2.1021                 1.4645
 Frc consts  --      0.0089                 0.0194                 0.0285
 IR Inten    --      0.2545                 3.2534                 0.8837

                      4                      5                      6
                      A                      A                      A
 Frequencies --    203.4365               283.3401               324.5990
 Red. masses --      2.0770                 4.3164                 2.7102
 Frc consts  --      0.0506                 0.2042                 0.1682
 IR Inten    --      4.4351                 4.6227                 1.9492

                      7                      8                      9
                      A                      A                      A
 Frequencies --    355.0983               391.2602               467.5582
 Red. masses --      4.7553                 5.4406                 2.7359
 Frc consts  --      0.3533                 0.4907                 0.3524
 IR Inten    --      1.2203                 1.6949                 0.3131

                     10                     11                     12
                      A                      A                      A
 Frequencies --    491.2541               577.0704               673.4290
 Red. masses --      4.0555                 2.1011                 2.3022
 Frc consts  --      0.5766                 0.4122                 0.6152
 IR Inten    --      2.2663                11.7558                10.1215

                     13                     14                     15
                      A                      A                      A
 Frequencies --    718.0261               790.4496               850.6799
 Red. masses --      2.6661                 1.5897                 3.7857
 Frc consts  --      0.8099                 0.5852                 1.6141
 IR Inten    --     17.7245                 1.6042                 1.0694

                     16                     17                     18
                      A                      A                      A
 Frequencies --    887.6930               944.6225               967.1650
 Red. masses --      5.0664                 3.2150                 2.8752
 Frc consts  --      2.3522                 1.6902                 1.5846
 IR Inten    --      2.4021                41.9474                17.1400

                     19                     20                     21
                      A                      A                      A
 Frequencies --    990.5367              1009.9601              1019.4710
 Red. masses --      1.2651                 1.2454                 2.7206
 Frc consts  --      0.7313                 0.7484                 1.6660
 IR Inten    --      1.3725                 1.6697                10.2449

                     22                     23                     24
                      A                      A                      A
 Frequencies --   1049.0333              1078.2412              1136.5279
 Red. masses --      2.7509                 2.5633                 4.0551
 Frc consts  --      1.7837                 1.7558                 3.0861
 IR Inten    --     37.4778                29.8008               142.5889

                     25                     26                     27
                      A                      A                      A
 Frequencies --   1169.6057              1180.0271              1210.0861
 Red. masses --      3.0366                 1.3074                 1.2180
 Frc consts  --      2.4475                 1.0726                 1.0508
 IR Inten    --     93.0767                 8.6480                 9.8883

                     28                     29                     30
                      A                      A                      A
 Frequencies --   1243.1393              1261.1172              1282.3402
 Red. masses --      1.5276                 1.1371                 1.1561
 Frc consts  --      1.3909                 1.0656                 1.1201
 IR Inten    --     76.3174                 4.4414                12.3833

                     31                     32                     33
                      A                      A                      A
 Frequencies --   1345.2031              1385.5746              1408.5090
 Red. masses --      1.3038                 1.1960                 1.3270
 Frc consts  --      1.3901                 1.3529                 1.5511
 IR Inten    --     32.2148                13.1265                 6.1661

                     34                     35                     36
                      A                      A                      A
 Frequencies --   1421.5261              1451.0646              1471.7719
 Red. masses --      1.4345                 1.6197                 1.0995
 Frc consts  --      1.7078                 2.0094                 1.4032
 IR Inten    --     16.8506                 8.5757                 6.9553

                     37                     38                     39
                      A                      A                      A
 Frequencies --   1478.5624              1482.8599              1513.9692
 Red. masses --      1.1877                 1.0575                 1.0532
 Frc consts  --      1.5298                 1.3700                 1.4223
 IR Inten    --      3.7426                 3.9135                 6.2861

                     40                     41                     42
                      A                      A                      A
 Frequencies --   1683.2022              1716.4042              2882.6283
 Red. masses --      8.4224                 5.8165                 1.0792
 Frc consts  --     14.0592                10.0960                 5.2838
 IR Inten    --      4.0794                 3.3112                37.9325

                     43                     44                     45
                      A                      A                      A
 Frequencies --   2924.7158              2988.4115              3036.7449
 Red. masses --      1.0730                 1.0464                 1.0853
 Frc consts  --      5.4076                 5.5059                 5.8967
 IR Inten    --     66.2169                55.0519                20.1065

                     46                     47                     48
                      A                      A                      A
 Frequencies --   3073.7393              3129.2861              3130.2417
 Red. masses --      1.0881                 1.1015                 1.0828
 Frc consts  --      6.0567                 6.3552                 6.2510
 IR Inten    --     37.5021                25.4752                 2.1182

                     49                     50                     51
                      A                      A                      A
 Frequencies --   3148.7459              3161.9602              3195.7880
 Red. masses --      1.0889                 1.0900                 1.0940
 Frc consts  --      6.3611                 6.4208                 6.5831
 IR Inten    --     24.7110                25.4958                 7.0184

 - Thermochemistry -
 -------------------
 Temperature   298.150 Kelvin.  Pressure   1.00000 Atm.
 Atom     1 has atomic number  6 and mass  12.00000

 Molecular mass:   126.06808 amu.
 Principal axes and moments of inertia in atomic units:
                           1         2         3
     Eigenvalues --   570.538001406.872191874.09749
           X            0.99989   0.01378  -0.00532
           Y           -0.01386   0.99979  -0.01537
           Z            0.00510   0.01544   0.99987
 This molecule is an asymmetric top.
 Rotational symmetry number  1.
 Warning -- assumption of classical behavior for rotation
           may cause significant error
 Rotational temperatures (Kelvin)      0.15181     0.06156     0.04622
 Rotational constants (GHZ):           3.16323     1.28280     0.96299
 Zero-point vibrational energy     418472.5 (Joules/Mol)
                                  100.01732 (Kcal/Mol)
 Warning -- explicit consideration of  11 degrees of freedom as
           vibrations may cause significant error
 Vibrational temperatures:     99.96   180.19   261.50   292.70   407.66
          (Kelvin)            467.03   510.91   562.94   672.71   706.80
                              830.27   968.91  1033.08  1137.28  1223.94
                             1277.19  1359.10  1391.53  1425.16  1453.11
                             1466.79  1509.32  1551.35  1635.21  1682.80
                             1697.79  1741.04  1788.60  1814.46  1845.00
                             1935.44  1993.53  2026.53  2045.26  2087.76
                             2117.55  2127.32  2133.50  2178.26  2421.75
                             2469.52  4147.45  4208.01  4299.65  4369.19
                             4422.42  4502.34  4503.71  4530.34  4549.35
                             4598.02

 Zero-point correction=                           0.159388 (Hartree/Particle)
 Thermal correction to Energy=                    0.167867
 Thermal correction to Enthalpy=                  0.168811
 Thermal correction to Gibbs Free Energy=         0.126102
 Sum of electronic and zero-point Energies=           -423.017961
 Sum of electronic and thermal Energies=              -423.009482
 Sum of electronic and thermal Enthalpies=            -423.008537
 Sum of electronic and thermal Free Energies=         -423.051247

                     E (Thermal)             CV                S
                      KCal/Mol        Cal/Mol-Kelvin    Cal/Mol-Kelvin
 Total                  105.338             31.951             89.890
 Electronic               0.000              0.000              0.000
 Translational            0.889              2.981             40.409
 Rotational               0.889              2.981             28.799
 Vibrational            103.561             25.990             20.682
 Vibration     1          0.598              1.969              4.168
 Vibration     2          0.610              1.928              3.018
 Vibration     3          0.630              1.865              2.310
 Vibration     4          0.639              1.835              2.102
 Vibration     5          0.682              1.705              1.513
 Vibration     6          0.709              1.626              1.287
 Vibration     7          0.731              1.565              1.143
 Vibration     8          0.759              1.489              0.995
 Vibration     9          0.825              1.322              0.744
 Vibration    10          0.847              1.269              0.680
 Vibration    11          0.934              1.081              0.491

 Normal termination of Gaussian 09 at Tue Jan 28 12:38:35 2020.
