 Gaussian 09, Revision D.01,
 Gaussian 09:  ES64L-G09RevD.01 24-Apr-2013

 -----------------------------
 # b3lyp 6-31G(2df,p) opt Freq
 -----------------------------

 -----
 titel
 -----
 Symbolic Z-matrix:
 Charge =  0 Multiplicity = 1

 SCF Done:  E(RB3LYP) =  -423.208263514     A.U. after   14 cycles
 Optimization completed.
    -- Stationary point found.
 Normal termination of Gaussian 09 at Mon Jan 27 22:00:41 2020.

 ----------------------------------------------------------------------
 #N Geom=AllCheck Guess=TCheck SCRF=Check GenChk RB3LYP/6-31G(2df,p) Fr
 eq
 ----------------------------------------------------------------------

 Structure from the checkpoint file:  "/scratch/puck/g09_8479c3e4-3ace-4b2f-aa32-246fcf150d53/Gau-98423.chk"
 -----
 titel
 -----
 Charge =  0 Multiplicity = 1

                         Standard orientation:
 ---------------------------------------------------------------------
 Center     Atomic      Atomic             Coordinates (Angstroms)
 Number     Number       Type             X           Y           Z
 ---------------------------------------------------------------------
      1          6           0       -2.344702   -1.077404    0.440115
      2          6           0       -0.961881   -0.634141    0.039523
      3          6           0        0.039302   -1.503650   -0.171988
      4          6           0        1.426219   -1.164688   -0.651445
      5          6           0        2.202380   -0.216890    0.285621
      6          8           0        1.434632    0.857201    0.786354
      7          6           0        0.574216    1.480492   -0.140832
      8          6           0       -0.818481    0.834877   -0.194581
      9          8           0       -1.793007    1.535672   -0.383866
     10          1           0       -3.079477   -0.755697   -0.303820
     11          1           0       -2.396467   -2.163334    0.548657
     12          1           0       -2.645341   -0.616022    1.387231
     13          1           0       -0.173016   -2.560135   -0.021268
     14          1           0        2.018527   -2.076964   -0.771495
     15          1           0        1.372004   -0.714620   -1.650290
     16          1           0        2.549691   -0.759386    1.170285
     17          1           0        3.088555    0.157790   -0.251760
     18          1           0        0.424630    2.512221    0.187947
     19          1           0        1.005573    1.521590   -1.153882
 ---------------------------------------------------------------------

 SCF Done:  E(RB3LYP) =  -423.208263514     A.U. after    1 cycles

 The electronic state is 1-A.
 Alpha  occ. eigenvalues --  -19.14953 -19.12594 -10.26344 -10.24067 -10.23615
 Alpha  occ. eigenvalues --  -10.20350 -10.20197 -10.19845 -10.17926  -1.04748
 Alpha  occ. eigenvalues --   -1.03203  -0.82302  -0.77498  -0.72880  -0.66844
 Alpha  occ. eigenvalues --   -0.64117  -0.58544  -0.52206  -0.50739  -0.47857
 Alpha  occ. eigenvalues --   -0.45988  -0.45457  -0.43520  -0.42344  -0.41865
 Alpha  occ. eigenvalues --   -0.39960  -0.37673  -0.37411  -0.35852  -0.35334
 Alpha  occ. eigenvalues --   -0.31902  -0.28065  -0.25726  -0.23592
 Alpha virt. eigenvalues --   -0.04876   0.04651   0.08552   0.10072   0.11927
 Alpha virt. eigenvalues --    0.12802   0.14058   0.14687   0.15733   0.16463
 Alpha virt. eigenvalues --    0.18603   0.18944   0.20191   0.21588   0.22699

 Mulliken charges:
               1
     1  C   -0.472356
     2  C    0.221984
     3  C   -0.129492
     4  C   -0.309091
     5  C   -0.056752
     6  O   -0.230298
     7  C   -0.199721
     8  C    0.301078
     9  O   -0.315327
    10  H    0.146594
    11  H    0.113278
    12  H    0.135341
    13  H    0.098422
    14  H    0.111998
    15  H    0.125656
    16  H    0.116185
    17  H    0.093434
    18  H    0.137362
    19  H    0.111706
 Sum of Mulliken charges =   0.00000

 Dipole moment (field-independent basis, Debye):
    X=              2.1570    Y=             -2.4013    Z=             -0.7310  Tot=              3.3096
 Quadrupole moment (field-independent basis, Debye-Ang):
   XX=            -54.6782   YY=            -52.9558   ZZ=            -53.8448
   XY=              2.5229   XZ=             -3.3819   YZ=             -0.5111

  Exact polarizability:  96.567  -8.515  85.288  -4.102  -1.410  56.569
 Approx polarizability: 138.743 -28.967 132.469  -3.999  -1.318  89.707

                      1                      2                      3
                      A                      A                      A
 Frequencies --     63.8375               138.3647               162.1664
 Red. masses --      4.2594                 1.3833                 1.5285
 Frc consts  --      0.0102                 0.0156                 0.0237
 IR Inten    --      4.5007                 0.2238                 0.1511

                      4                      5                      6
                      A                      A                      A
 Frequencies --    219.7742               295.9919               305.8349
 Red. masses --      3.3676                 3.2414                 2.3121
 Frc consts  --      0.0958                 0.1673                 0.1274
 IR Inten    --      7.4689                 3.1890                 1.5757

                      7                      8                      9
                      A                      A                      A
 Frequencies --    353.0694               354.1583               390.4917
 Red. masses --      2.7173                 3.7116                 4.8847
 Frc consts  --      0.1996                 0.2743                 0.4388
 IR Inten    --      2.8887                 5.2586                 1.1463

                     10                     11                     12
                      A                      A                      A
 Frequencies --    509.5649               570.7915               625.2189
 Red. masses --      4.0453                 2.8571                 1.9935
 Frc consts  --      0.6189                 0.5484                 0.4591
 IR Inten    --      7.2532                 7.4474                 4.3605

                     13                     14                     15
                      A                      A                      A
 Frequencies --    665.3344               706.3224               830.2525
 Red. masses --      4.0845                 4.0914                 2.2131
 Frc consts  --      1.0653                 1.2026                 0.8988
 IR Inten    --      5.3535                11.0892                 5.0397

                     16                     17                     18
                      A                      A                      A
 Frequencies --    876.4735               909.6430               947.1927
 Red. masses --      1.4381                 2.1981                 2.3413
 Frc consts  --      0.6509                 1.0716                 1.2376
 IR Inten    --     20.8052                 6.0753                 3.4690

                     19                     20                     21
                      A                      A                      A
 Frequencies --    982.3114              1024.7587              1071.4386
 Red. masses --      2.6661                 2.1321                 1.6404
 Frc consts  --      1.5157                 1.3192                 1.1095
 IR Inten    --      9.3193                 4.9661                 4.9871

                     22                     23                     24
                      A                      A                      A
 Frequencies --   1082.1978              1098.9847              1114.2109
 Red. masses --      1.8213                 3.0333                 1.9868
 Frc consts  --      1.2567                 2.1585                 1.4532
 IR Inten    --      1.0129                14.3715                 7.2983

                     25                     26                     27
                      A                      A                      A
 Frequencies --   1148.5736              1234.6856              1258.5198
 Red. masses --      4.2529                 1.5359                 1.4479
 Frc consts  --      3.3056                 1.3795                 1.3511
 IR Inten    --     54.5116                17.3572                44.3742

                     28                     29                     30
                      A                      A                      A
 Frequencies --   1287.2260              1298.4423              1349.9963
 Red. masses --      1.4740                 1.3018                 1.3391
 Frc consts  --      1.4390                 1.2931                 1.4379
 IR Inten    --     15.0569                 7.0279                 7.5595

                     31                     32                     33
                      A                      A                      A
 Frequencies --   1359.1120              1386.1400              1410.0349
 Red. masses --      1.3012                 1.7943                 1.2464
 Frc consts  --      1.4161                 2.0312                 1.4601
 IR Inten    --      2.6216                25.0239                 0.7526

                     34                     35                     36
                      A                      A                      A
 Frequencies --   1413.1472              1465.8478              1470.2091
 Red. masses --      1.2796                 1.0841                 1.0465
 Frc consts  --      1.5056                 1.3725                 1.3327
 IR Inten    --      3.9261                 6.8626                 5.9275

                     37                     38                     39
                      A                      A                      A
 Frequencies --   1487.9443              1492.7586              1508.2235
 Red. masses --      1.0664                 1.0754                 1.0916
 Frc consts  --      1.3910                 1.4118                 1.4630
 IR Inten    --      7.8538                 5.5172                 1.2037

                     40                     41                     42
                      A                      A                      A
 Frequencies --   1698.1553              1764.2717              2974.7600
 Red. masses --      7.2062                12.2392                 1.0703
 Frc consts  --     12.2437                22.4457                 5.5804
 IR Inten    --     12.2669               191.5380                73.8381

                     43                     44                     45
                      A                      A                      A
 Frequencies --   2981.4652              3030.8277              3039.6997
 Red. masses --      1.0691                 1.0672                 1.0363
 Frc consts  --      5.5991                 5.7758                 5.6417
 IR Inten    --     27.2865                21.2611                18.2580

                     46                     47                     48
                      A                      A                      A
 Frequencies --   3073.1634              3087.7722              3097.9810
 Red. masses --      1.0913                 1.0958                 1.0976
 Frc consts  --      6.0725                 6.1556                 6.2064
 IR Inten    --     12.9745                39.8794                10.9696

                     49                     50                     51
                      A                      A                      A
 Frequencies --   3100.0027              3125.9634              3146.9270
 Red. masses --      1.0927                 1.1030                 1.0891
 Frc consts  --      6.1870                 6.3502                 6.3544
 IR Inten    --      9.8672                10.5228                20.7259

 - Thermochemistry -
 -------------------
 Temperature   298.150 Kelvin.  Pressure   1.00000 Atm.
 Atom     1 has atomic number  6 and mass  12.00000

 Molecular mass:   126.06808 amu.
 Principal axes and moments of inertia in atomic units:
                           1         2         3
     Eigenvalues --   724.559761186.401251696.48272
           X            0.99883   0.04145  -0.02480
           Y           -0.04168   0.99909  -0.00892
           Z            0.02441   0.00994   0.99965
 This molecule is an asymmetric top.
 Rotational symmetry number  1.
 Warning -- assumption of classical behavior for rotation
           may cause significant error
 Rotational temperatures (Kelvin)      0.11954     0.07301     0.05105
 Rotational constants (GHZ):           2.49081     1.52119     1.06381
 Zero-point vibrational energy     418634.6 (Joules/Mol)
                                  100.05606 (Kcal/Mol)
 Warning -- explicit consideration of  11 degrees of freedom as
           vibrations may cause significant error
 Vibrational temperatures:     91.85   199.08   233.32   316.21   425.87
          (Kelvin)            440.03   507.99   509.55   561.83   733.15
                              821.24   899.55   957.27  1016.24  1194.55
                             1261.05  1308.77  1362.80  1413.33  1474.40
                             1541.56  1557.04  1581.19  1603.10  1652.54
                             1776.43  1810.73  1852.03  1868.17  1942.34
                             1955.46  1994.34  2028.72  2033.20  2109.03
                             2115.30  2140.82  2147.74  2169.99  2443.26
                             2538.39  4280.01  4289.66  4360.68  4373.44
                             4421.59  4442.61  4457.30  4460.21  4497.56
                             4527.72

 Zero-point correction=                           0.159449 (Hartree/Particle)
 Thermal correction to Energy=                    0.168098
 Thermal correction to Enthalpy=                  0.169042
 Thermal correction to Gibbs Free Energy=         0.126035
 Sum of electronic and zero-point Energies=           -423.048814
 Sum of electronic and thermal Energies=              -423.040165
 Sum of electronic and thermal Enthalpies=            -423.039221
 Sum of electronic and thermal Free Energies=         -423.082228

                     E (Thermal)             CV                S
                      KCal/Mol        Cal/Mol-Kelvin    Cal/Mol-Kelvin
 Total                  105.483             32.414             90.516
 Electronic               0.000              0.000              0.000
 Translational            0.889              2.981             40.409
 Rotational               0.889              2.981             28.768
 Vibrational            103.706             26.452             21.339
 Vibration     1          0.597              1.972              4.335
 Vibration     2          0.614              1.915              2.826
 Vibration     3          0.622              1.889              2.524
 Vibration     4          0.647              1.811              1.961
 Vibration     5          0.690              1.681              1.439
 Vibration     6          0.696              1.663              1.385
 Vibration     7          0.729              1.569              1.152
 Vibration     8          0.730              1.567              1.148
 Vibration     9          0.758              1.491              0.998
 Vibration    10          0.865              1.229              0.635
 Vibration    11          0.927              1.094              0.503

 Optimization completed.
    -- Stationary point found.
 Normal termination of Gaussian 09 at Mon Jan 27 22:48:43 2020.
