 Gaussian 09, Revision D.01,
 Gaussian 09:  ES64L-G09RevD.01 24-Apr-2013

 -----------------------------
 # b3lyp 6-31G(2df,p) opt Freq
 -----------------------------

 -----
 titel
 -----
 Symbolic Z-matrix:
 Charge =  0 Multiplicity = 1

 SCF Done:  E(RB3LYP) =  -423.163128562     A.U. after   13 cycles
 Optimization completed.
    -- Stationary point found.
 Normal termination of Gaussian 09 at Tue Jan 28 00:02:32 2020.

 ----------------------------------------------------------------------
 #N Geom=AllCheck Guess=TCheck SCRF=Check GenChk RB3LYP/6-31G(2df,p) Fr
 eq
 ----------------------------------------------------------------------

 Structure from the checkpoint file:  "/scratch/puck/g09_edc3592e-171f-4bab-9168-272206445f7f/Gau-181389.chk"
 -----
 titel
 -----
 Charge =  0 Multiplicity = 1

                         Standard orientation:
 ---------------------------------------------------------------------
 Center     Atomic      Atomic             Coordinates (Angstroms)
 Number     Number       Type             X           Y           Z
 ---------------------------------------------------------------------
      1          8           0        1.874835   -1.404566   -0.220975
      2          6           0        0.636988   -0.769881   -0.521746
      3          6           0       -0.501902   -1.054097    0.508825
      4          6           0       -1.890746   -0.878144   -0.125969
      5          6           0       -1.902798    0.602523   -0.601779
      6          6           0       -0.723847    1.236028    0.139442
      7          6           0       -0.165308    0.301323    1.198057
      8          6           0        0.654978    0.677656   -0.050467
      9          8           0        1.743543    1.501077   -0.226172
     10          1           0        1.972548   -1.403419    0.739452
     11          1           0        0.449215   -0.986731   -1.579359
     12          1           0       -0.363973   -1.978765    1.072398
     13          1           0       -2.066148   -1.586131   -0.942173
     14          1           0       -2.667988   -1.046082    0.627108
     15          1           0       -1.788976    0.683754   -1.687915
     16          1           0       -2.841048    1.101487   -0.341423
     17          1           0       -0.734381    2.297452    0.365313
     18          1           0       -0.067102    0.533316    2.250055
     19          1           0        2.516629    0.920583   -0.204456
 ---------------------------------------------------------------------

 SCF Done:  E(RB3LYP) =  -423.163128562     A.U. after    1 cycles

 The electronic state is 1-A.
 Alpha  occ. eigenvalues --  -19.14669 -19.14586 -10.23506 -10.23156 -10.19201
 Alpha  occ. eigenvalues --  -10.18953 -10.18345 -10.18229 -10.18193  -1.04307
 Alpha  occ. eigenvalues --   -1.01804  -0.90096  -0.75605  -0.72973  -0.65788
 Alpha  occ. eigenvalues --   -0.59821  -0.56161  -0.55443  -0.53602  -0.47640
 Alpha  occ. eigenvalues --   -0.47058  -0.45536  -0.42947  -0.41590  -0.39173
 Alpha  occ. eigenvalues --   -0.37441  -0.35332  -0.34471  -0.34050  -0.33046
 Alpha  occ. eigenvalues --   -0.32223  -0.27470  -0.25924  -0.23051
 Alpha virt. eigenvalues --    0.06892   0.09096   0.09991   0.11654   0.12642
 Alpha virt. eigenvalues --    0.13755   0.14620   0.15510   0.16182   0.17161
 Alpha virt. eigenvalues --    0.17623   0.18397   0.21054   0.22043   0.23331

 Mulliken charges:
               1
     1  O   -0.453446
     2  C    0.061623
     3  C   -0.080145
     4  C   -0.214372
     5  C   -0.242277
     6  C   -0.092733
     7  C   -0.208315
     8  C    0.400224
     9  O   -0.469688
    10  H    0.279495
    11  H    0.079438
    12  H    0.066355
    13  H    0.099699
    14  H    0.100148
    15  H    0.105013
    16  H    0.100795
    17  H    0.094680
    18  H    0.087773
    19  H    0.285734
 Sum of Mulliken charges =   0.00000

 Dipole moment (field-independent basis, Debye):
    X=             -0.8015    Y=             -0.7089    Z=              1.2542  Tot=              1.6486
 Quadrupole moment (field-independent basis, Debye-Ang):
   XX=            -51.9371   YY=            -56.7029   ZZ=            -51.3785
   XY=             -0.7194   XZ=              3.0018   YZ=             -1.0854

  Exact polarizability:  81.914  -0.760  72.607   1.082  -0.456  67.058
 Approx polarizability: 113.805  -1.712 107.100  -1.382  -2.156 107.406

                      1                      2                      3
                      A                      A                      A
 Frequencies --    151.0701               226.9874               244.0215
 Red. masses --      2.9616                 4.7026                 2.1222
 Frc consts  --      0.0398                 0.1428                 0.0745
 IR Inten    --      1.5045                13.3089                 3.1056

                      4                      5                      6
                      A                      A                      A
 Frequencies --    262.7022               353.7772               368.1567
 Red. masses --      3.1618                 1.1697                 3.7622
 Frc consts  --      0.1286                 0.0863                 0.3004
 IR Inten    --      3.5254                71.6819                10.3693

                      7                      8                      9
                      A                      A                      A
 Frequencies --    430.5918               482.0933               534.8052
 Red. masses --      2.1860                 1.3767                 3.4642
 Frc consts  --      0.2388                 0.1885                 0.5838
 IR Inten    --      7.0029                72.8901                12.0146

                     10                     11                     12
                      A                      A                      A
 Frequencies --    600.4866               676.6456               714.1832
 Red. masses --      3.6222                 2.6219                 4.1265
 Frc consts  --      0.7695                 0.7073                 1.2401
 IR Inten    --      7.1900                 4.9632                 1.0452

                     13                     14                     15
                      A                      A                      A
 Frequencies --    816.7883               824.9590               853.7887
 Red. masses --      2.1058                 2.7326                 2.2113
 Frc consts  --      0.8277                 1.0957                 0.9497
 IR Inten    --      4.6575                 4.6544                 5.3488

                     16                     17                     18
                      A                      A                      A
 Frequencies --    879.6119               907.0153               911.1503
 Red. masses --      1.9618                 2.1840                 2.1872
 Frc consts  --      0.8943                 1.0586                 1.0699
 IR Inten    --      2.6682                 4.7673                 0.5348

                     19                     20                     21
                      A                      A                      A
 Frequencies --    921.1776               945.2961               991.4603
 Red. masses --      2.5996                 3.0887                 1.6850
 Frc consts  --      1.2997                 1.6261                 0.9759
 IR Inten    --     11.4152                41.9620                 1.3208

                     22                     23                     24
                      A                      A                      A
 Frequencies --   1004.7705              1036.4065              1067.6984
 Red. masses --      1.5204                 2.1770                 1.6362
 Frc consts  --      0.9044                 1.3777                 1.0990
 IR Inten    --      4.7960                 9.3364                 2.0110

                     25                     26                     27
                      A                      A                      A
 Frequencies --   1092.3317              1140.6267              1164.1370
 Red. masses --      2.9482                 1.5050                 1.6094
 Frc consts  --      2.0726                 1.1537                 1.2850
 IR Inten    --     76.3389                23.1903                36.4451

                     28                     29                     30
                      A                      A                      A
 Frequencies --   1198.9185              1212.5166              1232.8135
 Red. masses --      1.5057                 1.7128                 1.4344
 Frc consts  --      1.2751                 1.4837                 1.2845
 IR Inten    --     26.8590                 2.0738                10.6764

                     31                     32                     33
                      A                      A                      A
 Frequencies --   1246.1168              1253.6005              1281.0419
 Red. masses --      1.5083                 1.7029                 1.3086
 Frc consts  --      1.3800                 1.5767                 1.2652
 IR Inten    --      6.4035                20.2872                10.7416

                     34                     35                     36
                      A                      A                      A
 Frequencies --   1308.8968              1324.6227              1337.2169
 Red. masses --      1.4949                 1.5959                 1.6997
 Frc consts  --      1.5090                 1.6498                 1.7907
 IR Inten    --     10.2211                10.2701                33.8301

                     37                     38                     39
                      A                      A                      A
 Frequencies --   1372.5787              1431.7224              1473.9922
 Red. masses --      1.5809                 1.4073                 2.6059
 Frc consts  --      1.7548                 1.6997                 3.3357
 IR Inten    --     82.1594                83.2896                32.7812

                     40                     41                     42
                      A                      A                      A
 Frequencies --   1486.0735              1508.0930              3039.8621
 Red. masses --      1.1686                 1.1052                 1.0589
 Frc consts  --      1.5206                 1.4809                 5.7654
 IR Inten    --      1.0448                 2.8297                28.2738

                     43                     44                     45
                      A                      A                      A
 Frequencies --   3046.8197              3051.9767              3075.8392
 Red. masses --      1.0688                 1.0799                 1.1017
 Frc consts  --      5.8460                 5.9266                 6.1412
 IR Inten    --     25.4368                60.7150                10.9355

                     46                     47                     48
                      A                      A                      A
 Frequencies --   3094.2261              3097.3040              3172.6498
 Red. masses --      1.1053                 1.0888                 1.0889
 Frc consts  --      6.2348                 6.1539                 6.4580
 IR Inten    --     45.8585                29.9163                 8.6165

                     49                     50                     51
                      A                      A                      A
 Frequencies --   3203.3126              3752.4413              3775.8550
 Red. masses --      1.0950                 1.0650                 1.0654
 Frc consts  --      6.6200                 8.8351                 8.9492
 IR Inten    --     10.4157                36.5468                 9.4495

 - Thermochemistry -
 -------------------
 Temperature   298.150 Kelvin.  Pressure   1.00000 Atm.
 Atom     1 has atomic number  8 and mass  15.99491

 Molecular mass:   126.06808 amu.
 Principal axes and moments of inertia in atomic units:
                           1         2         3
     Eigenvalues --   674.879701029.924161392.61510
           X            0.99984  -0.00102   0.01813
           Y            0.00110   0.99999  -0.00437
           Z           -0.01812   0.00439   0.99983
 This molecule is an asymmetric top.
 Rotational symmetry number  1.
 Warning -- assumption of classical behavior for rotation
           may cause significant error
 Rotational temperatures (Kelvin)      0.12834     0.08410     0.06220
 Rotational constants (GHZ):           2.67417     1.75230     1.29594
 Zero-point vibrational energy     422169.5 (Joules/Mol)
                                  100.90093 (Kcal/Mol)
 Warning -- explicit consideration of  10 degrees of freedom as
           vibrations may cause significant error
 Vibrational temperatures:    217.36   326.58   351.09   377.97   509.01
          (Kelvin)            529.69   619.52   693.62   769.46   863.97
                              973.54  1027.55  1175.17  1186.93  1228.41
                             1265.56  1304.99  1310.94  1325.37  1360.07
                             1426.49  1445.64  1491.16  1536.18  1571.62
                             1641.11  1674.93  1724.97  1744.54  1773.74
                             1792.88  1803.65  1843.13  1883.21  1905.83
                             1923.95  1974.83  2059.93  2120.74  2138.13
                             2169.81  4373.68  4383.69  4391.11  4425.44
                             4451.90  4456.32  4564.73  4608.85  5398.92
                             5432.61

 Zero-point correction=                           0.160796 (Hartree/Particle)
 Thermal correction to Energy=                    0.168375
 Thermal correction to Enthalpy=                  0.169320
 Thermal correction to Gibbs Free Energy=         0.129276
 Sum of electronic and zero-point Energies=           -423.002333
 Sum of electronic and thermal Energies=              -422.994753
 Sum of electronic and thermal Enthalpies=            -422.993809
 Sum of electronic and thermal Free Energies=         -423.033852

                     E (Thermal)             CV                S
                      KCal/Mol        Cal/Mol-Kelvin    Cal/Mol-Kelvin
 Total                  105.657             31.193             84.278
 Electronic               0.000              0.000              0.000
 Translational            0.889              2.981             40.409
 Rotational               0.889              2.981             28.361
 Vibrational            103.880             25.231             15.508
 Vibration     1          0.618              1.901              2.659
 Vibration     2          0.651              1.800              1.903
 Vibration     3          0.659              1.773              1.773
 Vibration     4          0.670              1.741              1.644
 Vibration     5          0.730              1.568              1.149
 Vibration     6          0.741              1.538              1.087
 Vibration     7          0.792              1.404              0.857
 Vibration     8          0.838              1.290              0.704
 Vibration     9          0.890              1.173              0.577
 Vibration    10          0.959              1.031              0.449

 Optimization completed.
    -- Stationary point found.
 Normal termination of Gaussian 09 at Tue Jan 28 00:50:53 2020.
