 Gaussian 09, Revision D.01,
 Gaussian 09:  ES64L-G09RevD.01 24-Apr-2013

 -----------------------------
 # b3lyp 6-31G(2df,p) opt Freq
 -----------------------------

 -----
 titel
 -----
 Symbolic Z-matrix:
 Charge =  0 Multiplicity = 1

 SCF Done:  E(RB3LYP) =  -423.168481518     A.U. after   14 cycles
 Optimization completed.
    -- Stationary point found.
 Normal termination of Gaussian 09 at Mon Jan 27 11:18:53 2020.

 ----------------------------------------------------------------------
 #N Geom=AllCheck Guess=TCheck SCRF=Check GenChk RB3LYP/6-31G(2df,p) Fr
 eq
 ----------------------------------------------------------------------

 Structure from the checkpoint file:  "/scratch/puck/g09_6d7118fe-eddf-49e6-9321-2174112dcfd3/Gau-70225.chk"
 -----
 titel
 -----
 Charge =  0 Multiplicity = 1

                         Standard orientation:
 ---------------------------------------------------------------------
 Center     Atomic      Atomic             Coordinates (Angstroms)
 Number     Number       Type             X           Y           Z
 ---------------------------------------------------------------------
      1          6           0       -2.242280    1.077217   -0.309765
      2          6           0       -1.475543   -0.197179    0.001697
      3          8           0       -2.029129   -1.275870    0.001726
      4          6           0        0.002366   -0.077478    0.276532
      5          6           0        0.607483    1.188483    0.957935
      6          6           0        1.647542    1.339147   -0.193527
      7          6           0        1.075592    0.075612   -0.872857
      8          8           0        1.729602   -1.133360   -0.478059
      9          6           0        0.766773   -1.377237    0.579912
     10          1           0       -3.209452    0.817050   -0.741159
     11          1           0       -2.410076    1.646554    0.611838
     12          1           0       -1.688204    1.728833   -0.993357
     13          1           0       -0.085805    2.028466    1.025576
     14          1           0        1.013165    1.002648    1.955530
     15          1           0        1.517289    2.252002   -0.781073
     16          1           0        2.699572    1.241784    0.081258
     17          1           0        0.849041    0.102665   -1.942707
     18          1           0        0.177700   -2.278198    0.388609
     19          1           0        1.241392   -1.439353    1.566590
 ---------------------------------------------------------------------

 SCF Done:  E(RB3LYP) =  -423.168481518     A.U. after    1 cycles

 The electronic state is 1-A.
 Alpha  occ. eigenvalues --  -19.13712 -19.13124 -10.27338 -10.24631 -10.22958
 Alpha  occ. eigenvalues --  -10.20455 -10.20001 -10.19391 -10.19171  -1.04882
 Alpha  occ. eigenvalues --   -1.03851  -0.83782  -0.75302  -0.72452  -0.66488
 Alpha  occ. eigenvalues --   -0.63177  -0.57763  -0.53048  -0.49324  -0.49124
 Alpha  occ. eigenvalues --   -0.47032  -0.44427  -0.42829  -0.42234  -0.41506
 Alpha  occ. eigenvalues --   -0.41314  -0.37898  -0.36630  -0.35582  -0.35211
 Alpha  occ. eigenvalues --   -0.31074  -0.29089  -0.24942  -0.24544
 Alpha virt. eigenvalues --   -0.02386   0.06484   0.07309   0.09052   0.11674
 Alpha virt. eigenvalues --    0.12699   0.13680   0.14798   0.16102   0.16940
 Alpha virt. eigenvalues --    0.17200   0.18292   0.19020   0.21048   0.21143

 Mulliken charges:
               1
     1  C   -0.492555
     2  C    0.292392
     3  O   -0.301657
     4  C    0.189004
     5  C   -0.309199
     6  C   -0.228522
     7  C    0.083900
     8  O   -0.285502
     9  C   -0.130606
    10  H    0.145765
    11  H    0.147802
    12  H    0.132281
    13  H    0.109227
    14  H    0.110226
    15  H    0.104836
    16  H    0.118574
    17  H    0.083761
    18  H    0.131606
    19  H    0.098667
 Sum of Mulliken charges =   0.00000

 Dipole moment (field-independent basis, Debye):
    X=              0.1032    Y=              3.2564    Z=              0.5364  Tot=              3.3019
 Quadrupole moment (field-independent basis, Debye-Ang):
   XX=            -58.5911   YY=            -55.2064   ZZ=            -50.9147
   XY=             -2.5279   XZ=              1.5026   YZ=             -1.8029

  Exact polarizability:  81.446   2.385  79.131   1.150  -2.738  65.109
 Approx polarizability: 112.703   7.494 119.356  -1.699  -3.322  99.487

                      1                      2                      3
                      A                      A                      A
 Frequencies --     40.2422                82.6672               154.8501
 Red. masses --      4.5481                 2.5685                 2.0344
 Frc consts  --      0.0043                 0.0103                 0.0287
 IR Inten    --      2.2536                 1.0637                 2.8601

                      4                      5                      6
                      A                      A                      A
 Frequencies --    165.1344               247.4579               345.4876
 Red. masses --      1.3289                 2.7336                 2.2408
 Frc consts  --      0.0214                 0.0986                 0.1576
 IR Inten    --      0.7222                 3.5132                 0.8427

                      7                      8                      9
                      A                      A                      A
 Frequencies --    365.3264               407.0452               475.5454
 Red. masses --      3.1091                 2.9043                 4.6974
 Frc consts  --      0.2445                 0.2835                 0.6259
 IR Inten    --      2.2285                 2.2975                 8.0582

                     10                     11                     12
                      A                      A                      A
 Frequencies --    573.6669               624.6952               671.3696
 Red. masses --      2.5848                 3.3600                 3.9310
 Frc consts  --      0.5012                 0.7726                 1.0439
 IR Inten    --      1.5062                10.2947                 0.4616

                     13                     14                     15
                      A                      A                      A
 Frequencies --    738.6460               843.0043               866.4364
 Red. masses --      1.2474                 2.2357                 2.3833
 Frc consts  --      0.4010                 0.9361                 1.0542
 IR Inten    --      0.3066                16.3692                20.2562

                     16                     17                     18
                      A                      A                      A
 Frequencies --    878.4874               937.9409               943.5587
 Red. masses --      2.6185                 2.4043                 2.1197
 Frc consts  --      1.1906                 1.2462                 1.1119
 IR Inten    --      2.4931                 9.6644                 3.3299

                     19                     20                     21
                      A                      A                      A
 Frequencies --    963.5241               988.6698              1016.1675
 Red. masses --      2.3283                 2.4961                 2.9305
 Frc consts  --      1.2736                 1.4375                 1.7829
 IR Inten    --      6.1371                27.5535                15.1117

                     22                     23                     24
                      A                      A                      A
 Frequencies --   1046.5843              1064.0360              1110.4820
 Red. masses --      2.7106                 2.2946                 2.4292
 Frc consts  --      1.7493                 1.5306                 1.7650
 IR Inten    --     46.9272                 1.0800                10.7417

                     25                     26                     27
                      A                      A                      A
 Frequencies --   1145.0908              1162.0834              1190.9847
 Red. masses --      1.6481                 1.5120                 1.6405
 Frc consts  --      1.2733                 1.2030                 1.3710
 IR Inten    --     18.2827                47.7324                 7.9439

                     28                     29                     30
                      A                      A                      A
 Frequencies --   1203.6607              1234.3394              1261.6029
 Red. masses --      2.2293                 1.2475                 1.4926
 Frc consts  --      1.9029                 1.1198                 1.3998
 IR Inten    --      1.1278                 3.2834                 3.1159

                     31                     32                     33
                      A                      A                      A
 Frequencies --   1276.0311              1299.9502              1328.8315
 Red. masses --      1.5434                 1.6902                 1.6607
 Frc consts  --      1.4807                 1.6829                 1.7277
 IR Inten    --      4.7851                33.2101                18.5885

                     34                     35                     36
                      A                      A                      A
 Frequencies --   1361.4579              1385.0938              1460.6675
 Red. masses --      1.5667                 1.3935                 1.0606
 Frc consts  --      1.7110                 1.5751                 1.3333
 IR Inten    --      8.1086                40.8062                 5.3892

                     37                     38                     39
                      A                      A                      A
 Frequencies --   1465.1840              1477.0374              1489.5218
 Red. masses --      1.0846                 1.0546                 1.1009
 Frc consts  --      1.3718                 1.3556                 1.4391
 IR Inten    --      6.8675                 9.1663                 1.2178

                     40                     41                     42
                      A                      A                      A
 Frequencies --   1521.7787              1787.9080              3027.1797
 Red. masses --      1.0958                11.1521                 1.0607
 Frc consts  --      1.4951                21.0038                 5.7267
 IR Inten    --      1.2769               154.6961                63.3381

                     43                     44                     45
                      A                      A                      A
 Frequencies --   3037.4379              3058.7954              3066.7744
 Red. masses --      1.0376                 1.0690                 1.0663
 Frc consts  --      5.6403                 5.8928                 5.9086
 IR Inten    --      2.3930                17.9721                60.4278

                     46                     47                     48
                      A                      A                      A
 Frequencies --   3072.7740              3098.3612              3098.6171
 Red. masses --      1.0743                 1.1049                 1.0979
 Frc consts  --      5.9766                 6.2494                 6.2107
 IR Inten    --     18.7376                17.5474                 8.9412

                     49                     50                     51
                      A                      A                      A
 Frequencies --   3114.5050              3131.7416              3152.4519
 Red. masses --      1.1054                 1.1062                 1.1016
 Frc consts  --      6.3178                 6.3922                 6.4500
 IR Inten    --      0.9188                32.1023                 9.0336

 - Thermochemistry -
 -------------------
 Temperature   298.150 Kelvin.  Pressure   1.00000 Atm.
 Atom     1 has atomic number  6 and mass  12.00000

 Molecular mass:   126.06808 amu.
 Principal axes and moments of inertia in atomic units:
                           1         2         3
     Eigenvalues --   684.219101194.642731563.64706
           X            0.99950  -0.02714   0.01595
           Y            0.02749   0.99939  -0.02176
           Z           -0.01535   0.02218   0.99964
 This molecule is an asymmetric top.
 Rotational symmetry number  1.
 Warning -- assumption of classical behavior for rotation
           may cause significant error
 Rotational temperatures (Kelvin)      0.12659     0.07250     0.05539
 Rotational constants (GHZ):           2.63767     1.51070     1.15419
 Zero-point vibrational energy     415468.4 (Joules/Mol)
                                   99.29932 (Kcal/Mol)
 Warning -- explicit consideration of  10 degrees of freedom as
           vibrations may cause significant error
 Vibrational temperatures:     57.90   118.94   222.79   237.59   356.04
          (Kelvin)            497.08   525.62   585.65   684.20   825.38
                              898.80   965.95  1062.75  1212.89  1246.61
                             1263.95  1349.49  1357.57  1386.29  1422.47
                             1462.04  1505.80  1530.91  1597.73  1647.53
                             1671.98  1713.56  1731.80  1775.94  1815.16
                             1835.92  1870.34  1911.89  1958.83  1992.84
                             2101.57  2108.07  2125.12  2143.09  2189.50
                             2572.40  4355.43  4370.19  4400.92  4412.40
                             4421.03  4457.85  4458.21  4481.07  4505.87
                             4535.67

 Zero-point correction=                           0.158244 (Hartree/Particle)
 Thermal correction to Energy=                    0.166901
 Thermal correction to Enthalpy=                  0.167846
 Thermal correction to Gibbs Free Energy=         0.124088
 Sum of electronic and zero-point Energies=           -423.010238
 Sum of electronic and thermal Energies=              -423.001580
 Sum of electronic and thermal Enthalpies=            -423.000636
 Sum of electronic and thermal Free Energies=         -423.044393

                     E (Thermal)             CV                S
                      KCal/Mol        Cal/Mol-Kelvin    Cal/Mol-Kelvin
 Total                  104.732             32.026             92.095
 Electronic               0.000              0.000              0.000
 Translational            0.889              2.981             40.409
 Rotational               0.889              2.981             28.637
 Vibrational            102.955             26.064             23.049
 Vibration     1          0.594              1.981              5.247
 Vibration     2          0.600              1.961              3.827
 Vibration     3          0.620              1.897              2.612
 Vibration     4          0.624              1.885              2.490
 Vibration     5          0.661              1.767              1.749
 Vibration     6          0.724              1.584              1.187
 Vibration     7          0.739              1.544              1.099
 Vibration     8          0.772              1.455              0.937
 Vibration     9          0.832              1.304              0.722
 Vibration    10          0.930              1.088              0.497

 Optimization completed.
    -- Stationary point found.
 Normal termination of Gaussian 09 at Mon Jan 27 12:09:17 2020.
