 Gaussian 09, Revision D.01,
 Gaussian 09:  ES64L-G09RevD.01 24-Apr-2013

 -----------------------------
 # b3lyp 6-31G(2df,p) opt Freq
 -----------------------------

 -----
 titel
 -----
 Symbolic Z-matrix:
 Charge =  0 Multiplicity = 1

 SCF Done:  E(RB3LYP) =  -423.142730726     A.U. after   13 cycles
 Optimization completed.
    -- Stationary point found.
 Normal termination of Gaussian 09 at Mon Jan 27 22:01:30 2020.

 ----------------------------------------------------------------------
 #N Geom=AllCheck Guess=TCheck SCRF=Check GenChk RB3LYP/6-31G(2df,p) Fr
 eq
 ----------------------------------------------------------------------

 Structure from the checkpoint file:  "/scratch/puck/g09_b428c1d6-6b1a-48fa-abbd-6ba1085c9940/Gau-175811.chk"
 -----
 titel
 -----
 Charge =  0 Multiplicity = 1

                         Standard orientation:
 ---------------------------------------------------------------------
 Center     Atomic      Atomic             Coordinates (Angstroms)
 Number     Number       Type             X           Y           Z
 ---------------------------------------------------------------------
      1          8           0        1.570078    1.556129    0.111007
      2          6           0        0.492175    0.658151   -0.026387
      3          6           0       -0.847619    1.380913   -0.170207
      4          6           0       -1.975727    0.438936    0.257194
      5          8           0       -1.741508   -0.881685   -0.206731
      6          6           0       -0.403508   -1.275498   -0.065655
      7          6           0        0.542899   -0.558171    0.954346
      8          6           0        1.715287   -1.120386    0.101851
      9          6           0        0.692047   -0.597979   -0.942947
     10          1           0        1.533346    2.179849   -0.621829
     11          1           0       -0.852089    2.275563    0.461605
     12          1           0       -0.979916    1.706997   -1.210608
     13          1           0       -2.043412    0.434384    1.356024
     14          1           0       -2.948286    0.746514   -0.136295
     15          1           0       -0.383352   -2.366807   -0.048429
     16          1           0        0.467751   -0.533568    2.042441
     17          1           0        2.653527   -0.575393    0.168588
     18          1           0        1.862372   -2.203327    0.137165
     19          1           0        0.768168   -0.615559   -2.032039
 ---------------------------------------------------------------------

 SCF Done:  E(RB3LYP) =  -423.142730726     A.U. after    1 cycles

 The electronic state is 1-A.
 Alpha  occ. eigenvalues --  -19.14009 -19.13793 -10.24298 -10.23462 -10.22886
 Alpha  occ. eigenvalues --  -10.19551 -10.18924 -10.18423 -10.18311  -1.04077
 Alpha  occ. eigenvalues --   -1.02463  -0.89557  -0.77092  -0.67930  -0.63496
 Alpha  occ. eigenvalues --   -0.62897  -0.60611  -0.53496  -0.49827  -0.49175
 Alpha  occ. eigenvalues --   -0.47692  -0.45167  -0.44360  -0.41353  -0.38736
 Alpha  occ. eigenvalues --   -0.37720  -0.36168  -0.34703  -0.33809  -0.31777
 Alpha  occ. eigenvalues --   -0.29864  -0.29015  -0.26027  -0.24113
 Alpha virt. eigenvalues --    0.07610   0.09451   0.12235   0.12840   0.13348
 Alpha virt. eigenvalues --    0.13879   0.14552   0.16079   0.16769   0.17247
 Alpha virt. eigenvalues --    0.17879   0.18393   0.19433   0.19945   0.22178

 Mulliken charges:
               1
     1  O   -0.491490
     2  C    0.466075
     3  C   -0.330990
     4  C   -0.072083
     5  O   -0.277317
     6  C    0.154843
     7  C   -0.155488
     8  C   -0.252933
     9  C   -0.159066
    10  H    0.277491
    11  H    0.107378
    12  H    0.097607
    13  H    0.096933
    14  H    0.106801
    15  H    0.084826
    16  H    0.073874
    17  H    0.120290
    18  H    0.088255
    19  H    0.064994
 Sum of Mulliken charges =   0.00000

 Dipole moment (field-independent basis, Debye):
    X=             -0.0076    Y=              1.1727    Z=             -0.6122  Tot=              1.3229
 Quadrupole moment (field-independent basis, Debye-Ang):
   XX=            -56.5415   YY=            -50.6724   ZZ=            -51.9018
   XY=             -3.4708   XZ=             -2.8151   YZ=             -3.0677

  Exact polarizability:  79.304  -4.833  77.630  -1.079  -1.486  66.301
 Approx polarizability: 110.598  -1.226 112.032   0.332  -0.800 106.379

                      1                      2                      3
                      A                      A                      A
 Frequencies --    206.7083               218.7932               250.9604
 Red. masses --      3.1543                 2.0171                 1.0821
 Frc consts  --      0.0794                 0.0569                 0.0402
 IR Inten    --      3.1817                 2.4481                83.0676

                      4                      5                      6
                      A                      A                      A
 Frequencies --    372.5048               400.6283               417.7185
 Red. masses --      4.4424                 3.8698                 2.9261
 Frc consts  --      0.3632                 0.3659                 0.3008
 IR Inten    --     10.8518                 4.6037                 2.5162

                      7                      8                      9
                      A                      A                      A
 Frequencies --    420.2670               518.0317               550.3174
 Red. masses --      3.1955                 3.6399                 3.9209
 Frc consts  --      0.3325                 0.5755                 0.6996
 IR Inten    --      0.1642                 2.2226                 1.6343

                     10                     11                     12
                      A                      A                      A
 Frequencies --    665.8667               702.1458               777.3943
 Red. masses --      3.8487                 2.4706                 3.3088
 Frc consts  --      1.0054                 0.7176                 1.1782
 IR Inten    --      1.2272                 6.2907                 2.1866

                     13                     14                     15
                      A                      A                      A
 Frequencies --    818.1885               864.7126               897.3929
 Red. masses --      2.7202                 2.1894                 2.0212
 Frc consts  --      1.0729                 0.9645                 0.9590
 IR Inten    --      0.7122                 3.2306                 3.6441

                     16                     17                     18
                      A                      A                      A
 Frequencies --    906.6855               931.7836               949.3279
 Red. masses --      1.9799                 2.7850                 2.1051
 Frc consts  --      0.9590                 1.4246                 1.1178
 IR Inten    --      3.3527                26.0003                38.4226

                     19                     20                     21
                      A                      A                      A
 Frequencies --    992.4233              1022.4698              1051.0446
 Red. masses --      1.7165                 1.0998                 2.5712
 Frc consts  --      0.9961                 0.6774                 1.6735
 IR Inten    --      9.3533                 3.3008                 5.0118

                     22                     23                     24
                      A                      A                      A
 Frequencies --   1078.1589              1083.2349              1105.4488
 Red. masses --      1.6567                 2.3812                 1.4236
 Frc consts  --      1.1347                 1.6463                 1.0250
 IR Inten    --      9.0846                18.5104                 0.7377

                     25                     26                     27
                      A                      A                      A
 Frequencies --   1136.5786              1137.6607              1183.6725
 Red. masses --      2.4445                 2.1040                 3.1594
 Frc consts  --      1.8605                 1.6044                 2.6080
 IR Inten    --     57.0223                22.0678                33.9597

                     28                     29                     30
                      A                      A                      A
 Frequencies --   1189.1542              1195.6815              1231.2796
 Red. masses --      2.1345                 1.7137                 1.5795
 Frc consts  --      1.7783                 1.4435                 1.4109
 IR Inten    --     70.4833                24.9506                11.1232

                     31                     32                     33
                      A                      A                      A
 Frequencies --   1237.8954              1245.6466              1264.5160
 Red. masses --      1.5980                 1.8503                 1.4489
 Frc consts  --      1.4427                 1.6916                 1.3650
 IR Inten    --      9.4098                26.6360                16.1461

                     34                     35                     36
                      A                      A                      A
 Frequencies --   1289.0590              1347.2418              1371.7199
 Red. masses --      1.5588                 1.6479                 1.4066
 Frc consts  --      1.5262                 1.7623                 1.5594
 IR Inten    --     87.6379                34.4192                 1.5244

                     37                     38                     39
                      A                      A                      A
 Frequencies --   1402.7384              1423.3845              1486.2256
 Red. masses --      1.3959                 1.3555                 1.0895
 Frc consts  --      1.6182                 1.6180                 1.4179
 IR Inten    --     24.9901                 7.1138                 1.1308

                     40                     41                     42
                      A                      A                      A
 Frequencies --   1508.6708              1513.4742              2984.2218
 Red. masses --      1.1291                 1.0961                 1.0715
 Frc consts  --      1.5142                 1.4792                 5.6220
 IR Inten    --      3.1259                 1.8902                46.5520

                     43                     44                     45
                      A                      A                      A
 Frequencies --   3017.3935              3066.6155              3075.1154
 Red. masses --      1.0634                 1.0625                 1.0963
 Frc consts  --      5.7042                 5.8873                 6.1079
 IR Inten    --     33.0698                42.6593                28.5932

                     46                     47                     48
                      A                      A                      A
 Frequencies --   3088.4244              3091.6013              3097.1685
 Red. masses --      1.0945                 1.0877                 1.0893
 Frc consts  --      6.1509                 6.1253                 6.1562
 IR Inten    --     40.4782                34.9796                79.5847

                     49                     50                     51
                      A                      A                      A
 Frequencies --   3107.8403              3170.2426              3808.2623
 Red. masses --      1.0941                 1.1022                 1.0660
 Frc consts  --      6.2265                 6.5267                 9.1090
 IR Inten    --     28.0016                12.9089                21.3177

 - Thermochemistry -
 -------------------
 Temperature   298.150 Kelvin.  Pressure   1.00000 Atm.
 Atom     1 has atomic number  8 and mass  15.99491

 Molecular mass:   126.06808 amu.
 Principal axes and moments of inertia in atomic units:
                           1         2         3
     Eigenvalues --   658.86954 923.604301324.55250
           X            0.99283  -0.11890  -0.01212
           Y            0.11869   0.99279  -0.01662
           Z            0.01401   0.01507   0.99979
 This molecule is an asymmetric top.
 Rotational symmetry number  1.
 Warning -- assumption of classical behavior for rotation
           may cause significant error
 Rotational temperatures (Kelvin)      0.13146     0.09378     0.06539
 Rotational constants (GHZ):           2.73915     1.95402     1.36253
 Zero-point vibrational energy     423918.8 (Joules/Mol)
                                  101.31903 (Kcal/Mol)
 Warning -- explicit consideration of   9 degrees of freedom as
           vibrations may cause significant error
 Vibrational temperatures:    297.41   314.79   361.08   535.95   576.41
          (Kelvin)            601.00   604.67   745.33   791.78   958.03
                             1010.23  1118.50  1177.19  1244.13  1291.15
                             1304.52  1340.63  1365.87  1427.87  1471.10
                             1512.22  1551.23  1558.53  1590.49  1635.28
                             1636.84  1703.04  1710.93  1720.32  1771.53
                             1781.05  1792.21  1819.35  1854.67  1938.38
                             1973.60  2018.23  2047.93  2138.34  2170.64
                             2177.55  4293.62  4341.35  4412.17  4424.40
                             4443.55  4448.12  4456.13  4471.48  4561.27
                             5479.23

 Zero-point correction=                           0.161462 (Hartree/Particle)
 Thermal correction to Energy=                    0.168540
 Thermal correction to Enthalpy=                  0.169484
 Thermal correction to Gibbs Free Energy=         0.130500
 Sum of electronic and zero-point Energies=           -422.981269
 Sum of electronic and thermal Energies=              -422.974191
 Sum of electronic and thermal Enthalpies=            -422.973247
 Sum of electronic and thermal Free Energies=         -423.012231

                     E (Thermal)             CV                S
                      KCal/Mol        Cal/Mol-Kelvin    Cal/Mol-Kelvin
 Total                  105.760             29.640             82.048
 Electronic               0.000              0.000              0.000
 Translational            0.889              2.981             40.409
 Rotational               0.889              2.981             28.179
 Vibrational            103.983             23.679             13.460
 Vibration     1          0.641              1.830              2.073
 Vibration     2          0.647              1.812              1.969
 Vibration     3          0.663              1.761              1.724
 Vibration     4          0.744              1.529              1.069
 Vibration     5          0.766              1.469              0.960
 Vibration     6          0.781              1.432              0.900
 Vibration     7          0.783              1.426              0.891
 Vibration     8          0.873              1.210              0.615
 Vibration     9          0.906              1.139              0.544

 Optimization completed.
    -- Stationary point found.
 Normal termination of Gaussian 09 at Mon Jan 27 22:56:05 2020.
