 Gaussian 09, Revision D.01,
 Gaussian 09:  ES64L-G09RevD.01 24-Apr-2013

 -----------------------------
 # b3lyp 6-31G(2df,p) opt Freq
 -----------------------------

 -----
 titel
 -----
 Symbolic Z-matrix:
 Charge =  0 Multiplicity = 1

 SCF Done:  E(RB3LYP) =  -423.215673654     A.U. after   14 cycles
 Optimization completed.
    -- Stationary point found.
 Normal termination of Gaussian 09 at Tue Jan 28 12:09:01 2020.

 ----------------------------------------------------------------------
 #N Geom=AllCheck Guess=TCheck SCRF=Check GenChk RB3LYP/6-31G(2df,p) Fr
 eq
 ----------------------------------------------------------------------

 Structure from the checkpoint file:  "/scratch/puck/g09_c9ad4604-70a0-4ccc-b433-4985f43e07ff/Gau-128792.chk"
 -----
 titel
 -----
 Charge =  0 Multiplicity = 1

                         Standard orientation:
 ---------------------------------------------------------------------
 Center     Atomic      Atomic             Coordinates (Angstroms)
 Number     Number       Type             X           Y           Z
 ---------------------------------------------------------------------
      1          6           0       -3.074019   -0.298111   -0.661024
      2          6           0       -2.173982   -0.485052    0.576270
      3          6           0       -0.734334   -0.133047    0.311923
      4          6           0        0.223827   -1.049979    0.099398
      5          6           0        1.633340   -0.664660   -0.056557
      6          8           0        2.538388   -1.466787   -0.172358
      7          6           0        1.908869    0.837164    0.018918
      8          8           0        0.810376    1.622757   -0.401680
      9          6           0       -0.376871    1.334002    0.298132
     10          1           0       -4.110177   -0.550831   -0.418460
     11          1           0       -3.058608    0.734307   -1.022860
     12          1           0       -2.746005   -0.944948   -1.479598
     13          1           0       -2.554727    0.142077    1.393707
     14          1           0       -2.236264   -1.522957    0.917908
     15          1           0        0.009845   -2.115363    0.094019
     16          1           0        2.198780    1.078967    1.058164
     17          1           0        2.752270    1.080979   -0.630074
     18          1           0       -0.319384    1.692125    1.345277
     19          1           0       -1.166831    1.915977   -0.188138
 ---------------------------------------------------------------------

 SCF Done:  E(RB3LYP) =  -423.215673654     A.U. after    1 cycles

 The electronic state is 1-A.
 Alpha  occ. eigenvalues --  -19.15353 -19.12071 -10.26153 -10.24865 -10.23467
 Alpha  occ. eigenvalues --  -10.22053 -10.20693 -10.19384 -10.18997  -1.05259
 Alpha  occ. eigenvalues --   -1.02764  -0.83643  -0.76392  -0.75038  -0.66531
 Alpha  occ. eigenvalues --   -0.65342  -0.58021  -0.52945  -0.50997  -0.50248
 Alpha  occ. eigenvalues --   -0.45931  -0.45406  -0.43600  -0.42103  -0.41009
 Alpha  occ. eigenvalues --   -0.40190  -0.39245  -0.37589  -0.36991  -0.35921
 Alpha  occ. eigenvalues --   -0.32479  -0.28498  -0.26639  -0.23052
 Alpha virt. eigenvalues --   -0.05095   0.05432   0.07738   0.10146   0.11576
 Alpha virt. eigenvalues --    0.12410   0.13707   0.14604   0.15323   0.15717
 Alpha virt. eigenvalues --    0.16980   0.18491   0.19481   0.20936   0.21906

 Mulliken charges:
               1
     1  C   -0.375594
     2  C   -0.279418
     3  C    0.290726
     4  C   -0.264085
     5  C    0.356847
     6  O   -0.326866
     7  C   -0.193314
     8  O   -0.238062
     9  C   -0.163605
    10  H    0.124486
    11  H    0.126260
    12  H    0.133372
    13  H    0.111771
    14  H    0.117122
    15  H    0.101032
    16  H    0.109384
    17  H    0.138544
    18  H    0.106299
    19  H    0.125100
 Sum of Mulliken charges =   0.00000

 Dipole moment (field-independent basis, Debye):
    X=             -3.5352    Y=              1.2262    Z=              1.2325  Tot=              3.9396
 Quadrupole moment (field-independent basis, Debye-Ang):
   XX=            -55.6607   YY=            -56.9584   ZZ=            -52.9905
   XY=              5.3877   XZ=              0.6775   YZ=              1.1666

  Exact polarizability: 108.233  -7.922  77.620  -3.370   2.873  57.388
 Approx polarizability: 154.001 -27.449 121.763  -9.954   5.747  89.157

                      1                      2                      3
                      A                      A                      A
 Frequencies --     58.9766               102.7572               135.4754
 Red. masses --      2.5042                 2.6304                 4.0770
 Frc consts  --      0.0051                 0.0164                 0.0441
 IR Inten    --      0.4263                 1.0335                 2.4355

                      4                      5                      6
                      A                      A                      A
 Frequencies --    193.7061               247.4122               284.2629
 Red. masses --      1.2543                 2.6776                 2.6282
 Frc consts  --      0.0277                 0.0966                 0.1251
 IR Inten    --      0.4150                 1.4680                 5.5441

                      7                      8                      9
                      A                      A                      A
 Frequencies --    309.9935               438.2328               469.3959
 Red. masses --      2.2211                 3.5557                 4.6767
 Frc consts  --      0.1258                 0.4023                 0.6071
 IR Inten    --      4.3330                 4.9134                12.0527

                     10                     11                     12
                      A                      A                      A
 Frequencies --    481.6695               556.0960               564.9099
 Red. masses --      4.9385                 3.0712                 2.6031
 Frc consts  --      0.6751                 0.5596                 0.4894
 IR Inten    --      3.8114                 1.9606                 2.9725

                     13                     14                     15
                      A                      A                      A
 Frequencies --    647.0781               786.3349               854.8393
 Red. masses --      4.5732                 1.2367                 2.7075
 Frc consts  --      1.1282                 0.4505                 1.1657
 IR Inten    --      3.7404                 2.5204                 3.1200

                     16                     17                     18
                      A                      A                      A
 Frequencies --    894.2472               903.6214               944.5564
 Red. masses --      2.0622                 1.9882                 2.3094
 Frc consts  --      0.9716                 0.9565                 1.2140
 IR Inten    --     10.8439                12.3758                 9.0949

                     19                     20                     21
                      A                      A                      A
 Frequencies --    983.8035               997.9668              1041.5314
 Red. masses --      3.1079                 1.8216                 2.2662
 Frc consts  --      1.7723                 1.0689                 1.4484
 IR Inten    --     11.6934                11.5102                 6.7931

                     22                     23                     24
                      A                      A                      A
 Frequencies --   1079.5418              1091.0480              1152.7747
 Red. masses --      1.9203                 1.6712                 4.0921
 Frc consts  --      1.3185                 1.1721                 3.2039
 IR Inten    --     17.1349                 3.8657                31.7408

                     25                     26                     27
                      A                      A                      A
 Frequencies --   1173.5499              1232.3740              1267.4972
 Red. masses --      2.3978                 1.2407                 1.2804
 Frc consts  --      1.9457                 1.1102                 1.2119
 IR Inten    --     24.0263                 6.5811                 6.7040

                     28                     29                     30
                      A                      A                      A
 Frequencies --   1277.7330              1302.5341              1343.8601
 Red. masses --      2.4149                 1.1924                 1.4068
 Frc consts  --      2.3228                 1.1919                 1.4969
 IR Inten    --    109.0375                 5.8905                 8.4179

                     31                     32                     33
                      A                      A                      A
 Frequencies --   1344.2988              1366.9734              1409.5476
 Red. masses --      1.5691                 1.4796                 1.3652
 Frc consts  --      1.6707                 1.6290                 1.5981
 IR Inten    --     12.1609                 2.2828                 2.5923

                     34                     35                     36
                      A                      A                      A
 Frequencies --   1412.4336              1465.2887              1479.0284
 Red. masses --      1.3888                 1.0749                 1.0938
 Frc consts  --      1.6324                 1.3597                 1.4097
 IR Inten    --      4.0017                 2.1959                 4.2696

                     37                     38                     39
                      A                      A                      A
 Frequencies --   1485.0959              1498.4133              1506.8525
 Red. masses --      1.0683                 1.0428                 1.0803
 Frc consts  --      1.3882                 1.3795                 1.4453
 IR Inten    --      4.1076                 7.5809                 3.6927

                     40                     41                     42
                      A                      A                      A
 Frequencies --   1688.7070              1781.8787              2914.5706
 Red. masses --      7.6405                11.7345                 1.0723
 Frc consts  --     12.8376                21.9519                 5.3667
 IR Inten    --     50.9906               256.0942                42.1406

                     43                     44                     45
                      A                      A                      A
 Frequencies --   2944.2661              3020.6482              3043.1925
 Red. masses --      1.0707                 1.0646                 1.0347
 Frc consts  --      5.4686                 5.7231                 5.6458
 IR Inten    --     41.7864                22.5709                20.4440

                     46                     47                     48
                      A                      A                      A
 Frequencies --   3069.6346              3076.5389              3115.2460
 Red. masses --      1.0858                 1.0968                 1.1015
 Frc consts  --      6.0280                 6.1164                 6.2981
 IR Inten    --     25.3434                 7.3748                30.8902

                     49                     50                     51
                      A                      A                      A
 Frequencies --   3116.5008              3120.7299              3169.8862
 Red. masses --      1.0904                 1.1030                 1.0912
 Frc consts  --      6.2395                 6.3289                 6.4602
 IR Inten    --     10.8969                24.8781                 7.2935

 - Thermochemistry -
 -------------------
 Temperature   298.150 Kelvin.  Pressure   1.00000 Atm.
 Atom     1 has atomic number  6 and mass  12.00000

 Molecular mass:   126.06808 amu.
 Principal axes and moments of inertia in atomic units:
                           1         2         3
     Eigenvalues --   608.935101611.873682047.61008
           X            0.99956   0.02828   0.00914
           Y           -0.02843   0.99947   0.01574
           Z           -0.00869  -0.01600   0.99983
 This molecule is an asymmetric top.
 Rotational symmetry number  1.
 Warning -- assumption of classical behavior for rotation
           may cause significant error
 Rotational temperatures (Kelvin)      0.14224     0.05373     0.04230
 Rotational constants (GHZ):           2.96377     1.11965     0.88139
 Zero-point vibrational energy     417780.9 (Joules/Mol)
                                   99.85203 (Kcal/Mol)
 Warning -- explicit consideration of  12 degrees of freedom as
           vibrations may cause significant error
 Vibrational temperatures:     84.85   147.84   194.92   278.70   355.97
          (Kelvin)            408.99   446.01   630.52   675.36   693.01
                              800.10   812.78   931.00  1131.36  1229.92
                             1286.62  1300.11  1359.00  1415.47  1435.85
                             1498.53  1553.22  1569.77  1658.58  1688.47
                             1773.11  1823.64  1838.37  1874.05  1933.51
                             1934.14  1966.77  2028.02  2032.17  2108.22
                             2127.99  2136.72  2155.88  2168.02  2429.67
                             2563.72  4193.41  4236.14  4346.03  4378.47
                             4416.51  4426.45  4482.14  4483.94  4490.03
                             4560.75

 Zero-point correction=                           0.159124 (Hartree/Particle)
 Thermal correction to Energy=                    0.167964
 Thermal correction to Enthalpy=                  0.168908
 Thermal correction to Gibbs Free Energy=         0.125032
 Sum of electronic and zero-point Energies=           -423.056549
 Sum of electronic and thermal Energies=              -423.047710
 Sum of electronic and thermal Enthalpies=            -423.046766
 Sum of electronic and thermal Free Energies=         -423.090642

                     E (Thermal)             CV                S
                      KCal/Mol        Cal/Mol-Kelvin    Cal/Mol-Kelvin
 Total                  105.399             32.467             92.346
 Electronic               0.000              0.000              0.000
 Translational            0.889              2.981             40.409
 Rotational               0.889              2.981             29.087
 Vibrational            103.621             26.506             22.850
 Vibration     1          0.596              1.974              4.491
 Vibration     2          0.605              1.947              3.401
 Vibration     3          0.613              1.918              2.867
 Vibration     4          0.635              1.849              2.192
 Vibration     5          0.661              1.767              1.749
 Vibration     6          0.683              1.703              1.508
 Vibration     7          0.699              1.655              1.362
 Vibration     8          0.798              1.387              0.832
 Vibration     9          0.827              1.318              0.739
 Vibration    10          0.838              1.291              0.706
 Vibration    11          0.912              1.126              0.532
 Vibration    12          0.921              1.107              0.514

 Optimization completed.
    -- Stationary point found.
 Normal termination of Gaussian 09 at Tue Jan 28 12:57:44 2020.
