 Gaussian 09, Revision D.01,
 Gaussian 09:  ES64L-G09RevD.01 24-Apr-2013

 -----------------------------
 # b3lyp 6-31G(2df,p) opt Freq
 -----------------------------

 -----
 titel
 -----
 Symbolic Z-matrix:
 Charge =  0 Multiplicity = 1

 SCF Done:  E(RB3LYP) =  -423.195542099     A.U. after   13 cycles
 Optimization completed.
    -- Stationary point found.
 Normal termination of Gaussian 09 at Tue Jan 28 03:58:31 2020.

 ----------------------------------------------------------------------
 #N Geom=AllCheck Guess=TCheck SCRF=Check GenChk RB3LYP/6-31G(2df,p) Fr
 eq
 ----------------------------------------------------------------------

 Structure from the checkpoint file:  "/scratch/puck/g09_590238b4-53e2-45ff-a5e0-933173b0c725/Gau-80806.chk"
 -----
 titel
 -----
 Charge =  0 Multiplicity = 1

                         Standard orientation:
 ---------------------------------------------------------------------
 Center     Atomic      Atomic             Coordinates (Angstroms)
 Number     Number       Type             X           Y           Z
 ---------------------------------------------------------------------
      1          6           0        2.477763   -0.038332   -0.026559
      2          6           0        1.088312    0.293726   -0.552832
      3          8           0        0.429462   -0.923906   -0.943359
      4          6           0       -0.861041   -1.031460   -0.358142
      5          8           0       -1.676399    0.053589   -0.783973
      6          6           0       -1.150830    1.301722   -0.324799
      7          6           0        0.165657    1.049088    0.445033
      8          6           0       -0.168745    0.117964    1.583095
      9          6           0       -0.733950   -1.008593    1.148603
     10          1           0        3.021416   -0.628051   -0.769932
     11          1           0        3.047613    0.875858    0.171625
     12          1           0        2.414798   -0.624335    0.894082
     13          1           0        1.180020    0.918467   -1.453985
     14          1           0       -1.312408   -1.935947   -0.764402
     15          1           0       -0.962438    1.938411   -1.199348
     16          1           0       -1.894117    1.794971    0.314430
     17          1           0        0.621589    1.990813    0.756748
     18          1           0        0.029408    0.361478    2.620414
     19          1           0       -1.073377   -1.833813    1.762625
 ---------------------------------------------------------------------

 SCF Done:  E(RB3LYP) =  -423.195542099     A.U. after    1 cycles

 The electronic state is 1-A.
 Alpha  occ. eigenvalues --  -19.13784 -19.13613 -10.27488 -10.23604 -10.23068
 Alpha  occ. eigenvalues --  -10.19971 -10.18894 -10.18267 -10.17344  -1.06744
 Alpha  occ. eigenvalues --   -0.99431  -0.82136  -0.78185  -0.72249  -0.64776
 Alpha  occ. eigenvalues --   -0.63219  -0.60106  -0.53586  -0.50165  -0.49311
 Alpha  occ. eigenvalues --   -0.47678  -0.44903  -0.42492  -0.41708  -0.40673
 Alpha  occ. eigenvalues --   -0.38874  -0.37561  -0.37266  -0.35168  -0.32703
 Alpha  occ. eigenvalues --   -0.31757  -0.27412  -0.25122  -0.23815
 Alpha virt. eigenvalues --    0.00514   0.08499   0.11107   0.12833   0.13395
 Alpha virt. eigenvalues --    0.14568   0.15064   0.16180   0.16490   0.17142
 Alpha virt. eigenvalues --    0.17519   0.19082   0.20172   0.20380   0.21616

 Mulliken charges:
               1
     1  C   -0.410295
     2  C    0.168380
     3  O   -0.287892
     4  C    0.164791
     5  O   -0.267636
     6  C   -0.067207
     7  C   -0.131493
     8  C   -0.100400
     9  C   -0.068112
    10  H    0.127345
    11  H    0.107020
    12  H    0.124280
    13  H    0.077168
    14  H    0.087902
    15  H    0.101748
    16  H    0.097520
    17  H    0.074332
    18  H    0.098280
    19  H    0.104268
 Sum of Mulliken charges =   0.00000

 Dipole moment (field-independent basis, Debye):
    X=              0.8076    Y=              1.1574    Z=              1.6315  Tot=              2.1572
 Quadrupole moment (field-independent basis, Debye-Ang):
   XX=            -55.3118   YY=            -49.6646   ZZ=            -53.5837
   XY=              2.3098   XZ=             -1.3210   YZ=             -1.2752

  Exact polarizability:  75.021   5.208  77.428  -0.293  -0.963  70.364
 Approx polarizability: 104.628  12.143 123.187   2.402   4.281 106.685

                      1                      2                      3
                      A                      A                      A
 Frequencies --    132.4281               235.4685               260.6429
 Red. masses --      3.7562                 1.0437                 2.4732
 Frc consts  --      0.0388                 0.0341                 0.0990
 IR Inten    --      0.9131                 0.0571                 1.3778

                      4                      5                      6
                      A                      A                      A
 Frequencies --    289.3745               381.6903               413.0749
 Red. masses --      2.5365                 2.4762                 4.2273
 Frc consts  --      0.1251                 0.2125                 0.4250
 IR Inten    --      1.3342                 0.4353                 1.4631

                      7                      8                      9
                      A                      A                      A
 Frequencies --    469.5721               494.5057               630.2327
 Red. masses --      4.7299                 3.3526                 5.6326
 Frc consts  --      0.6145                 0.4830                 1.3181
 IR Inten    --      6.2106                 6.8520                 3.1419

                     10                     11                     12
                      A                      A                      A
 Frequencies --    681.1613               699.3912               724.2851
 Red. masses --      5.4115                 3.7577                 1.7577
 Frc consts  --      1.4793                 1.0830                 0.5433
 IR Inten    --      1.1090                 0.1969                 9.3286

                     13                     14                     15
                      A                      A                      A
 Frequencies --    792.0551               843.7423               875.7347
 Red. masses --      2.6557                 2.9112                 3.5069
 Frc consts  --      0.9816                 1.2211                 1.5846
 IR Inten    --      7.3070                10.7194                18.8719

                     16                     17                     18
                      A                      A                      A
 Frequencies --    927.0313               955.9224               958.0979
 Red. masses --      2.2578                 2.1840                 1.7449
 Frc consts  --      1.1432                 1.1758                 0.9437
 IR Inten    --     14.1471                87.0154                22.0388

                     19                     20                     21
                      A                      A                      A
 Frequencies --    961.2091               991.3371              1016.7598
 Red. masses --      2.1502                 2.3454                 2.5179
 Frc consts  --      1.1705                 1.3580                 1.5337
 IR Inten    --     34.6253                20.0422                11.5213

                     22                     23                     24
                      A                      A                      A
 Frequencies --   1052.6066              1063.0582              1096.0074
 Red. masses --      1.9512                 2.0735                 3.1563
 Frc consts  --      1.2738                 1.3806                 2.2339
 IR Inten    --     26.9994                61.1845                 2.1635

                     25                     26                     27
                      A                      A                      A
 Frequencies --   1134.9350              1145.0084              1166.4022
 Red. masses --      1.5238                 2.4336                 1.7332
 Frc consts  --      1.1564                 1.8798                 1.3893
 IR Inten    --      6.5799                 7.5884                37.5556

                     28                     29                     30
                      A                      A                      A
 Frequencies --   1223.1482              1267.2728              1296.7248
 Red. masses --      1.1170                 1.5460                 1.5707
 Frc consts  --      0.9846                 1.4628                 1.5561
 IR Inten    --      8.9726                11.2809                11.5489

                     31                     32                     33
                      A                      A                      A
 Frequencies --   1329.5917              1342.8922              1372.1123
 Red. masses --      1.2315                 1.2234                 1.3629
 Frc consts  --      1.2827                 1.2999                 1.5118
 IR Inten    --      0.3419                 0.8808                12.4303

                     34                     35                     36
                      A                      A                      A
 Frequencies --   1384.1608              1390.0744              1405.2525
 Red. masses --      1.2799                 1.6010                 1.3380
 Frc consts  --      1.4448                 1.8227                 1.5567
 IR Inten    --     12.0493                13.1623                 9.3798

                     37                     38                     39
                      A                      A                      A
 Frequencies --   1410.4339              1484.7039              1498.4275
 Red. masses --      1.4204                 1.0505                 1.0486
 Frc consts  --      1.6648                 1.3643                 1.3872
 IR Inten    --      6.4220                 2.3360                 2.1350

                     40                     41                     42
                      A                      A                      A
 Frequencies --   1519.3581              1678.8212              2985.5974
 Red. masses --      1.0903                 5.9439                 1.0843
 Frc consts  --      1.4829                 9.8704                 5.6947
 IR Inten    --      0.7200                 2.6457                41.4952

                     43                     44                     45
                      A                      A                      A
 Frequencies --   3006.9503              3039.3750              3046.4112
 Red. masses --      1.0559                 1.0360                 1.1095
 Frc consts  --      5.6250                 5.6389                 6.0667
 IR Inten    --     67.4467                19.0641                40.8262

                     46                     47                     48
                      A                      A                      A
 Frequencies --   3095.3025              3111.7529              3125.1908
 Red. masses --      1.0870                 1.1000                 1.1020
 Frc consts  --      6.1362                 6.2757                 6.3415
 IR Inten    --     20.9533                24.0359                20.7941

                     49                     50                     51
                      A                      A                      A
 Frequencies --   3128.2480              3185.9654              3212.4085
 Red. masses --      1.0910                 1.0864                 1.1037
 Frc consts  --      6.2905                 6.4971                 6.7104
 IR Inten    --     28.9581                 7.2078                14.1170

 - Thermochemistry -
 -------------------
 Temperature   298.150 Kelvin.  Pressure   1.00000 Atm.
 Atom     1 has atomic number  6 and mass  12.00000

 Molecular mass:   126.06808 amu.
 Principal axes and moments of inertia in atomic units:
                           1         2         3
     Eigenvalues --   675.677391048.112361064.60373
           X            0.99992  -0.00210   0.01272
           Y           -0.00861   0.62553   0.78015
           Z            0.00959   0.78020  -0.62546
 This molecule is an asymmetric top.
 Rotational symmetry number  1.
 Warning -- assumption of classical behavior for rotation
           may cause significant error
 Rotational temperatures (Kelvin)      0.12819     0.08264     0.08136
 Rotational constants (GHZ):           2.67101     1.72190     1.69522
 Zero-point vibrational energy     424267.0 (Joules/Mol)
                                  101.40226 (Kcal/Mol)
 Warning -- explicit consideration of   8 degrees of freedom as
           vibrations may cause significant error
 Vibrational temperatures:    190.53   338.79   375.01   416.34   549.17
          (Kelvin)            594.32   675.61   711.48   906.76   980.04
                             1006.27  1042.08  1139.59  1213.96  1259.99
                             1333.79  1375.36  1378.49  1382.96  1426.31
                             1462.89  1514.46  1529.50  1576.91  1632.92
                             1647.41  1678.19  1759.84  1823.32  1865.70
                             1912.98  1932.12  1974.16  1991.50  2000.00
                             2021.84  2029.30  2136.16  2155.90  2186.01
                             2415.45  4295.60  4326.33  4372.98  4383.10
                             4453.44  4477.11  4496.45  4500.85  4583.89
                             4621.93

 Zero-point correction=                           0.161595 (Hartree/Particle)
 Thermal correction to Energy=                    0.168813
 Thermal correction to Enthalpy=                  0.169757
 Thermal correction to Gibbs Free Energy=         0.130367
 Sum of electronic and zero-point Energies=           -423.033947
 Sum of electronic and thermal Energies=              -423.026729
 Sum of electronic and thermal Enthalpies=            -423.025785
 Sum of electronic and thermal Free Energies=         -423.065175

                     E (Thermal)             CV                S
                      KCal/Mol        Cal/Mol-Kelvin    Cal/Mol-Kelvin
 Total                  105.932             29.569             82.904
 Electronic               0.000              0.000              0.000
 Translational            0.889              2.981             40.409
 Rotational               0.889              2.981             28.113
 Vibrational            104.154             23.608             14.382
 Vibration     1          0.613              1.921              2.910
 Vibration     2          0.655              1.787              1.837
 Vibration     3          0.669              1.745              1.657
 Vibration     4          0.686              1.693              1.478
 Vibration     5          0.751              1.509              1.032
 Vibration     6          0.777              1.442              0.916
 Vibration     7          0.827              1.318              0.739
 Vibration     8          0.850              1.262              0.672

 Optimization completed.
    -- Stationary point found.
 Normal termination of Gaussian 09 at Tue Jan 28 04:41:40 2020.
