 Gaussian 09, Revision D.01,
 Gaussian 09:  ES64L-G09RevD.01 24-Apr-2013

 -----------------------------
 # b3lyp 6-31G(2df,p) opt Freq
 -----------------------------

 -----
 titel
 -----
 Symbolic Z-matrix:
 Charge =  0 Multiplicity = 1

 SCF Done:  E(RB3LYP) =  -423.167637865     A.U. after   14 cycles
 Optimization completed.
    -- Stationary point found.
 Normal termination of Gaussian 09 at Mon Jan 27 16:56:16 2020.

 ----------------------------------------------------------------------
 #N Geom=AllCheck Guess=TCheck SCRF=Check GenChk RB3LYP/6-31G(2df,p) Fr
 eq
 ----------------------------------------------------------------------

 Structure from the checkpoint file:  "/scratch/puck/g09_a627eb9c-d15d-4c24-8ad8-c3a8f9d12bb6/Gau-37969.chk"
 -----
 titel
 -----
 Charge =  0 Multiplicity = 1

                         Standard orientation:
 ---------------------------------------------------------------------
 Center     Atomic      Atomic             Coordinates (Angstroms)
 Number     Number       Type             X           Y           Z
 ---------------------------------------------------------------------
      1          8           0        0.386742   -0.383802    1.509088
      2          6           0       -0.034036   -0.094493    0.173206
      3          6           0       -0.925183    1.184590    0.088416
      4          6           0       -2.383002    0.694970   -0.102692
      5          6           0       -2.217975   -0.762716   -0.457007
      6          6           0       -0.958141   -1.180460   -0.343534
      7          6           0        1.223944    0.036635   -0.666887
      8          6           0        2.522178   -0.511852   -0.262025
      9          8           0        2.253420    0.892475   -0.179928
     10          1           0       -0.392931   -0.667078    1.997143
     11          1           0       -0.778888    1.792120    0.983307
     12          1           0       -0.620688    1.792912   -0.767930
     13          1           0       -2.994841    0.811180    0.801973
     14          1           0       -2.905450    1.252046   -0.888741
     15          1           0       -3.055470   -1.387190   -0.751197
     16          1           0       -0.601042   -2.188871   -0.521688
     17          1           0        1.016243    0.148595   -1.732778
     18          1           0        2.602298   -1.019101    0.694890
     19          1           0        3.242757   -0.804038   -1.025119
 ---------------------------------------------------------------------

 SCF Done:  E(RB3LYP) =  -423.167637865     A.U. after    1 cycles

 The electronic state is 1-A.
 Alpha  occ. eigenvalues --  -19.14057 -19.13578 -10.24071 -10.22929 -10.22190
 Alpha  occ. eigenvalues --  -10.19373 -10.19141 -10.18359 -10.18012  -1.06312
 Alpha  occ. eigenvalues --   -1.01703  -0.84007  -0.72682  -0.71646  -0.65677
 Alpha  occ. eigenvalues --   -0.61668  -0.57105  -0.55334  -0.51699  -0.48530
 Alpha  occ. eigenvalues --   -0.47775  -0.44863  -0.43751  -0.39796  -0.38510
 Alpha  occ. eigenvalues --   -0.37714  -0.37251  -0.35591  -0.35197  -0.33071
 Alpha  occ. eigenvalues --   -0.29651  -0.26990  -0.26365  -0.24915
 Alpha virt. eigenvalues --    0.00596   0.07807   0.10757   0.11735   0.11880
 Alpha virt. eigenvalues --    0.12985   0.13824   0.13958   0.15806   0.16233
 Alpha virt. eigenvalues --    0.17203   0.18386   0.20345   0.21105   0.21620

 Mulliken charges:
               1
     1  O   -0.474280
     2  C    0.343129
     3  C   -0.269158
     4  C   -0.269228
     5  C   -0.072105
     6  C   -0.142722
     7  C    0.063652
     8  C   -0.183846
     9  O   -0.246496
    10  H    0.274759
    11  H    0.117893
    12  H    0.111709
    13  H    0.109188
    14  H    0.112579
    15  H    0.100762
    16  H    0.098738
    17  H    0.089534
    18  H    0.130345
    19  H    0.105546
 Sum of Mulliken charges =   0.00000

 Dipole moment (field-independent basis, Debye):
    X=             -2.4777    Y=             -1.5325    Z=             -0.6067  Tot=              2.9759
 Quadrupole moment (field-independent basis, Debye-Ang):
   XX=            -52.2796   YY=            -53.1781   ZZ=            -51.6439
   XY=             -3.9344   XZ=             -2.8273   YZ=             -0.4854

  Exact polarizability:  97.826  -6.793  69.844   2.298   0.765  62.918
 Approx polarizability: 135.076 -10.333 106.027   6.983   0.671  97.077

                      1                      2                      3
                      A                      A                      A
 Frequencies --     55.3262                64.3290               183.1471
 Red. masses --      2.3397                 3.9357                 3.3060
 Frc consts  --      0.0042                 0.0096                 0.0653
 IR Inten    --      0.4842                 3.1592                 2.5587

                      4                      5                      6
                      A                      A                      A
 Frequencies --    241.3343               252.2476               281.0857
 Red. masses --      1.2658                 2.2943                 3.3235
 Frc consts  --      0.0434                 0.0860                 0.1547
 IR Inten    --     66.2411                 2.4488                11.3743

                      7                      8                      9
                      A                      A                      A
 Frequencies --    374.9186               390.7523               487.3407
 Red. masses --      4.3687                 3.1926                 2.9958
 Frc consts  --      0.3618                 0.2872                 0.4192
 IR Inten    --      1.5981                 5.5047                 2.8598

                     10                     11                     12
                      A                      A                      A
 Frequencies --    504.4726               668.8163               742.3180
 Red. masses --      2.6995                 2.6347                 2.2434
 Frc consts  --      0.4048                 0.6944                 0.7283
 IR Inten    --      7.1822                25.6634                 1.2980

                     13                     14                     15
                      A                      A                      A
 Frequencies --    761.6242               791.6035               832.1817
 Red. masses --      2.2096                 2.9933                 1.6740
 Frc consts  --      0.7552                 1.1051                 0.6830
 IR Inten    --     12.7086                 3.3284                14.1257

                     16                     17                     18
                      A                      A                      A
 Frequencies --    866.3088               896.3913               925.8045
 Red. masses --      6.7566                 2.5094                 2.5731
 Frc consts  --      2.9876                 1.1880                 1.2994
 IR Inten    --     15.0360                35.3748                 5.7132

                     19                     20                     21
                      A                      A                      A
 Frequencies --    970.8048               981.1346               986.2088
 Red. masses --      2.1685                 1.7524                 1.5798
 Frc consts  --      1.2041                 0.9939                 0.9053
 IR Inten    --     32.4764                12.0842                 3.1909

                     22                     23                     24
                      A                      A                      A
 Frequencies --   1016.3751              1050.7039              1095.1634
 Red. masses --      1.7543                 2.0181                 1.3953
 Frc consts  --      1.0677                 1.3127                 0.9860
 IR Inten    --     10.7225                 3.0054                 3.1206

                     25                     26                     27
                      A                      A                      A
 Frequencies --   1112.8466              1124.3802              1160.1602
 Red. masses --      1.5863                 1.5251                 1.3805
 Frc consts  --      1.1575                 1.1360                 1.0948
 IR Inten    --     26.7759                14.4308                 0.1966

                     28                     29                     30
                      A                      A                      A
 Frequencies --   1165.0375              1177.9204              1195.4673
 Red. masses --      1.8702                 1.4262                 1.5008
 Frc consts  --      1.4956                 1.1659                 1.2637
 IR Inten    --      5.5381                 0.2584                37.6809

                     31                     32                     33
                      A                      A                      A
 Frequencies --   1239.4734              1281.9033              1296.2831
 Red. masses --      1.3612                 1.3167                 1.6304
 Frc consts  --      1.2321                 1.2748                 1.6141
 IR Inten    --     15.6126                22.8982                11.8182

                     34                     35                     36
                      A                      A                      A
 Frequencies --   1318.7283              1342.7279              1381.5048
 Red. masses --      1.5273                 1.4696                 1.6953
 Frc consts  --      1.5649                 1.5611                 1.9064
 IR Inten    --      1.0008                16.3276                21.4021

                     37                     38                     39
                      A                      A                      A
 Frequencies --   1451.8698              1475.5568              1495.2086
 Red. masses --      1.7828                 1.0797                 1.0963
 Frc consts  --      2.2141                 1.3850                 1.4440
 IR Inten    --      7.3415                 1.5069                 3.9160

                     40                     41                     42
                      A                      A                      A
 Frequencies --   1520.3443              1679.8277              3019.4708
 Red. masses --      1.4685                 6.4496                 1.0667
 Frc consts  --      1.9998                10.7229                 5.7302
 IR Inten    --      3.2420                 4.9848                37.1940

                     43                     44                     45
                      A                      A                      A
 Frequencies --   3052.5333              3069.3144              3088.0177
 Red. masses --      1.0908                 1.0682                 1.0668
 Frc consts  --      5.9884                 5.9292                 5.9937
 IR Inten    --     13.2562                21.9659                28.9891

                     46                     47                     48
                      A                      A                      A
 Frequencies --   3096.3879              3121.1014              3178.1039
 Red. masses --      1.0735                 1.1018                 1.0849
 Frc consts  --      6.0641                 6.3238                 6.4559
 IR Inten    --     27.9055                16.1875                 7.8931

                     49                     50                     51
                      A                      A                      A
 Frequencies --   3196.6443              3205.1684              3820.6782
 Red. masses --      1.1157                 1.1035                 1.0664
 Frc consts  --      6.7169                 6.6790                 9.1718
 IR Inten    --     13.7671                16.1040                17.7568

 - Thermochemistry -
 -------------------
 Temperature   298.150 Kelvin.  Pressure   1.00000 Atm.
 Atom     1 has atomic number  8 and mass  15.99491

 Molecular mass:   126.06808 amu.
 Principal axes and moments of inertia in atomic units:
                           1         2         3
     Eigenvalues --   507.751941547.769111626.87619
           X            0.99963  -0.02658  -0.00555
           Y            0.02674   0.99919   0.03000
           Z            0.00475  -0.03014   0.99953
 This molecule is an asymmetric top.
 Rotational symmetry number  1.
 Warning -- assumption of classical behavior for rotation
           may cause significant error
 Rotational temperatures (Kelvin)      0.17058     0.05596     0.05324
 Rotational constants (GHZ):           3.55438     1.16603     1.10933
 Zero-point vibrational energy     416821.1 (Joules/Mol)
                                   99.62264 (Kcal/Mol)
 Warning -- explicit consideration of  10 degrees of freedom as
           vibrations may cause significant error
 Vibrational temperatures:     79.60    92.55   263.51   347.23   362.93
          (Kelvin)            404.42   539.42   562.20   701.17   725.82
                              962.28  1068.03  1095.81  1138.94  1197.32
                             1246.42  1289.71  1332.02  1396.77  1411.63
                             1418.93  1462.34  1511.73  1575.69  1601.14
                             1617.73  1669.21  1676.23  1694.76  1720.01
                             1783.32  1844.37  1865.06  1897.35  1931.88
                             1987.67  2088.91  2122.99  2151.27  2187.43
                             2416.89  4344.34  4391.91  4416.05  4442.96
                             4455.01  4490.56  4572.58  4599.25  4611.52
                             5497.10

 Zero-point correction=                           0.158759 (Hartree/Particle)
 Thermal correction to Energy=                    0.167390
 Thermal correction to Enthalpy=                  0.168334
 Thermal correction to Gibbs Free Energy=         0.124894
 Sum of electronic and zero-point Energies=           -423.008879
 Sum of electronic and thermal Energies=              -423.000248
 Sum of electronic and thermal Enthalpies=            -422.999304
 Sum of electronic and thermal Free Energies=         -423.042744

                     E (Thermal)             CV                S
                      KCal/Mol        Cal/Mol-Kelvin    Cal/Mol-Kelvin
 Total                  105.039             32.498             91.426
 Electronic               0.000              0.000              0.000
 Translational            0.889              2.981             40.409
 Rotational               0.889              2.981             28.638
 Vibrational            103.261             26.537             22.380
 Vibration     1          0.596              1.975              4.617
 Vibration     2          0.597              1.971              4.320
 Vibration     3          0.631              1.863              2.296
 Vibration     4          0.658              1.777              1.793
 Vibration     5          0.664              1.759              1.715
 Vibration     6          0.681              1.709              1.527
 Vibration     7          0.746              1.524              1.060
 Vibration     8          0.758              1.490              0.997
 Vibration     9          0.843              1.278              0.691
 Vibration    10          0.860              1.240              0.647

 Optimization completed.
    -- Stationary point found.
 Normal termination of Gaussian 09 at Mon Jan 27 17:54:29 2020.
