 Gaussian 09, Revision D.01,
 Gaussian 09:  ES64L-G09RevD.01 24-Apr-2013

 -----------------------------
 # b3lyp 6-31G(2df,p) opt Freq
 -----------------------------

 -----
 titel
 -----
 Symbolic Z-matrix:
 Charge =  0 Multiplicity = 1

 SCF Done:  E(RB3LYP) =  -423.133098938     A.U. after   14 cycles
 Optimization completed.
    -- Stationary point found.
 Normal termination of Gaussian 09 at Tue Jan 28 14:01:04 2020.

 ----------------------------------------------------------------------
 #N Geom=AllCheck Guess=TCheck SCRF=Check GenChk RB3LYP/6-31G(2df,p) Fr
 eq
 ----------------------------------------------------------------------

 Structure from the checkpoint file:  "/scratch/puck/g09_17a71364-6310-4297-a01e-a7a09c1b4812/Gau-9657.chk"
 -----
 titel
 -----
 Charge =  0 Multiplicity = 1

                         Standard orientation:
 ---------------------------------------------------------------------
 Center     Atomic      Atomic             Coordinates (Angstroms)
 Number     Number       Type             X           Y           Z
 ---------------------------------------------------------------------
      1          8           0       -2.755684   -0.756870   -0.281873
      2          6           0       -1.808739   -0.083757    0.545714
      3          6           0       -0.403368   -0.634153    0.322132
      4          6           0        0.424426   -0.231260   -0.963500
      5          6           0        1.679711   -1.074145   -0.738279
      6          6           0        1.945921   -0.894330    0.563185
      7          6           0        0.834297    0.042486    1.027178
      8          6           0        0.888147    1.056876   -0.196529
      9          8           0       -0.036399    2.114385   -0.247272
     10          1           0       -2.607066   -0.460435   -1.185043
     11          1           0       -1.859270    0.998709    0.412451
     12          1           0       -2.108653   -0.311514    1.576087
     13          1           0       -0.448450   -1.716776    0.470064
     14          1           0       -0.006450   -0.177657   -1.963943
     15          1           0        2.214681   -1.641271   -1.486582
     16          1           0        2.762690   -1.271147    1.162538
     17          1           0        0.814722    0.376538    2.065389
     18          1           0        1.896952    1.407314   -0.447147
     19          1           0        0.315132    2.845821    0.269939
 ---------------------------------------------------------------------

 SCF Done:  E(RB3LYP) =  -423.133098938     A.U. after    1 cycles

 The electronic state is 1-A.
 Alpha  occ. eigenvalues --  -19.14804 -19.12260 -10.23925 -10.20980 -10.19481
 Alpha  occ. eigenvalues --  -10.19353 -10.18398 -10.18089 -10.18004  -1.03281
 Alpha  occ. eigenvalues --   -1.00172  -0.88995  -0.73203  -0.68661  -0.67384
 Alpha  occ. eigenvalues --   -0.61904  -0.54449  -0.52607  -0.51923  -0.50840
 Alpha  occ. eigenvalues --   -0.48797  -0.44706  -0.41828  -0.40659  -0.39606
 Alpha  occ. eigenvalues --   -0.36906  -0.35000  -0.34901  -0.32766  -0.31471
 Alpha  occ. eigenvalues --   -0.29394  -0.27198  -0.25359  -0.22859
 Alpha virt. eigenvalues --    0.01258   0.06985   0.08290   0.11308   0.13040
 Alpha virt. eigenvalues --    0.13552   0.14950   0.16002   0.16648   0.17177
 Alpha virt. eigenvalues --    0.18449   0.18996   0.20222   0.21027   0.22305

 Mulliken charges:
               1
     1  O   -0.422161
     2  C   -0.130985
     3  C    0.044348
     4  C   -0.117519
     5  C   -0.092693
     6  C   -0.092546
     7  C   -0.158637
     8  C    0.163015
     9  O   -0.438328
    10  H    0.281800
    11  H    0.114955
    12  H    0.099660
    13  H    0.077359
    14  H    0.057360
    15  H    0.101120
    16  H    0.100481
    17  H    0.056892
    18  H    0.069705
    19  H    0.286175
 Sum of Mulliken charges =   0.00000

 Dipole moment (field-independent basis, Debye):
    X=              2.2219    Y=              1.4797    Z=              0.1760  Tot=              2.6753
 Quadrupole moment (field-independent basis, Debye-Ang):
   XX=            -58.1982   YY=            -51.2054   ZZ=            -49.1488
   XY=             -1.3572   XZ=              2.0459   YZ=              2.8912

  Exact polarizability:  80.960  -4.307  71.588   1.193   2.796  74.779
 Approx polarizability: 110.494  -4.534 106.792   5.540   4.846 125.835

                      1                      2                      3
                      A                      A                      A
 Frequencies --     68.4583               154.4806               241.3013
 Red. masses --      3.2024                 3.6192                 1.1319
 Frc consts  --      0.0088                 0.0509                 0.0388
 IR Inten    --      2.2919                 1.0476                88.4284

                      4                      5                      6
                      A                      A                      A
 Frequencies --    263.4676               285.3585               303.7843
 Red. masses --      2.6743                 1.3533                 2.8279
 Frc consts  --      0.1094                 0.0649                 0.1538
 IR Inten    --     19.0328                83.7677                12.7210

                      7                      8                      9
                      A                      A                      A
 Frequencies --    336.5957               387.9708               484.3016
 Red. masses --      2.8796                 5.0082                 3.2131
 Frc consts  --      0.1922                 0.4442                 0.4440
 IR Inten    --     23.2506                 1.2332                 9.8507

                     10                     11                     12
                      A                      A                      A
 Frequencies --    548.6810               596.7989               681.6497
 Red. masses --      3.0267                 4.0284                 1.8296
 Frc consts  --      0.5369                 0.8454                 0.5009
 IR Inten    --      2.3363                 2.0123                30.3189

                     13                     14                     15
                      A                      A                      A
 Frequencies --    709.4350               808.6091               874.7239
 Red. masses --      2.9947                 2.0243                 2.5650
 Frc consts  --      0.8880                 0.7798                 1.1563
 IR Inten    --     10.7743                15.3977                10.4308

                     16                     17                     18
                      A                      A                      A
 Frequencies --    889.5751               905.0529               916.1611
 Red. masses --      2.5711                 1.8709                 1.5641
 Frc consts  --      1.1988                 0.9029                 0.7735
 IR Inten    --      2.3267                 1.4976                 0.0902

                     19                     20                     21
                      A                      A                      A
 Frequencies --    930.0773               960.4408               994.4171
 Red. masses --      2.8353                 3.0377                 1.8835
 Frc consts  --      1.4451                 1.6509                 1.0974
 IR Inten    --      9.0424                 5.1776                 5.0336

                     22                     23                     24
                      A                      A                      A
 Frequencies --   1029.5223              1061.4457              1084.3724
 Red. masses --      2.1513                 2.9771                 2.4051
 Frc consts  --      1.3435                 1.9762                 1.6663
 IR Inten    --     65.5407                34.9888                40.3766

                     25                     26                     27
                      A                      A                      A
 Frequencies --   1096.0416              1120.7907              1136.1630
 Red. masses --      1.3724                 3.8043                 1.6162
 Frc consts  --      0.9714                 2.8156                 1.2292
 IR Inten    --      7.6571                72.5647                 3.2963

                     28                     29                     30
                      A                      A                      A
 Frequencies --   1183.6869              1188.9630              1210.9994
 Red. masses --      1.2472                 1.2353                 1.3846
 Frc consts  --      1.0296                 1.0289                 1.1964
 IR Inten    --     23.1511                 5.4508                 7.6107

                     31                     32                     33
                      A                      A                      A
 Frequencies --   1226.1873              1240.6493              1250.7473
 Red. masses --      1.4672                 1.5670                 1.6326
 Frc consts  --      1.2997                 1.4211                 1.5047
 IR Inten    --     17.0635                40.3999                 2.5818

                     34                     35                     36
                      A                      A                      A
 Frequencies --   1288.4576              1328.7285              1353.5184
 Red. masses --      1.3854                 1.5607                 1.3241
 Frc consts  --      1.3551                 1.6235                 1.4292
 IR Inten    --     13.6063                19.1125                 5.0879

                     37                     38                     39
                      A                      A                      A
 Frequencies --   1402.0594              1417.9916              1431.0008
 Red. masses --      1.1632                 1.3276                 1.3201
 Frc consts  --      1.3473                 1.5728                 1.5927
 IR Inten    --     41.2859                16.5808                 6.8504

                     40                     41                     42
                      A                      A                      A
 Frequencies --   1513.9884              1611.8012              3026.0019
 Red. masses --      1.0858                 5.4998                 1.0861
 Frc consts  --      1.4664                 8.4182                 5.8596
 IR Inten    --      1.4711                 1.8340                73.8025

                     43                     44                     45
                      A                      A                      A
 Frequencies --   3035.7295              3067.5163              3107.7587
 Red. masses --      1.0668                 1.0848                 1.0887
 Frc consts  --      5.7922                 6.0139                 6.1951
 IR Inten    --     35.6135                19.6798                69.4796

                     46                     47                     48
                      A                      A                      A
 Frequencies --   3109.9369              3112.6451              3218.0321
 Red. masses --      1.0908                 1.0972                 1.0863
 Frc consts  --      6.2158                 6.2632                 6.6283
 IR Inten    --      2.7722                22.6425                 4.9431

                     49                     50                     51
                      A                      A                      A
 Frequencies --   3244.2913              3819.9041              3822.0007
 Red. masses --      1.1092                 1.0662                 1.0662
 Frc consts  --      6.8783                 9.1662                 9.1765
 IR Inten    --     12.2325                34.6139                11.9248

 - Thermochemistry -
 -------------------
 Temperature   298.150 Kelvin.  Pressure   1.00000 Atm.
 Atom     1 has atomic number  8 and mass  15.99491

 Molecular mass:   126.06808 amu.
 Principal axes and moments of inertia in atomic units:
                           1         2         3
     Eigenvalues --   714.391191257.183701557.37097
           X            0.99987  -0.01621  -0.00170
           Y            0.01624   0.99962   0.02231
           Z            0.00134  -0.02233   0.99975
 This molecule is an asymmetric top.
 Rotational symmetry number  1.
 Warning -- assumption of classical behavior for rotation
           may cause significant error
 Rotational temperatures (Kelvin)      0.12124     0.06890     0.05562
 Rotational constants (GHZ):           2.52626     1.43554     1.15884
 Zero-point vibrational energy     419185.1 (Joules/Mol)
                                  100.18764 (Kcal/Mol)
 Warning -- explicit consideration of  11 degrees of freedom as
           vibrations may cause significant error
 Vibrational temperatures:     98.50   222.26   347.18   379.07   410.57
          (Kelvin)            437.08   484.29   558.20   696.80   789.43
                              858.66   980.74  1020.72  1163.41  1258.53
                             1279.90  1302.17  1318.15  1338.17  1381.86
                             1430.74  1481.25  1527.18  1560.17  1576.96
                             1612.57  1634.68  1703.06  1710.65  1742.36
                             1764.21  1785.02  1799.54  1853.80  1911.74
                             1947.41  2017.25  2040.17  2058.89  2178.29
                             2319.02  4353.74  4367.73  4413.47  4471.37
                             4474.50  4478.40  4630.02  4667.81  5495.98
                             5499.00

 Zero-point correction=                           0.159659 (Hartree/Particle)
 Thermal correction to Energy=                    0.167996
 Thermal correction to Enthalpy=                  0.168940
 Thermal correction to Gibbs Free Energy=         0.126792
 Sum of electronic and zero-point Energies=           -422.973440
 Sum of electronic and thermal Energies=              -422.965103
 Sum of electronic and thermal Enthalpies=            -422.964159
 Sum of electronic and thermal Free Energies=         -423.006307

                     E (Thermal)             CV                S
                      KCal/Mol        Cal/Mol-Kelvin    Cal/Mol-Kelvin
 Total                  105.419             32.631             88.709
 Electronic               0.000              0.000              0.000
 Translational            0.889              2.981             40.409
 Rotational               0.889              2.981             28.727
 Vibrational            103.642             26.669             19.573
 Vibration     1          0.598              1.969              4.197
 Vibration     2          0.620              1.898              2.616
 Vibration     3          0.658              1.777              1.793
 Vibration     4          0.670              1.740              1.639
 Vibration     5          0.683              1.701              1.501
 Vibration     6          0.695              1.667              1.396
 Vibration     7          0.717              1.602              1.228
 Vibration     8          0.756              1.496              1.008
 Vibration     9          0.840              1.285              0.699
 Vibration    10          0.904              1.143              0.547
 Vibration    11          0.955              1.039              0.455

 Optimization completed.
    -- Stationary point found.
 Normal termination of Gaussian 09 at Tue Jan 28 14:51:03 2020.
