 Gaussian 09, Revision D.01,
 Gaussian 09:  ES64L-G09RevD.01 24-Apr-2013

 -----------------------------
 # b3lyp 6-31G(2df,p) opt Freq
 -----------------------------

 -----
 titel
 -----
 Symbolic Z-matrix:
 Charge =  0 Multiplicity = 1

 SCF Done:  E(RB3LYP) =  -423.168229145     A.U. after   14 cycles
 Optimization completed.
    -- Stationary point found.
 Normal termination of Gaussian 09 at Mon Jan 27 16:24:11 2020.

 ----------------------------------------------------------------------
 #N Geom=AllCheck Guess=TCheck SCRF=Check GenChk RB3LYP/6-31G(2df,p) Fr
 eq
 ----------------------------------------------------------------------

 Structure from the checkpoint file:  "/scratch/puck/g09_81bff9fc-f34b-4f1c-9f47-d3354e5cd6e8/Gau-69778.chk"
 -----
 titel
 -----
 Charge =  0 Multiplicity = 1

                         Standard orientation:
 ---------------------------------------------------------------------
 Center     Atomic      Atomic             Coordinates (Angstroms)
 Number     Number       Type             X           Y           Z
 ---------------------------------------------------------------------
      1          6           0        1.401364    1.744008    0.019606
      2          6           0        1.213517    0.244049    0.034785
      3          6           0        2.252299   -0.625599    0.630335
      4          8           0        2.146541   -0.487553   -0.776291
      5          6           0       -0.190471   -0.356245   -0.008863
      6          8           0       -0.327400   -1.560297   -0.081547
      7          6           0       -1.366658    0.555576    0.049540
      8          6           0       -2.609801    0.027487    0.758812
      9          6           0       -2.607510    0.119211   -0.724551
     10          1           0        0.953116    2.191754   -0.873268
     11          1           0        0.951826    2.214069    0.900243
     12          1           0        2.468270    1.978485    0.012567
     13          1           0        3.122160   -0.156496    1.089953
     14          1           0        1.955376   -1.595799    1.021431
     15          1           0       -1.178836    1.618486    0.113588
     16          1           0       -2.507875   -0.958462    1.197095
     17          1           0       -3.187995    0.743076    1.331828
     18          1           0       -2.502944   -0.804223   -1.281862
     19          1           0       -3.182670    0.900988   -1.206844
 ---------------------------------------------------------------------

 SCF Done:  E(RB3LYP) =  -423.168229145     A.U. after    1 cycles

 The electronic state is 1-A.
 Alpha  occ. eigenvalues --  -19.15594 -19.12565 -10.26900 -10.24950 -10.23634
 Alpha  occ. eigenvalues --  -10.20411 -10.20082 -10.20046 -10.19287  -1.08104
 Alpha  occ. eigenvalues --   -1.03353  -0.86746  -0.76561  -0.67804  -0.66293
 Alpha  occ. eigenvalues --   -0.60959  -0.60740  -0.53274  -0.52512  -0.48804
 Alpha  occ. eigenvalues --   -0.46572  -0.45643  -0.43717  -0.41018  -0.40332
 Alpha  occ. eigenvalues --   -0.39735  -0.38948  -0.37573  -0.36734  -0.31704
 Alpha  occ. eigenvalues --   -0.30345  -0.29418  -0.27699  -0.24622
 Alpha virt. eigenvalues --   -0.03021   0.08325   0.10724   0.10876   0.12035
 Alpha virt. eigenvalues --    0.12346   0.13738   0.14190   0.15683   0.16392
 Alpha virt. eigenvalues --    0.17460   0.18686   0.19130   0.20567   0.22462

 Mulliken charges:
               1
     1  C   -0.487760
     2  C    0.298555
     3  C   -0.196418
     4  O   -0.247429
     5  C    0.335800
     6  O   -0.337340
     7  C   -0.132867
     8  C   -0.245579
     9  C   -0.243444
    10  H    0.134388
    11  H    0.127960
    12  H    0.132327
    13  H    0.110870
    14  H    0.134236
    15  H    0.092800
    16  H    0.140805
    17  H    0.118945
    18  H    0.144185
    19  H    0.119966
 Sum of Mulliken charges =   0.00000

 Dipole moment (field-independent basis, Debye):
    X=             -0.8318    Y=              2.9971    Z=              1.6388  Tot=              3.5157
 Quadrupole moment (field-independent basis, Debye-Ang):
   XX=            -50.2543   YY=            -54.7158   ZZ=            -52.9925
   XY=             -0.5208   XZ=              4.0107   YZ=             -1.5814

  Exact polarizability:  96.081  -3.290  74.256   3.695  -1.992  62.039
 Approx polarizability: 122.502  -6.020 115.635   2.436  -0.890  98.623

                      1                      2                      3
                      A                      A                      A
 Frequencies --     32.3609                48.4507               185.0506
 Red. masses --      4.3478                 2.8884                 3.4581
 Frc consts  --      0.0027                 0.0040                 0.0698
 IR Inten    --      1.0842                 0.6089                 0.2627

                      4                      5                      6
                      A                      A                      A
 Frequencies --    238.7704               252.9068               292.5636
 Red. masses --      1.1175                 2.6302                 3.6751
 Frc consts  --      0.0375                 0.0991                 0.1853
 IR Inten    --      0.5896                 1.7513                 5.8321

                      7                      8                      9
                      A                      A                      A
 Frequencies --    327.3857               329.2553               375.6349
 Red. masses --      3.3161                 5.5999                 2.5638
 Frc consts  --      0.2094                 0.3577                 0.2131
 IR Inten    --      4.0513                 2.1100                 4.3471

                     10                     11                     12
                      A                      A                      A
 Frequencies --    400.1198               570.0343               725.8171
 Red. masses --      3.6978                 3.9019                 2.4618
 Frc consts  --      0.3488                 0.7470                 0.7641
 IR Inten    --      1.1318                 8.9000                 3.6317

                     13                     14                     15
                      A                      A                      A
 Frequencies --    754.2010               797.5543               817.2138
 Red. masses --      4.3844                 1.4389                 2.2604
 Frc consts  --      1.4694                 0.5393                 0.8894
 IR Inten    --     11.9910                 0.8959                 5.9763

                     16                     17                     18
                      A                      A                      A
 Frequencies --    825.3707               853.6780               897.5098
 Red. masses --      2.2199                 2.2997                 3.0466
 Frc consts  --      0.8910                 0.9875                 1.4459
 IR Inten    --      1.1496                23.1018                 6.4636

                     19                     20                     21
                      A                      A                      A
 Frequencies --    914.7414               937.4266              1030.0324
 Red. masses --      2.7671                 1.4498                 1.8474
 Frc consts  --      1.3642                 0.7507                 1.1548
 IR Inten    --      0.9948                 1.9277                47.5826

                     22                     23                     24
                      A                      A                      A
 Frequencies --   1048.0623              1080.7474              1095.8229
 Red. masses --      2.1251                 1.5364                 1.4306
 Frc consts  --      1.3753                 1.0573                 1.0121
 IR Inten    --    106.7168                71.5484                 0.7670

                     25                     26                     27
                      A                      A                      A
 Frequencies --   1102.1055              1112.6760              1125.7520
 Red. masses --      1.5830                 1.4913                 1.1046
 Frc consts  --      1.1329                 1.0878                 0.8248
 IR Inten    --      9.3415                 3.7379                 1.3927

                     28                     29                     30
                      A                      A                      A
 Frequencies --   1141.3266              1175.7270              1211.5542
 Red. masses --      1.3415                 1.3393                 1.3453
 Frc consts  --      1.0296                 1.0908                 1.1634
 IR Inten    --      2.6774                 4.8041                 0.1440

                     31                     32                     33
                      A                      A                      A
 Frequencies --   1224.1175              1265.1180              1365.8169
 Red. masses --      2.1775                 2.8875                 2.6096
 Frc consts  --      1.9225                 2.7230                 2.8682
 IR Inten    --      7.0398                12.9410                11.6893

                     34                     35                     36
                      A                      A                      A
 Frequencies --   1410.4026              1415.7366              1452.7971
 Red. masses --      1.8005                 1.4723                 1.0893
 Frc consts  --      2.1103                 1.7387                 1.3545
 IR Inten    --     76.1540                26.4720                 2.8456

                     37                     38                     39
                      A                      A                      A
 Frequencies --   1484.1471              1485.1462              1496.3053
 Red. masses --      1.3485                 1.0528                 1.0512
 Frc consts  --      1.7501                 1.3682                 1.3867
 IR Inten    --     10.1897                 5.6283                12.2160

                     40                     41                     42
                      A                      A                      A
 Frequencies --   1502.8806              1775.2240              3038.5852
 Red. masses --      1.2798                11.2780                 1.0364
 Frc consts  --      1.7031                20.9406                 5.6377
 IR Inten    --      6.5904                77.9674                13.1973

                     43                     44                     45
                      A                      A                      A
 Frequencies --   3082.4868              3103.6341              3125.3629
 Red. masses --      1.0513                 1.1011                 1.1007
 Frc consts  --      5.8854                 6.2493                 6.3347
 IR Inten    --     27.6073                14.7405                18.6574

                     46                     47                     48
                      A                      A                      A
 Frequencies --   3142.0268              3144.5193              3186.9515
 Red. masses --      1.0506                 1.0563                 1.1179
 Frc consts  --      6.1111                 6.1537                 6.6898
 IR Inten    --     12.8739                10.1088                10.2703

                     49                     50                     51
                      A                      A                      A
 Frequencies --   3206.6946              3231.2999              3246.3232
 Red. masses --      1.0898                 1.1189                 1.1163
 Frc consts  --      6.6026                 6.8836                 6.9314
 IR Inten    --      6.5067                 0.4543                 5.1667

 - Thermochemistry -
 -------------------
 Temperature   298.150 Kelvin.  Pressure   1.00000 Atm.
 Atom     1 has atomic number  6 and mass  12.00000

 Molecular mass:   126.06808 amu.
 Principal axes and moments of inertia in atomic units:
                           1         2         3
     Eigenvalues --   533.953911634.451881898.18681
           X            0.99988   0.00869   0.01299
           Y           -0.00841   0.99974  -0.02122
           Z           -0.01318   0.02111   0.99969
 This molecule is an asymmetric top.
 Rotational symmetry number  1.
 Warning -- assumption of classical behavior for rotation
           may cause significant error
 Rotational temperatures (Kelvin)      0.16221     0.05299     0.04563
 Rotational constants (GHZ):           3.37996     1.10419     0.95077
 Zero-point vibrational energy     413222.6 (Joules/Mol)
                                   98.76258 (Kcal/Mol)
 Warning -- explicit consideration of  11 degrees of freedom as
           vibrations may cause significant error
 Vibrational temperatures:     46.56    69.71   266.25   343.54   363.88
          (Kelvin)            420.93   471.03   473.72   540.45   575.68
                              820.15  1044.29  1085.13  1147.50  1175.79
                             1187.52  1228.25  1291.31  1316.11  1348.75
                             1481.98  1507.93  1554.95  1576.64  1585.68
                             1600.89  1619.70  1642.11  1691.61  1743.15
                             1761.23  1820.22  1965.10  2029.25  2036.93
                             2090.25  2135.35  2136.79  2152.85  2162.31
                             2554.15  4371.84  4435.01  4465.43  4496.69
                             4520.67  4524.26  4585.31  4613.71  4649.11
                             4670.73

 Zero-point correction=                           0.157388 (Hartree/Particle)
 Thermal correction to Energy=                    0.166479
 Thermal correction to Enthalpy=                  0.167423
 Thermal correction to Gibbs Free Energy=         0.122451
 Sum of electronic and zero-point Energies=           -423.010841
 Sum of electronic and thermal Energies=              -423.001750
 Sum of electronic and thermal Enthalpies=            -423.000806
 Sum of electronic and thermal Free Energies=         -423.045778

                     E (Thermal)             CV                S
                      KCal/Mol        Cal/Mol-Kelvin    Cal/Mol-Kelvin
 Total                  104.467             33.561             94.653
 Electronic               0.000              0.000              0.000
 Translational            0.889              2.981             40.409
 Rotational               0.889              2.981             28.895
 Vibrational            102.690             27.599             25.349
 Vibration     1          0.594              1.983              5.679
 Vibration     2          0.595              1.978              4.880
 Vibration     3          0.631              1.860              2.277
 Vibration     4          0.657              1.781              1.812
 Vibration     5          0.664              1.758              1.710
 Vibration     6          0.688              1.688              1.459
 Vibration     7          0.711              1.621              1.273
 Vibration     8          0.712              1.617              1.264
 Vibration     9          0.746              1.522              1.057
 Vibration    10          0.766              1.470              0.962
 Vibration    11          0.926              1.096              0.504

 Optimization completed.
    -- Stationary point found.
 Normal termination of Gaussian 09 at Mon Jan 27 17:13:56 2020.
