 Gaussian 09, Revision D.01,
 Gaussian 09:  ES64L-G09RevD.01 24-Apr-2013

 -----------------------------
 # b3lyp 6-31G(2df,p) opt Freq
 -----------------------------

 -----
 titel
 -----
 Symbolic Z-matrix:
 Charge =  0 Multiplicity = 1

 SCF Done:  E(RB3LYP) =  -423.161051426     A.U. after   14 cycles
 Optimization completed.
    -- Stationary point found.
 Normal termination of Gaussian 09 at Tue Jan 28 01:51:57 2020.

 ----------------------------------------------------------------------
 #N Geom=AllCheck Guess=TCheck SCRF=Check GenChk RB3LYP/6-31G(2df,p) Fr
 eq
 ----------------------------------------------------------------------

 Structure from the checkpoint file:  "/scratch/puck/g09_89097079-0469-4f06-b81a-4dd65a6f3a81/Gau-110862.chk"
 -----
 titel
 -----
 Charge =  0 Multiplicity = 1

                         Standard orientation:
 ---------------------------------------------------------------------
 Center     Atomic      Atomic             Coordinates (Angstroms)
 Number     Number       Type             X           Y           Z
 ---------------------------------------------------------------------
      1          6           0       -2.251432   -0.972816   -0.889345
      2          6           0       -0.969777   -1.027781   -0.085492
      3          6           0       -0.908731   -0.636538    1.350557
      4          6           0       -0.165210    0.213341    0.312117
      5          6           0       -0.710880    1.566393    0.059668
      6          8           0       -0.030502    2.528237   -0.211788
      7          6           0        1.336004    0.140884    0.276281
      8          6           0        2.076509   -0.369825   -0.881457
      9          8           0        1.914848   -1.164688    0.300649
     10          1           0       -2.780559   -1.928110   -0.807210
     11          1           0       -2.932800   -0.193299   -0.538610
     12          1           0       -2.052939   -0.792765   -1.951028
     13          1           0       -0.308114   -1.849942   -0.344332
     14          1           0       -1.792458   -0.196854    1.803529
     15          1           0       -0.286283   -1.213288    2.025152
     16          1           0       -1.814995    1.659911    0.157909
     17          1           0        1.837174    0.866479    0.915676
     18          1           0        1.527816   -0.721007   -1.753653
     19          1           0        3.089487   -0.021458   -1.072303
 ---------------------------------------------------------------------

 SCF Done:  E(RB3LYP) =  -423.161051426     A.U. after    1 cycles

 The electronic state is 1-A.
 Alpha  occ. eigenvalues --  -19.15818 -19.13580 -10.27078 -10.24407 -10.23669
 Alpha  occ. eigenvalues --  -10.21359 -10.21308 -10.20509 -10.19251  -1.07694
 Alpha  occ. eigenvalues --   -1.04344  -0.88519  -0.73772  -0.69691  -0.65970
 Alpha  occ. eigenvalues --   -0.63745  -0.59963  -0.53896  -0.51309  -0.50175
 Alpha  occ. eigenvalues --   -0.48218  -0.44829  -0.43486  -0.42312  -0.40907
 Alpha  occ. eigenvalues --   -0.39581  -0.38651  -0.38506  -0.36961  -0.33372
 Alpha  occ. eigenvalues --   -0.30899  -0.28466  -0.27279  -0.25094
 Alpha virt. eigenvalues --   -0.02219   0.08462   0.09264   0.10024   0.10590
 Alpha virt. eigenvalues --    0.11184   0.12875   0.14188   0.14724   0.15756
 Alpha virt. eigenvalues --    0.17397   0.17974   0.18862   0.20514   0.21101

 Mulliken charges:
               1
     1  C   -0.424769
     2  C   -0.030661
     3  C   -0.333763
     4  C    0.184628
     5  C    0.103416
     6  O   -0.273043
     7  C    0.014161
     8  C   -0.175620
     9  O   -0.246688
    10  H    0.128687
    11  H    0.122736
    12  H    0.127537
    13  H    0.120669
    14  H    0.120851
    15  H    0.141497
    16  H    0.071681
    17  H    0.109916
    18  H    0.114132
    19  H    0.124631
 Sum of Mulliken charges =   0.00000

 Dipole moment (field-independent basis, Debye):
    X=             -1.5084    Y=             -1.4984    Z=             -0.2228  Tot=              2.1378
 Quadrupole moment (field-independent basis, Debye-Ang):
   XX=            -50.3540   YY=            -62.7449   ZZ=            -50.7361
   XY=              1.7625   XZ=             -2.1101   YZ=              2.7453

  Exact polarizability:  83.836   4.794  77.165  -3.671  -0.131  68.568
 Approx polarizability: 112.135   9.460 124.295  -7.233  -4.850 104.872

                      1                      2                      3
                      A                      A                      A
 Frequencies --     70.1572               111.5329               147.5242
 Red. masses --      3.8308                 3.3909                 2.8164
 Frc consts  --      0.0111                 0.0249                 0.0361
 IR Inten    --      4.8672                 2.4519                 0.2689

                      4                      5                      6
                      A                      A                      A
 Frequencies --    186.1839               201.1119               223.0837
 Red. masses --      4.6298                 1.1526                 3.6705
 Frc consts  --      0.0946                 0.0275                 0.1076
 IR Inten    --     10.9059                 1.4010                 0.7488

                      7                      8                      9
                      A                      A                      A
 Frequencies --    282.9430               337.8742               425.4466
 Red. masses --      2.2324                 3.3354                 2.1534
 Frc consts  --      0.1053                 0.2243                 0.2296
 IR Inten    --      0.9940                 1.1325                 1.5352

                     10                     11                     12
                      A                      A                      A
 Frequencies --    472.7570               491.6095               582.4752
 Red. masses --      4.0878                 2.9843                 4.5878
 Frc consts  --      0.5383                 0.4249                 0.9171
 IR Inten    --      3.1990                 2.1390                22.1024

                     13                     14                     15
                      A                      A                      A
 Frequencies --    694.3580               770.6878               879.8696
 Red. masses --      3.0833                 2.7796                 3.0190
 Frc consts  --      0.8759                 0.9727                 1.3770
 IR Inten    --      8.6890                 4.4496                15.0569

                     16                     17                     18
                      A                      A                      A
 Frequencies --    882.5742               895.9951               918.0944
 Red. masses --      2.9563                 1.5337                 2.9961
 Frc consts  --      1.3568                 0.7254                 1.4879
 IR Inten    --      4.1016                 6.0600                65.5640

                     19                     20                     21
                      A                      A                      A
 Frequencies --    942.8322               995.6666              1036.3222
 Red. masses --      1.4872                 1.4729                 1.6151
 Frc consts  --      0.7789                 0.8603                 1.0219
 IR Inten    --      6.3744                 0.7655                 6.4019

                     22                     23                     24
                      A                      A                      A
 Frequencies --   1053.9189              1073.0428              1092.3256
 Red. masses --      1.6207                 1.3147                 1.3269
 Frc consts  --      1.0607                 0.8919                 0.9328
 IR Inten    --      0.7377                 1.4400                 3.9564

                     25                     26                     27
                      A                      A                      A
 Frequencies --   1121.9029              1136.9234              1153.8203
 Red. masses --      2.0415                 1.7418                 1.3832
 Frc consts  --      1.5139                 1.3265                 1.0849
 IR Inten    --     33.9937                 1.9100                 0.6021

                     28                     29                     30
                      A                      A                      A
 Frequencies --   1170.5604              1197.3606              1265.2588
 Red. masses --      1.3637                 1.5615                 1.9625
 Frc consts  --      1.1009                 1.3190                 1.8510
 IR Inten    --      1.3855                 0.2808                 6.4463

                     31                     32                     33
                      A                      A                      A
 Frequencies --   1300.4746              1314.0208              1397.0417
 Red. masses --      1.4870                 2.8595                 1.4803
 Frc consts  --      1.4818                 2.9090                 1.7022
 IR Inten    --      5.2150                15.1404                 2.7099

                     34                     35                     36
                      A                      A                      A
 Frequencies --   1418.3254              1433.1631              1453.5582
 Red. masses --      1.2691                 1.5836                 1.4850
 Frc consts  --      1.5042                 1.9165                 1.8486
 IR Inten    --      1.4596                23.9106                 3.6688

                     37                     38                     39
                      A                      A                      A
 Frequencies --   1480.5372              1494.5519              1506.1449
 Red. masses --      1.3629                 1.0445                 1.1300
 Frc consts  --      1.7602                 1.3746                 1.5104
 IR Inten    --      7.7249                 2.2195                 3.0665

                     40                     41                     42
                      A                      A                      A
 Frequencies --   1526.2699              1800.3472              2883.7048
 Red. masses --      1.3614                10.5167                 1.0823
 Frc consts  --      1.8685                20.0836                 5.3028
 IR Inten    --      5.3190               230.0611                93.8859

                     43                     44                     45
                      A                      A                      A
 Frequencies --   3037.5671              3091.6259              3097.9488
 Red. masses --      1.0364                 1.0502                 1.1013
 Frc consts  --      5.6341                 5.9144                 6.2271
 IR Inten    --     28.0657                21.4791                18.8957

                     46                     47                     48
                      A                      A                      A
 Frequencies --   3112.3970              3121.2404              3128.3485
 Red. masses --      1.0993                 1.0881                 1.0551
 Frc consts  --      6.2743                 6.2456                 6.0840
 IR Inten    --     15.4585                15.0669                 9.5687

                     49                     50                     51
                      A                      A                      A
 Frequencies --   3155.9169              3182.0507              3221.8923
 Red. masses --      1.0868                 1.1198                 1.1162
 Frc consts  --      6.3778                 6.6805                 6.8269
 IR Inten    --      5.0452                23.0821                 2.9124

 - Thermochemistry -
 -------------------
 Temperature   298.150 Kelvin.  Pressure   1.00000 Atm.
 Atom     1 has atomic number  6 and mass  12.00000

 Molecular mass:   126.06808 amu.
 Principal axes and moments of inertia in atomic units:
                           1         2         3
     Eigenvalues --   928.056401163.678541645.91154
           X            0.99528   0.09705  -0.00120
           Y           -0.09699   0.99497   0.02500
           Z            0.00362  -0.02476   0.99969
 This molecule is an asymmetric top.
 Rotational symmetry number  1.
 Warning -- assumption of classical behavior for rotation
           may cause significant error
 Rotational temperatures (Kelvin)      0.09333     0.07443     0.05262
 Rotational constants (GHZ):           1.94465     1.55089     1.09650
 Zero-point vibrational energy     412540.2 (Joules/Mol)
                                   98.59948 (Kcal/Mol)
 Warning -- explicit consideration of  12 degrees of freedom as
           vibrations may cause significant error
 Vibrational temperatures:    100.94   160.47   212.25   267.88   289.35
          (Kelvin)            320.97   407.09   486.13   612.12   680.19
                              707.32   838.05   999.03  1108.85  1265.93
                             1269.83  1289.14  1320.93  1356.52  1432.54
                             1491.03  1516.35  1543.87  1571.61  1614.17
                             1635.78  1660.09  1684.17  1722.73  1820.42
                             1871.09  1890.58  2010.03  2040.65  2062.00
                             2091.34  2130.16  2150.32  2167.00  2195.96
                             2590.29  4149.00  4370.38  4448.15  4457.25
                             4478.04  4490.76  4500.99  4540.65  4578.26
                             4635.58

 Zero-point correction=                           0.157128 (Hartree/Particle)
 Thermal correction to Energy=                    0.166334
 Thermal correction to Enthalpy=                  0.167278
 Thermal correction to Gibbs Free Energy=         0.122919
 Sum of electronic and zero-point Energies=           -423.003923
 Sum of electronic and thermal Energies=              -422.994717
 Sum of electronic and thermal Enthalpies=            -422.993773
 Sum of electronic and thermal Free Energies=         -423.038132

                     E (Thermal)             CV                S
                      KCal/Mol        Cal/Mol-Kelvin    Cal/Mol-Kelvin
 Total                  104.376             33.647             93.362
 Electronic               0.000              0.000              0.000
 Translational            0.889              2.981             40.409
 Rotational               0.889              2.981             28.965
 Vibrational            102.599             27.685             23.988
 Vibration     1          0.598              1.968              4.149
 Vibration     2          0.607              1.940              3.242
 Vibration     3          0.617              1.905              2.704
 Vibration     4          0.632              1.859              2.265
 Vibration     5          0.638              1.838              2.123
 Vibration     6          0.649              1.806              1.934
 Vibration     7          0.682              1.705              1.516
 Vibration     8          0.718              1.600              1.222
 Vibration     9          0.787              1.415              0.874
 Vibration    10          0.830              1.310              0.730
 Vibration    11          0.847              1.269              0.679
 Vibration    12          0.939              1.069              0.481

 Normal termination of Gaussian 09 at Tue Jan 28 02:32:03 2020.
