 Gaussian 09, Revision D.01,
 Gaussian 09:  ES64L-G09RevD.01 24-Apr-2013

 -----------------------------
 # b3lyp 6-31G(2df,p) opt Freq
 -----------------------------

 -----
 titel
 -----
 Symbolic Z-matrix:
 Charge =  0 Multiplicity = 1

 SCF Done:  E(RB3LYP) =  -423.184560060     A.U. after   14 cycles
 SCF Done:  E(RB3LYP) =  -423.184560919     A.U. after    8 cycles
 Optimization completed.
    -- Stationary point found.
 Normal termination of Gaussian 09 at Tue Jan 28 03:54:15 2020.

 ----------------------------------------------------------------------
 #N Geom=AllCheck Guess=TCheck SCRF=Check GenChk RB3LYP/6-31G(2df,p) Fr
 eq
 ----------------------------------------------------------------------

 Structure from the checkpoint file:  "/scratch/puck/g09_6338302a-65a7-4a10-b389-ceacf4767ddd/Gau-116643.chk"
 -----
 titel
 -----
 Charge =  0 Multiplicity = 1

                         Standard orientation:
 ---------------------------------------------------------------------
 Center     Atomic      Atomic             Coordinates (Angstroms)
 Number     Number       Type             X           Y           Z
 ---------------------------------------------------------------------
      1          8           0        2.480106   -0.250000   -0.053848
      2          6           0        1.222683   -0.327020   -0.686779
      3          6           0        0.433928   -1.576885   -0.217294
      4          6           0       -0.402635   -0.699960    0.765874
      5          6           0       -1.927720   -0.706546    0.572644
      6          6           0       -2.136334    0.332069   -0.508347
      7          6           0       -1.019848    0.993933   -0.819159
      8          6           0        0.155072    0.562214    0.015017
      9          8           0        0.781046    1.625147    0.709329
     10          1           0        2.525413    0.619748    0.363341
     11          1           0        1.323633   -0.186949   -1.771942
     12          1           0       -0.175098   -2.028346   -1.005246
     13          1           0        1.066986   -2.340440    0.236183
     14          1           0       -0.077367   -0.790377    1.802758
     15          1           0       -2.292307   -1.694794    0.263987
     16          1           0       -2.485341   -0.448574    1.483393
     17          1           0       -3.103322    0.498556   -0.972279
     18          1           0       -0.932002    1.780069   -1.561757
     19          1           0        0.109323    2.123098    1.185980
 ---------------------------------------------------------------------

 SCF Done:  E(RB3LYP) =  -423.184560919     A.U. after    1 cycles

 The electronic state is 1-A.
 Alpha  occ. eigenvalues --  -19.15041 -19.11947 -10.23407 -10.22041 -10.19301
 Alpha  occ. eigenvalues --  -10.18892 -10.18293 -10.18236 -10.17308  -1.03751
 Alpha  occ. eigenvalues --   -0.99935  -0.85874  -0.77194  -0.71410  -0.64733
 Alpha  occ. eigenvalues --   -0.61684  -0.55799  -0.54968  -0.51865  -0.49425
 Alpha  occ. eigenvalues --   -0.46631  -0.44639  -0.43548  -0.39806  -0.38524
 Alpha  occ. eigenvalues --   -0.37329  -0.36509  -0.34298  -0.33429  -0.33231
 Alpha  occ. eigenvalues --   -0.30218  -0.27203  -0.25661  -0.23849
 Alpha virt. eigenvalues --    0.00497   0.08050   0.09992   0.11358   0.12697
 Alpha virt. eigenvalues --    0.13748   0.14391   0.15126   0.16071   0.16487
 Alpha virt. eigenvalues --    0.17869   0.20072   0.21129   0.21718   0.23688

 Mulliken charges:
               1
     1  O   -0.453417
     2  C    0.090724
     3  C   -0.245933
     4  C   -0.078910
     5  C   -0.290802
     6  C   -0.055601
     7  C   -0.172569
     8  C    0.368462
     9  O   -0.496128
    10  H    0.295040
    11  H    0.059636
    12  H    0.096261
    13  H    0.112069
    14  H    0.075351
    15  H    0.111925
    16  H    0.104445
    17  H    0.099484
    18  H    0.098240
    19  H    0.281724
 Sum of Mulliken charges =   0.00000

 Dipole moment (field-independent basis, Debye):
    X=             -2.7509    Y=              0.9388    Z=              0.5239  Tot=              2.9535
 Quadrupole moment (field-independent basis, Debye-Ang):
   XX=            -56.8481   YY=            -50.9303   ZZ=            -51.1229
   XY=              1.0775   XZ=              0.1959   YZ=              1.0193

  Exact polarizability:  88.035   3.699  73.577  -0.389  -3.048  66.115
 Approx polarizability: 129.063  11.995 110.108  -1.622  -3.802 100.739

                      1                      2                      3
                      A                      A                      A
 Frequencies --     89.4697               150.4939               210.8061
 Red. masses --      3.8075                 1.1055                 2.8139
 Frc consts  --      0.0180                 0.0148                 0.0737
 IR Inten    --      4.8592               122.4538                 2.1101

                      4                      5                      6
                      A                      A                      A
 Frequencies --    237.5440               292.6496               336.9165
 Red. masses --      3.2858                 2.0574                 1.8362
 Frc consts  --      0.1092                 0.1038                 0.1228
 IR Inten    --      7.0233                23.8323                22.0305

                      7                      8                      9
                      A                      A                      A
 Frequencies --    380.5640               429.9591               443.7428
 Red. masses --      2.9472                 4.1538                 1.9150
 Frc consts  --      0.2515                 0.4524                 0.2222
 IR Inten    --      3.3265                 1.9360                 4.2382

                     10                     11                     12
                      A                      A                      A
 Frequencies --    484.9900               636.4549               701.1951
 Red. masses --      2.1751                 4.1763                 3.7144
 Frc consts  --      0.3014                 0.9967                 1.0760
 IR Inten    --      1.4338                13.1615                 4.4810

                     13                     14                     15
                      A                      A                      A
 Frequencies --    754.4581               760.4452               804.9610
 Red. masses --      4.6591                 1.4366                 2.4767
 Frc consts  --      1.5625                 0.4895                 0.9455
 IR Inten    --      5.3718                29.3210                 0.7677

                     16                     17                     18
                      A                      A                      A
 Frequencies --    859.4714               870.4393               927.7906
 Red. masses --      2.6754                 2.1210                 1.9882
 Frc consts  --      1.1644                 0.9468                 1.0083
 IR Inten    --     10.2801                 2.8818                 2.5903

                     19                     20                     21
                      A                      A                      A
 Frequencies --    939.7062               981.2799              1001.6204
 Red. masses --      2.0777                 1.2979                 2.3386
 Frc consts  --      1.0810                 0.7363                 1.3824
 IR Inten    --      2.0254                 2.0004                16.8957

                     22                     23                     24
                      A                      A                      A
 Frequencies --   1028.6502              1047.3698              1080.5374
 Red. masses --      1.9989                 2.1519                 2.1514
 Frc consts  --      1.2462                 1.3908                 1.4799
 IR Inten    --     20.3508                 5.9469                16.2826

                     25                     26                     27
                      A                      A                      A
 Frequencies --   1090.1688              1139.3928              1155.2411
 Red. masses --      1.5561                 2.1806                 1.5387
 Frc consts  --      1.0896                 1.6679                 1.2099
 IR Inten    --     79.5975                 8.8072                 4.8366

                     28                     29                     30
                      A                      A                      A
 Frequencies --   1167.7616              1202.4141              1233.4104
 Red. masses --      1.8481                 1.3814                 1.6327
 Frc consts  --      1.4849                 1.1767                 1.4634
 IR Inten    --     95.7869                12.5346                26.2333

                     31                     32                     33
                      A                      A                      A
 Frequencies --   1236.8254              1261.7101              1300.1737
 Red. masses --      1.6805                 1.4760                 1.6230
 Frc consts  --      1.5146                 1.3843                 1.6165
 IR Inten    --     28.5000                 0.8613                 0.4969

                     34                     35                     36
                      A                      A                      A
 Frequencies --   1317.6305              1324.1769              1373.0368
 Red. masses --      1.4725                 1.5032                 1.4303
 Frc consts  --      1.5063                 1.5529                 1.5887
 IR Inten    --      6.8743                20.2853                 7.7713

                     37                     38                     39
                      A                      A                      A
 Frequencies --   1382.7266              1399.7941              1468.8287
 Red. masses --      1.7999                 1.3538                 1.1105
 Frc consts  --      2.0275                 1.5629                 1.4116
 IR Inten    --      9.6927               117.0576                 3.7239

                     40                     41                     42
                      A                      A                      A
 Frequencies --   1479.5162              1670.1582              2998.6722
 Red. masses --      1.0938                 6.4026                 1.0856
 Frc consts  --      1.4107                10.5225                 5.7514
 IR Inten    --      6.5929                 4.3974                72.3286

                     43                     44                     45
                      A                      A                      A
 Frequencies --   3012.7860              3042.8603              3067.4071
 Red. masses --      1.0626                 1.0987                 1.0613
 Frc consts  --      5.6827                 5.9939                 5.8832
 IR Inten    --     38.2383                16.1153                27.8982

                     46                     47                     48
                      A                      A                      A
 Frequencies --   3104.6584              3134.6486              3175.8338
 Red. masses --      1.0884                 1.1051                 1.0844
 Frc consts  --      6.1812                 6.3976                 6.4443
 IR Inten    --     15.0648                21.6279                 6.5067

                     49                     50                     51
                      A                      A                      A
 Frequencies --   3200.7071              3771.0628              3820.3091
 Red. masses --      1.1035                 1.0654                 1.0663
 Frc consts  --      6.6608                 8.9263                 9.1691
 IR Inten    --     19.3340                57.1661                26.3656

 - Thermochemistry -
 -------------------
 Temperature   298.150 Kelvin.  Pressure   1.00000 Atm.
 Atom     1 has atomic number  8 and mass  15.99491

 Molecular mass:   126.06808 amu.
 Principal axes and moments of inertia in atomic units:
                           1         2         3
     Eigenvalues --   629.086571160.548121424.02395
           X            0.99995   0.00887  -0.00379
           Y           -0.00893   0.99982  -0.01669
           Z            0.00364   0.01673   0.99985
 This molecule is an asymmetric top.
 Rotational symmetry number  1.
 Warning -- assumption of classical behavior for rotation
           may cause significant error
 Rotational temperatures (Kelvin)      0.13768     0.07463     0.06082
 Rotational constants (GHZ):           2.86883     1.55508     1.26735
 Zero-point vibrational energy     418593.8 (Joules/Mol)
                                  100.04633 (Kcal/Mol)
 Warning -- explicit consideration of  10 degrees of freedom as
           vibrations may cause significant error
 Vibrational temperatures:    128.73   216.53   303.30   341.77   421.06
          (Kelvin)            484.75   547.55   618.61   638.45   697.79
                              915.72  1008.86  1085.50  1094.11  1158.16
                             1236.59  1252.37  1334.88  1352.03  1411.84
                             1441.11  1480.00  1506.93  1554.65  1568.51
                             1639.33  1662.13  1680.15  1730.00  1774.60
                             1779.51  1815.32  1870.66  1895.77  1905.19
                             1975.49  1989.43  2013.99  2113.31  2128.69
                             2402.98  4314.42  4334.72  4377.99  4413.31
                             4466.91  4510.05  4569.31  4605.10  5425.71
                             5496.57

 Zero-point correction=                           0.159434 (Hartree/Particle)
 Thermal correction to Energy=                    0.167745
 Thermal correction to Enthalpy=                  0.168689
 Thermal correction to Gibbs Free Energy=         0.126863
 Sum of electronic and zero-point Energies=           -423.025127
 Sum of electronic and thermal Energies=              -423.016816
 Sum of electronic and thermal Enthalpies=            -423.015872
 Sum of electronic and thermal Free Energies=         -423.057698

                     E (Thermal)             CV                S
                      KCal/Mol        Cal/Mol-Kelvin    Cal/Mol-Kelvin
 Total                  105.261             32.621             88.031
 Electronic               0.000              0.000              0.000
 Translational            0.889              2.981             40.409
 Rotational               0.889              2.981             28.432
 Vibrational            103.484             26.659             19.190
 Vibration     1          0.602              1.957              3.672
 Vibration     2          0.618              1.902              2.666
 Vibration     3          0.643              1.824              2.037
 Vibration     4          0.656              1.783              1.821
 Vibration     5          0.688              1.687              1.459
 Vibration     6          0.718              1.602              1.227
 Vibration     7          0.750              1.512              1.037
 Vibration     8          0.791              1.405              0.859
 Vibration     9          0.803              1.375              0.815
 Vibration    10          0.841              1.283              0.697

 Normal termination of Gaussian 09 at Tue Jan 28 04:37:40 2020.
