 Gaussian 09, Revision D.01,
 Gaussian 09:  ES64L-G09RevD.01 24-Apr-2013

 -----------------------------
 # b3lyp 6-31G(2df,p) opt Freq
 -----------------------------

 -----
 titel
 -----
 Symbolic Z-matrix:
 Charge =  0 Multiplicity = 1

 SCF Done:  E(RB3LYP) =  -423.225288780     A.U. after   13 cycles
 Optimization completed.
    -- Stationary point found.
 Normal termination of Gaussian 09 at Mon Jan 27 11:15:41 2020.

 ----------------------------------------------------------------------
 #N Geom=AllCheck Guess=TCheck SCRF=Check GenChk RB3LYP/6-31G(2df,p) Fr
 eq
 ----------------------------------------------------------------------

 Structure from the checkpoint file:  "/scratch/puck/g09_5c1919ac-e278-4e3d-b4d8-e1d315a42c0f/Gau-162844.chk"
 -----
 titel
 -----
 Charge =  0 Multiplicity = 1

                         Standard orientation:
 ---------------------------------------------------------------------
 Center     Atomic      Atomic             Coordinates (Angstroms)
 Number     Number       Type             X           Y           Z
 ---------------------------------------------------------------------
      1          6           0        1.206181   -1.180876   -0.221576
      2          6           0        1.237958   -0.000006    0.772531
      3          6           0        1.206177    1.180883   -0.221557
      4          6           0       -0.031470    0.793948   -1.047319
      5          8           0       -1.188606    1.114989   -0.266530
      6          6           0       -1.277414   -0.000004    0.600810
      7          6           0       -0.086032   -0.000015    1.584685
      8          8           0       -1.188604   -1.114987   -0.266548
      9          6           0       -0.031470   -0.793931   -1.047331
     10          1           0        2.117201   -1.202618   -0.830035
     11          1           0        1.069814   -2.161691    0.239937
     12          1           0        2.108339   -0.000010    1.433482
     13          1           0        1.069808    2.161690    0.239972
     14          1           0        2.117197    1.202638   -0.830016
     15          1           0       -0.128246    1.266926   -2.024657
     16          1           0       -2.254844   -0.000010    1.087514
     17          1           0       -0.148460    0.885906    2.225821
     18          1           0       -0.148460   -0.885945    2.225808
     19          1           0       -0.128243   -1.266894   -2.024677
 ---------------------------------------------------------------------

 SCF Done:  E(RB3LYP) =  -423.225288780     A.U. after    1 cycles

 The electronic state is 1-A.
 Alpha  occ. eigenvalues --  -19.13860 -19.13860 -10.27166 -10.23195 -10.23180
 Alpha  occ. eigenvalues --  -10.19397 -10.18234 -10.18063 -10.18062  -1.08753
 Alpha  occ. eigenvalues --   -0.98800  -0.83896  -0.76997  -0.70589  -0.65617
 Alpha  occ. eigenvalues --   -0.62202  -0.58199  -0.55692  -0.53460  -0.46185
 Alpha  occ. eigenvalues --   -0.44684  -0.44639  -0.43910  -0.42195  -0.40283
 Alpha  occ. eigenvalues --   -0.39503  -0.37405  -0.36296  -0.32996  -0.32528
 Alpha  occ. eigenvalues --   -0.32353  -0.31009  -0.25684  -0.24861
 Alpha virt. eigenvalues --    0.08176   0.10950   0.13211   0.13572   0.13641
 Alpha virt. eigenvalues --    0.14740   0.15088   0.15662   0.16519   0.16742
 Alpha virt. eigenvalues --    0.17920   0.18441   0.18882   0.20924   0.21354

 Mulliken charges:
               1
     1  C   -0.218433
     2  C   -0.032626
     3  C   -0.218432
     4  C    0.064477
     5  O   -0.257313
     6  C    0.183295
     7  C   -0.242738
     8  O   -0.257313
     9  C    0.064477
    10  H    0.092180
    11  H    0.104569
    12  H    0.063590
    13  H    0.104569
    14  H    0.092180
    15  H    0.081272
    16  H    0.088416
    17  H    0.103279
    18  H    0.103279
    19  H    0.081271
 Sum of Mulliken charges =   0.00000

 Dipole moment (field-independent basis, Debye):
    X=              1.9082    Y=              0.0000    Z=              0.2765  Tot=              1.9282
 Quadrupole moment (field-independent basis, Debye-Ang):
   XX=            -54.5237   YY=            -55.6806   ZZ=            -49.5174
   XY=              0.0000   XZ=             -2.4354   YZ=             -0.0001

  Exact polarizability:  72.706   0.000  69.310  -3.691   0.000  73.703
 Approx polarizability: 106.548   0.000 105.434  -5.893   0.000 106.773

                      1                      2                      3
                      A                      A                      A
 Frequencies --    310.0676               357.2107               422.8510
 Red. masses --      3.1554                 2.0186                 2.5850
 Frc consts  --      0.1787                 0.1518                 0.2723
 IR Inten    --      0.7009                 0.4647                 3.5185

                      4                      5                      6
                      A                      A                      A
 Frequencies --    477.0218               490.7166               573.6485
 Red. masses --      2.3269                 3.3432                 4.9385
 Frc consts  --      0.3120                 0.4743                 0.9575
 IR Inten    --      0.3845                 3.4961                 2.7769

                      7                      8                      9
                      A                      A                      A
 Frequencies --    591.8624               750.8870               805.5962
 Red. masses --      4.3326                 6.2006                 3.0199
 Frc consts  --      0.8942                 2.0598                 1.1547
 IR Inten    --      5.0964                 1.1643                 4.0430

                     10                     11                     12
                      A                      A                      A
 Frequencies --    813.9139               828.0364               851.2957
 Red. masses --      4.4616                 3.7377                 2.5451
 Frc consts  --      1.7414                 1.5099                 1.0867
 IR Inten    --      0.3575                 1.5527                16.6046

                     13                     14                     15
                      A                      A                      A
 Frequencies --    877.8977               895.0838               903.1521
 Red. masses --      2.9672                 2.5355                 2.6414
 Frc consts  --      1.3473                 1.1969                 1.2694
 IR Inten    --      7.3305                 2.0397                41.8465

                     16                     17                     18
                      A                      A                      A
 Frequencies --    914.1509               932.9888               990.6871
 Red. masses --      2.4337                 1.8031                 1.7154
 Frc consts  --      1.1982                 0.9247                 0.9919
 IR Inten    --     13.1356                 0.5776                 4.4466

                     19                     20                     21
                      A                      A                      A
 Frequencies --   1009.0889              1009.4670              1017.6129
 Red. masses --      2.0677                 2.6158                 2.4132
 Frc consts  --      1.2405                 1.5705                 1.4724
 IR Inten    --     29.5026                27.8657                33.2691

                     22                     23                     24
                      A                      A                      A
 Frequencies --   1075.0636              1087.2581              1121.0989
 Red. masses --      1.9927                 2.0296                 3.4907
 Frc consts  --      1.3570                 1.4136                 2.5849
 IR Inten    --     66.4861                 2.8392                21.5824

                     25                     26                     27
                      A                      A                      A
 Frequencies --   1140.7822              1165.3085              1182.7446
 Red. masses --      1.2273                 1.2504                 1.2557
 Frc consts  --      0.9411                 1.0004                 1.0349
 IR Inten    --      0.8088                 3.8361                24.6448

                     28                     29                     30
                      A                      A                      A
 Frequencies --   1214.7594              1265.8007              1283.9087
 Red. masses --      2.1856                 1.4444                 1.4087
 Frc consts  --      1.9002                 1.3635                 1.3682
 IR Inten    --      3.0893                 0.0033                 0.7492

                     31                     32                     33
                      A                      A                      A
 Frequencies --   1294.7808              1309.2200              1327.3114
 Red. masses --      1.5643                 1.2816                 1.3140
 Frc consts  --      1.5451                 1.2943                 1.3640
 IR Inten    --      6.3570                 0.5772                 3.5285

                     34                     35                     36
                      A                      A                      A
 Frequencies --   1338.0301              1341.2311              1371.3807
 Red. masses --      1.5256                 1.5507                 1.4602
 Frc consts  --      1.6093                 1.6436                 1.6180
 IR Inten    --     17.9636                 2.4146                 1.2136

                     37                     38                     39
                      A                      A                      A
 Frequencies --   1381.8843              1387.9566              1471.5227
 Red. masses --      1.4596                 1.4767                 1.0934
 Frc consts  --      1.6422                 1.6761                 1.3950
 IR Inten    --      8.1516                 7.5647                 2.4834

                     40                     41                     42
                      A                      A                      A
 Frequencies --   1475.4021              1499.9582              3040.1910
 Red. masses --      1.0993                 1.1033                 1.0596
 Frc consts  --      1.4100                 1.4625                 5.7702
 IR Inten    --      3.2994                 3.3784                22.8477

                     43                     44                     45
                      A                      A                      A
 Frequencies --   3040.9736              3046.1108              3075.8692
 Red. masses --      1.0640                 1.0639                 1.0864
 Frc consts  --      5.7972                 5.8163                 6.0557
 IR Inten    --     15.0163                35.1459                59.3866

                     46                     47                     48
                      A                      A                      A
 Frequencies --   3086.3991              3103.7585              3106.0661
 Red. masses --      1.1051                 1.0893                 1.1001
 Frc consts  --      6.2024                 6.1828                 6.2533
 IR Inten    --     20.3695                60.6732                29.8271

                     49                     50                     51
                      A                      A                      A
 Frequencies --   3107.6845              3108.4914              3119.3186
 Red. masses --      1.0903                 1.1020                 1.0910
 Frc consts  --      6.2040                 6.2741                 6.2547
 IR Inten    --     10.8061                18.8176                46.3806

 - Thermochemistry -
 -------------------
 Temperature   298.150 Kelvin.  Pressure   1.00000 Atm.
 Atom     1 has atomic number  6 and mass  12.00000

 Molecular mass:   126.06808 amu.
 Principal axes and moments of inertia in atomic units:
                           1         2         3
     Eigenvalues --   713.41637 833.36621 873.56396
           X            0.99847   0.00000  -0.05522
           Y            0.00000   1.00000  -0.00001
           Z            0.05522   0.00001   0.99847
 This molecule is an asymmetric top.
 Rotational symmetry number  1.
 Warning -- assumption of classical behavior for rotation
           may cause significant error
 Rotational temperatures (Kelvin)      0.12141     0.10393     0.09915
 Rotational constants (GHZ):           2.52972     2.16560     2.06595
 Zero-point vibrational energy     433009.3 (Joules/Mol)
                                  103.49171 (Kcal/Mol)
 Warning -- explicit consideration of   7 degrees of freedom as
           vibrations may cause significant error
 Vibrational temperatures:    446.12   513.95   608.39   686.33   706.03
          (Kelvin)            825.35   851.56  1080.36  1159.07  1171.04
                             1191.36  1224.82  1263.10  1287.82  1299.43
                             1315.26  1342.36  1425.38  1451.85  1452.40
                             1464.12  1546.77  1564.32  1613.01  1641.33
                             1676.62  1701.70  1747.77  1821.20  1847.26
                             1862.90  1883.67  1909.70  1925.12  1929.73
                             1973.11  1988.22  1996.96  2117.19  2122.77
                             2158.10  4374.15  4375.28  4382.67  4425.48
                             4440.63  4465.61  4468.93  4471.26  4472.42
                             4488.00

 Zero-point correction=                           0.164925 (Hartree/Particle)
 Thermal correction to Energy=                    0.170676
 Thermal correction to Enthalpy=                  0.171620
 Thermal correction to Gibbs Free Energy=         0.135222
 Sum of electronic and zero-point Energies=           -423.060364
 Sum of electronic and thermal Energies=              -423.054613
 Sum of electronic and thermal Enthalpies=            -423.053669
 Sum of electronic and thermal Free Energies=         -423.090067

                     E (Thermal)             CV                S
                      KCal/Mol        Cal/Mol-Kelvin    Cal/Mol-Kelvin
 Total                  107.101             25.771             76.606
 Electronic               0.000              0.000              0.000
 Translational            0.889              2.981             40.409
 Rotational               0.889              2.981             27.743
 Vibrational            105.323             19.810              8.454
 Vibration     1          0.699              1.655              1.362
 Vibration     2          0.732              1.560              1.134
 Vibration     3          0.785              1.421              0.882
 Vibration     4          0.834              1.301              0.718
 Vibration     5          0.847              1.271              0.682
 Vibration     6          0.930              1.088              0.497
 Vibration     7          0.949              1.049              0.464

 Optimization completed.
    -- Stationary point found.
 Normal termination of Gaussian 09 at Mon Jan 27 12:02:26 2020.
