 Gaussian 09, Revision D.01,
 Gaussian 09:  ES64L-G09RevD.01 24-Apr-2013

 -----------------------------
 # b3lyp 6-31G(2df,p) opt Freq
 -----------------------------

 -----
 titel
 -----
 Symbolic Z-matrix:
 Charge =  0 Multiplicity = 1

 SCF Done:  E(RB3LYP) =  -423.179273011     A.U. after   15 cycles
 Optimization completed.
    -- Stationary point found.
 Normal termination of Gaussian 09 at Tue Jan 28 08:20:10 2020.

 ----------------------------------------------------------------------
 #N Geom=AllCheck Guess=TCheck SCRF=Check GenChk RB3LYP/6-31G(2df,p) Fr
 eq
 ----------------------------------------------------------------------

 Structure from the checkpoint file:  "/scratch/puck/g09_4a6ca0d3-8703-4483-bdff-a50e1843425c/Gau-60085.chk"
 -----
 titel
 -----
 Charge =  0 Multiplicity = 1

                         Standard orientation:
 ---------------------------------------------------------------------
 Center     Atomic      Atomic             Coordinates (Angstroms)
 Number     Number       Type             X           Y           Z
 ---------------------------------------------------------------------
      1          6           0        3.747400   -0.334297   -0.232036
      2          6           0        2.313244   -0.298137    0.017002
      3          6           0        1.128937   -0.265081    0.235514
      4          6           0       -0.313789   -0.278333    0.450477
      5          6           0       -0.976639   -1.535659   -0.169725
      6          8           0       -2.324868   -1.668145    0.207238
      7          6           0       -0.996094    1.016675   -0.045578
      8          6           0       -0.300372    2.326591    0.242398
      9          8           0       -2.062840    0.973228   -0.620979
     10          1           0        4.182361    0.670664   -0.197588
     11          1           0        4.265097   -0.945142    0.515491
     12          1           0        3.968725   -0.757259   -1.217959
     13          1           0       -0.520172   -0.309128    1.532923
     14          1           0       -0.850413   -1.494075   -1.261768
     15          1           0       -0.447541   -2.421271    0.192498
     16          1           0       -2.772089   -0.901915   -0.176311
     17          1           0       -0.966832    3.157201    0.008171
     18          1           0        0.017582    2.373581    1.289113
     19          1           0        0.608818    2.396127   -0.362950
 ---------------------------------------------------------------------

 SCF Done:  E(RB3LYP) =  -423.179273011     A.U. after    1 cycles

 The electronic state is 1-A.
 Alpha  occ. eigenvalues --  -19.14803 -19.12202 -10.28720 -10.22859 -10.21919
 Alpha  occ. eigenvalues --  -10.21174 -10.19510 -10.18569 -10.17994  -1.05888
 Alpha  occ. eigenvalues --   -1.00744  -0.81533  -0.77351  -0.74281  -0.69238
 Alpha  occ. eigenvalues --   -0.64130  -0.55023  -0.51195  -0.50609  -0.46939
 Alpha  occ. eigenvalues --   -0.46002  -0.45171  -0.43422  -0.43358  -0.42691
 Alpha  occ. eigenvalues --   -0.41685  -0.39879  -0.38766  -0.36635  -0.33168
 Alpha  occ. eigenvalues --   -0.28355  -0.27376  -0.25333  -0.24167
 Alpha virt. eigenvalues --   -0.02697   0.04464   0.05239   0.09413   0.10596
 Alpha virt. eigenvalues --    0.11986   0.13779   0.14472   0.15432   0.16372
 Alpha virt. eigenvalues --    0.17367   0.17818   0.18252   0.20270   0.21820

 Mulliken charges:
               1
     1  C   -0.499718
     2  C    0.075973
     3  C    0.047489
     4  C   -0.294087
     5  C   -0.065280
     6  O   -0.421987
     7  C    0.400796
     8  C   -0.474641
     9  O   -0.314871
    10  H    0.149789
    11  H    0.152828
    12  H    0.152856
    13  H    0.134091
    14  H    0.100102
    15  H    0.115235
    16  H    0.295068
    17  H    0.142154
    18  H    0.143523
    19  H    0.160680
 Sum of Mulliken charges =   0.00000

 Dipole moment (field-independent basis, Debye):
    X=              3.4020    Y=              1.5876    Z=              0.3535  Tot=              3.7708
 Quadrupole moment (field-independent basis, Debye-Ang):
   XX=            -52.6808   YY=            -53.9412   ZZ=            -52.8360
   XY=             -2.7643   XZ=             -1.5771   YZ=              2.2159

  Exact polarizability: 110.939  -0.714  74.170  -0.946   0.575  58.360
 Approx polarizability: 163.727  -0.703  96.730  -1.647  -1.148  92.087

                      1                      2                      3
                      A                      A                      A
 Frequencies --      4.6992                40.4801                82.3447
 Red. masses --      1.0199                 4.0609                 3.4841
 Frc consts  --      0.0000                 0.0039                 0.0139
 IR Inten    --      0.0012                 1.9085                 0.3670

                      4                      5                      6
                      A                      A                      A
 Frequencies --    108.3196               132.6367               181.5271
 Red. masses --      3.7678                 1.0835                 3.1003
 Frc consts  --      0.0260                 0.0112                 0.0602
 IR Inten    --      0.7293                 0.0994                 6.8915

                      7                      8                      9
                      A                      A                      A
 Frequencies --    229.5310               276.6110               293.7927
 Red. masses --      3.6901                 3.6680                 3.6244
 Frc consts  --      0.1145                 0.1654                 0.1843
 IR Inten    --      5.9810                 8.4216                 5.1366

                     10                     11                     12
                      A                      A                      A
 Frequencies --    346.2041               418.9467               447.9703
 Red. masses --      4.4370                 4.0533                 4.4143
 Frc consts  --      0.3133                 0.4192                 0.5219
 IR Inten    --      1.0998                 1.7779                 0.2828

                     13                     14                     15
                      A                      A                      A
 Frequencies --    492.6862               522.2468               589.3680
 Red. masses --      4.0399                 6.2465                 1.1832
 Frc consts  --      0.5778                 1.0038                 0.2421
 IR Inten    --     13.7590                 3.2535               117.5050

                     16                     17                     18
                      A                      A                      A
 Frequencies --    623.4011               730.5393               842.3698
 Red. masses --      2.4127                 2.6935                 3.1216
 Frc consts  --      0.5525                 0.8470                 1.3051
 IR Inten    --     32.0819                 5.0130                 2.3506

                     19                     20                     21
                      A                      A                      A
 Frequencies --    949.2738               961.8513              1043.5436
 Red. masses --      1.4944                 2.1539                 2.0835
 Frc consts  --      0.7934                 1.1741                 1.3368
 IR Inten    --      4.7487                 7.7403                 2.4875

                     22                     23                     24
                      A                      A                      A
 Frequencies --   1052.4658              1054.5877              1070.6235
 Red. masses --      1.4239                 1.4499                 2.3926
 Frc consts  --      0.9292                 0.9501                 1.6158
 IR Inten    --      1.4719                 0.4139                29.6092

                     25                     26                     27
                      A                      A                      A
 Frequencies --   1092.3957              1165.5588              1192.9822
 Red. masses --      4.6690                 2.0531                 1.7559
 Frc consts  --      3.2827                 1.6433                 1.4724
 IR Inten    --    115.8207                 2.2461                43.4119

                     28                     29                     30
                      A                      A                      A
 Frequencies --   1218.6704              1259.7167              1308.4437
 Red. masses --      1.7748                 1.7529                 1.4784
 Frc consts  --      1.5530                 1.6389                 1.4913
 IR Inten    --     45.7558                 3.6840                31.0077

                     31                     32                     33
                      A                      A                      A
 Frequencies --   1383.7638              1390.3109              1414.8768
 Red. masses --      1.3024                 1.2795                 1.2495
 Frc consts  --      1.4693                 1.4572                 1.4737
 IR Inten    --     30.8534                 2.7302                 7.7687

                     34                     35                     36
                      A                      A                      A
 Frequencies --   1445.0190              1457.7958              1470.3065
 Red. masses --      1.2058                 1.0537                 1.0525
 Frc consts  --      1.4834                 1.3194                 1.3405
 IR Inten    --    103.9634                10.6003                 9.9769

                     37                     38                     39
                      A                      A                      A
 Frequencies --   1476.9013              1478.4140              1501.4784
 Red. masses --      1.0393                 1.0397                 1.0838
 Frc consts  --      1.3357                 1.3389                 1.4395
 IR Inten    --      5.3775                 5.9661                 1.3670

                     40                     41                     42
                      A                      A                      A
 Frequencies --   1792.0007              2365.7185              2980.6981
 Red. masses --     10.5615                11.8419                 1.0779
 Frc consts  --     19.9826                39.0478                 5.6426
 IR Inten    --    171.0723                 1.1583                 3.2043

                     43                     44                     45
                      A                      A                      A
 Frequencies --   3000.8629              3028.7896              3047.4490
 Red. masses --      1.0697                 1.0348                 1.0357
 Frc consts  --      5.6754                 5.5929                 5.6671
 IR Inten    --     48.4800                29.4065                 1.2480

                     46                     47                     48
                      A                      A                      A
 Frequencies --   3089.7182              3091.4953              3092.7098
 Red. masses --      1.1001                 1.1003                 1.0957
 Frc consts  --      6.1876                 6.1960                 6.1748
 IR Inten    --      8.4639                 8.2595                25.8955

                     49                     50                     51
                      A                      A                      A
 Frequencies --   3111.4295              3157.2884              3759.7039
 Red. masses --      1.0974                 1.1037                 1.0648
 Frc consts  --      6.2596                 6.4823                 8.8677
 IR Inten    --      3.8179                10.4721                82.0405

 - Thermochemistry -
 -------------------
 Temperature   298.150 Kelvin.  Pressure   1.00000 Atm.
 Atom     1 has atomic number  6 and mass  12.00000

 Molecular mass:   126.06808 amu.
 Principal axes and moments of inertia in atomic units:
                           1         2         3
     Eigenvalues --   790.282671817.968992470.82248
           X            0.99998  -0.00206  -0.00628
           Y            0.00218   0.99980   0.01968
           Z            0.00624  -0.01970   0.99979
 This molecule is an asymmetric top.
 Rotational symmetry number  1.
 Warning -- assumption of classical behavior for rotation
           may cause significant error
 Rotational temperatures (Kelvin)      0.10960     0.04764     0.03505
 Rotational constants (GHZ):           2.28367     0.99272     0.73042
 Zero-point vibrational energy     408348.4 (Joules/Mol)
                                   97.59760 (Kcal/Mol)
 Warning -- explicit consideration of  15 degrees of freedom as
           vibrations may cause significant error
 Vibrational temperatures:      6.76    58.24   118.48   155.85   190.83
          (Kelvin)            261.18   330.24   397.98   422.70   498.11
                              602.77   644.53   708.86   751.40   847.97
                              896.93  1051.08  1211.98  1365.79  1383.89
                             1501.42  1514.26  1517.31  1540.39  1571.71
                             1676.98  1716.43  1753.39  1812.45  1882.56
                             1990.93  2000.34  2035.69  2079.06  2097.44
                             2115.44  2124.93  2127.11  2160.29  2578.29
                             3403.74  4288.55  4317.57  4357.75  4384.59
                             4445.41  4447.97  4449.71  4476.65  4542.63
                             5409.37

 Zero-point correction=                           0.155532 (Hartree/Particle)
 Thermal correction to Energy=                    0.166506
 Thermal correction to Enthalpy=                  0.167450
 Thermal correction to Gibbs Free Energy=         0.115921
 Sum of electronic and zero-point Energies=           -423.023741
 Sum of electronic and thermal Energies=              -423.012767
 Sum of electronic and thermal Enthalpies=            -423.011823
 Sum of electronic and thermal Free Energies=         -423.063352

                     E (Thermal)             CV                S
                      KCal/Mol        Cal/Mol-Kelvin    Cal/Mol-Kelvin
 Total                  104.484             37.273            108.453
 Electronic               0.000              0.000              0.000
 Translational            0.889              2.981             40.409
 Rotational               0.889              2.981             29.652
 Vibrational            102.707             31.311             38.392
 Vibration     1          0.593              1.987              9.512
 Vibration     2          0.594              1.981              5.235
 Vibration     3          0.600              1.961              3.834
 Vibration     4          0.606              1.943              3.299
 Vibration     5          0.613              1.921              2.907
 Vibration     6          0.630              1.865              2.313
 Vibration     7          0.652              1.796              1.883
 Vibration     8          0.678              1.717              1.555
 Vibration     9          0.689              1.685              1.452
 Vibration    10          0.724              1.583              1.183
 Vibration    11          0.782              1.429              0.896
 Vibration    12          0.807              1.365              0.802
 Vibration    13          0.848              1.266              0.677
 Vibration    14          0.877              1.201              0.605
 Vibration    15          0.947              1.054              0.468

 Optimization completed on the basis of negligible forces.
    -- Stationary point found.
 Normal termination of Gaussian 09 at Tue Jan 28 10:01:04 2020.
