 Gaussian 09, Revision D.01,
 Gaussian 09:  ES64L-G09RevD.01 24-Apr-2013

 -----------------------------
 # b3lyp 6-31G(2df,p) opt Freq
 -----------------------------

 -----
 titel
 -----
 Symbolic Z-matrix:
 Charge =  0 Multiplicity = 1

 SCF Done:  E(RB3LYP) =  -423.099801286     A.U. after   12 cycles
 Optimization completed.
    -- Stationary point found.
 Normal termination of Gaussian 09 at Mon Jan 27 22:06:04 2020.

 ----------------------------------------------------------------------
 #N Geom=AllCheck Guess=TCheck SCRF=Check GenChk RB3LYP/6-31G(2df,p) Fr
 eq
 ----------------------------------------------------------------------

 Structure from the checkpoint file:  "/scratch/puck/g09_00bd85cb-8875-4a48-97a6-95ba4eb625c4/Gau-85610.chk"
 -----
 titel
 -----
 Charge =  0 Multiplicity = 1

                         Standard orientation:
 ---------------------------------------------------------------------
 Center     Atomic      Atomic             Coordinates (Angstroms)
 Number     Number       Type             X           Y           Z
 ---------------------------------------------------------------------
      1          6           0       -0.764396    1.926426    0.120846
      2          6           0       -0.338704    0.496153   -0.024122
      3          6           0       -1.262433   -0.623262   -0.415564
      4          8           0       -2.617941   -0.270497   -0.341986
      5          6           0       -0.533021   -0.695150    0.912271
      6          6           0        0.972140   -1.048991    0.800271
      7          6           0        1.447557   -1.303154   -0.621812
      8          6           0        1.174625    0.101594   -0.151166
      9          8           0        2.162943    1.068374   -0.084317
     10          1           0       -0.176848    2.435078    0.891383
     11          1           0       -0.625804    2.478585   -0.817279
     12          1           0       -1.822267    1.978874    0.385696
     13          1           0       -1.036907   -1.303271   -1.234983
     14          1           0       -3.101962   -1.034804   -0.012064
     15          1           0       -1.092671   -0.725681    1.839571
     16          1           0        1.574014   -1.338899    1.651835
     17          1           0        2.512250   -1.515088   -0.667117
     18          1           0        0.867036   -1.832571   -1.368763
     19          1           0        2.368539    1.353062   -0.982194
 ---------------------------------------------------------------------

 SCF Done:  E(RB3LYP) =  -423.099801286     A.U. after    1 cycles

 The electronic state is 1-A.
 Alpha  occ. eigenvalues --  -19.14734 -19.14317 -10.23730 -10.23286 -10.19018
 Alpha  occ. eigenvalues --  -10.18991 -10.18617 -10.18458 -10.16793  -1.03364
 Alpha  occ. eigenvalues --   -1.02746  -0.90440  -0.79396  -0.70684  -0.63965
 Alpha  occ. eigenvalues --   -0.60952  -0.56471  -0.54265  -0.51788  -0.48967
 Alpha  occ. eigenvalues --   -0.47808  -0.44337  -0.42009  -0.40508  -0.39756
 Alpha  occ. eigenvalues --   -0.39098  -0.36714  -0.34595  -0.34315  -0.30338
 Alpha  occ. eigenvalues --   -0.29474  -0.26197  -0.25844  -0.20385
 Alpha virt. eigenvalues --    0.06898   0.08322   0.09135   0.10873   0.11548
 Alpha virt. eigenvalues --    0.14453   0.14864   0.15536   0.16710   0.16922
 Alpha virt. eigenvalues --    0.19119   0.20079   0.21275   0.21843   0.24114

 Mulliken charges:
               1
     1  C   -0.491767
     2  C    0.253608
     3  C    0.013943
     4  O   -0.435727
     5  C   -0.163507
     6  C   -0.120672
     7  C   -0.377211
     8  C    0.332300
     9  O   -0.445744
    10  H    0.124626
    11  H    0.108266
    12  H    0.136952
    13  H    0.079040
    14  H    0.287771
    15  H    0.087370
    16  H    0.098541
    17  H    0.113868
    18  H    0.112362
    19  H    0.285981
 Sum of Mulliken charges =   0.00000

 Dipole moment (field-independent basis, Debye):
    X=              0.0013    Y=             -1.2334    Z=             -0.6086  Tot=              1.3754
 Quadrupole moment (field-independent basis, Debye-Ang):
   XX=            -52.2184   YY=            -51.8146   ZZ=            -50.8997
   XY=              3.3187   XZ=             -5.0865   YZ=             -1.8565

  Exact polarizability:  82.987  -0.585  76.500  -2.482  -1.209  66.033
 Approx polarizability: 112.651   3.078 111.545  -2.560  -4.637 106.078

                      1                      2                      3
                      A                      A                      A
 Frequencies --    139.4787               176.6648               231.4036
 Red. masses --      3.2869                 1.0304                 3.8002
 Frc consts  --      0.0377                 0.0189                 0.1199
 IR Inten    --      1.7691                 0.5301                 2.1587

                      4                      5                      6
                      A                      A                      A
 Frequencies --    248.7066               264.6269               289.0352
 Red. masses --      2.6824                 2.4539                 1.2293
 Frc consts  --      0.0978                 0.1012                 0.0605
 IR Inten    --     31.3698                 7.3495                78.9629

                      7                      8                      9
                      A                      A                      A
 Frequencies --    292.7563               330.1224               419.4026
 Red. masses --      1.7131                 2.0094                 3.3129
 Frc consts  --      0.0865                 0.1290                 0.3433
 IR Inten    --     61.5699                13.8920                17.4668

                     10                     11                     12
                      A                      A                      A
 Frequencies --    429.4573               464.1801               522.4739
 Red. masses --      3.1404                 2.7604                 3.4880
 Frc consts  --      0.3412                 0.3504                 0.5610
 IR Inten    --      8.5018                 3.3859                11.7470

                     13                     14                     15
                      A                      A                      A
 Frequencies --    621.8298               652.7796               788.0761
 Red. masses --      3.5958                 3.3149                 2.6308
 Frc consts  --      0.8192                 0.8322                 0.9627
 IR Inten    --      3.6457                 6.7405                 0.6403

                     16                     17                     18
                      A                      A                      A
 Frequencies --    836.7258               868.0375               881.8463
 Red. masses --      3.4042                 2.1055                 2.3902
 Frc consts  --      1.4042                 0.9347                 1.0951
 IR Inten    --      1.1589                 2.0702                 5.1078

                     19                     20                     21
                      A                      A                      A
 Frequencies --    903.3489               916.8457               945.7320
 Red. masses --      1.4264                 3.2231                 1.4426
 Frc consts  --      0.6858                 1.5963                 0.7602
 IR Inten    --      6.4366                16.9296                 5.9297

                     22                     23                     24
                      A                      A                      A
 Frequencies --    991.1827              1025.0735              1045.5990
 Red. masses --      1.3983                 1.8602                 1.3538
 Frc consts  --      0.8094                 1.1516                 0.8721
 IR Inten    --      2.2877                 0.9865                26.4485

                     25                     26                     27
                      A                      A                      A
 Frequencies --   1067.2774              1079.7869              1113.9815
 Red. masses --      1.7645                 1.5256                 1.8022
 Frc consts  --      1.1842                 1.0480                 1.3177
 IR Inten    --      0.7961                30.3316                44.2690

                     28                     29                     30
                      A                      A                      A
 Frequencies --   1140.0599              1157.8688              1225.1711
 Red. masses --      2.5810                 2.4199                 1.7269
 Frc consts  --      1.9765                 1.9114                 1.5272
 IR Inten    --     43.1353                 7.9602                24.9001

                     31                     32                     33
                      A                      A                      A
 Frequencies --   1239.5597              1267.1544              1281.5241
 Red. masses --      1.9157                 2.4780                 1.6534
 Frc consts  --      1.7343                 2.3443                 1.5999
 IR Inten    --     17.1767                49.8441                55.3879

                     34                     35                     36
                      A                      A                      A
 Frequencies --   1305.8256              1350.5503              1391.6067
 Red. masses --      1.4413                 1.7219                 2.0622
 Frc consts  --      1.4480                 1.8504                 2.3529
 IR Inten    --     72.4284                 2.8561                10.9503

                     37                     38                     39
                      A                      A                      A
 Frequencies --   1410.9548              1460.5472              1487.3372
 Red. masses --      1.3306                 2.4490                 1.0479
 Frc consts  --      1.5608                 3.0780                 1.3659
 IR Inten    --      4.3616                 9.2950                 4.8889

                     40                     41                     42
                      A                      A                      A
 Frequencies --   1498.8396              1503.8668              3025.2788
 Red. masses --      1.1220                 1.3726                 1.0425
 Frc consts  --      1.4851                 1.8291                 5.6214
 IR Inten    --      6.8359                 7.9344                41.4595

                     43                     44                     45
                      A                      A                      A
 Frequencies --   3085.6810              3099.5719              3129.9213
 Red. masses --      1.0939                 1.0820                 1.0590
 Frc consts  --      6.1365                 6.1247                 6.1122
 IR Inten    --     19.1959                16.1567                33.0443

                     46                     47                     48
                      A                      A                      A
 Frequencies --   3133.1876              3180.3066              3196.5797
 Red. masses --      1.0987                 1.0909                 1.0969
 Frc consts  --      6.3546                 6.5009                 6.6040
 IR Inten    --      9.5546                12.2925                 8.7258

                     49                     50                     51
                      A                      A                      A
 Frequencies --   3206.7077              3781.6730              3805.9391
 Red. masses --      1.1118                 1.0661                 1.0663
 Frc consts  --      6.7358                 8.9833                 9.1000
 IR Inten    --     17.0216                19.3140                24.2762

 - Thermochemistry -
 -------------------
 Temperature   298.150 Kelvin.  Pressure   1.00000 Atm.
 Atom     1 has atomic number  6 and mass  12.00000

 Molecular mass:   126.06808 amu.
 Principal axes and moments of inertia in atomic units:
                           1         2         3
     Eigenvalues --   639.741001210.613421569.02566
           X            0.99952  -0.02778  -0.01404
           Y            0.02795   0.99953   0.01220
           Z            0.01369  -0.01259   0.99983
 This molecule is an asymmetric top.
 Rotational symmetry number  1.
 Warning -- assumption of classical behavior for rotation
           may cause significant error
 Rotational temperatures (Kelvin)      0.13539     0.07155     0.05520
 Rotational constants (GHZ):           2.82105     1.49077     1.15023
 Zero-point vibrational energy     412186.2 (Joules/Mol)
                                   98.51485 (Kcal/Mol)
 Warning -- explicit consideration of  12 degrees of freedom as
           vibrations may cause significant error
 Vibrational temperatures:    200.68   254.18   332.94   357.83   380.74
          (Kelvin)            415.86   421.21   474.97   603.43   617.89
                              667.85   751.72   894.67   939.20  1133.86
                             1203.86  1248.91  1268.78  1299.72  1319.13
                             1360.70  1426.09  1474.85  1504.38  1535.57
                             1553.57  1602.77  1640.29  1665.91  1762.75
                             1783.45  1823.15  1843.82  1878.79  1943.14
                             2002.21  2030.05  2101.40  2139.94  2156.49
                             2163.73  4352.70  4439.60  4459.59  4503.25
                             4507.95  4575.75  4599.16  4613.73  5440.98
                             5475.89

 Zero-point correction=                           0.156993 (Hartree/Particle)
 Thermal correction to Energy=                    0.165866
 Thermal correction to Enthalpy=                  0.166810
 Thermal correction to Gibbs Free Energy=         0.124326
 Sum of electronic and zero-point Energies=           -422.942808
 Sum of electronic and thermal Energies=              -422.933935
 Sum of electronic and thermal Enthalpies=            -422.932991
 Sum of electronic and thermal Free Energies=         -422.975476

                     E (Thermal)             CV                S
                      KCal/Mol        Cal/Mol-Kelvin    Cal/Mol-Kelvin
 Total                  104.082             34.969             89.416
 Electronic               0.000              0.000              0.000
 Translational            0.889              2.981             40.409
 Rotational               0.889              2.981             28.587
 Vibrational            102.305             29.007             20.420
 Vibration     1          0.615              1.914              2.811
 Vibration     2          0.628              1.871              2.363
 Vibration     3          0.653              1.793              1.868
 Vibration     4          0.662              1.765              1.740
 Vibration     5          0.671              1.738              1.631
 Vibration     6          0.686              1.694              1.480
 Vibration     7          0.688              1.687              1.458
 Vibration     8          0.713              1.615              1.259
 Vibration     9          0.782              1.428              0.894
 Vibration    10          0.791              1.406              0.860
 Vibration    11          0.822              1.330              0.754
 Vibration    12          0.877              1.200              0.604

 Optimization completed.
    -- Stationary point found.
 Normal termination of Gaussian 09 at Mon Jan 27 23:03:31 2020.
