 Gaussian 09, Revision D.01,
 Gaussian 09:  ES64L-G09RevD.01 24-Apr-2013

 -----------------------------
 # b3lyp 6-31G(2df,p) opt Freq
 -----------------------------

 -----
 titel
 -----
 Symbolic Z-matrix:
 Charge =  0 Multiplicity = 1

 SCF Done:  E(RB3LYP) =  -423.133803557     A.U. after   12 cycles
 Optimization completed.
    -- Stationary point found.
 Normal termination of Gaussian 09 at Mon Jan 27 22:14:16 2020.

 ----------------------------------------------------------------------
 #N Geom=AllCheck Guess=TCheck SCRF=Check GenChk RB3LYP/6-31G(2df,p) Fr
 eq
 ----------------------------------------------------------------------

 Structure from the checkpoint file:  "/scratch/puck/g09_ad42e352-4198-4d84-aceb-1fa0bff21294/Gau-28911.chk"
 -----
 titel
 -----
 Charge =  0 Multiplicity = 1

                         Standard orientation:
 ---------------------------------------------------------------------
 Center     Atomic      Atomic             Coordinates (Angstroms)
 Number     Number       Type             X           Y           Z
 ---------------------------------------------------------------------
      1          8           0        2.886031    0.456149    0.072644
      2          6           0        1.569252    0.146824    0.426467
      3          6           0        0.832208   -0.904550   -0.369331
      4          6           0        0.451356    0.573457   -0.490131
      5          6           0       -1.013522    0.499117   -0.032188
      6          8           0       -1.652268    1.734250   -0.039273
      7          6           0       -1.505997   -0.759840   -0.846468
      8          6           0       -0.510858   -1.478315    0.124340
      9          6           0       -0.990768   -0.456927    1.196635
     10          1           0        2.957051    0.454164   -0.887774
     11          1           0        1.480099    0.214394    1.503504
     12          1           0        1.372283   -1.427646   -1.152669
     13          1           0        0.677011    1.180408   -1.361374
     14          1           0       -2.563765    1.606429    0.242662
     15          1           0       -2.553890   -1.010243   -0.652442
     16          1           0       -1.290138   -0.791134   -1.917565
     17          1           0       -0.566645   -2.549497    0.309212
     18          1           0       -2.004740   -0.690254    1.532523
     19          1           0       -0.367402   -0.228398    2.061017
 ---------------------------------------------------------------------

 SCF Done:  E(RB3LYP) =  -423.133803557     A.U. after    1 cycles

 The electronic state is 1-A.
 Alpha  occ. eigenvalues --  -19.14295 -19.14203 -10.24606 -10.23566 -10.20007
 Alpha  occ. eigenvalues --  -10.18606 -10.18322 -10.18317 -10.18173  -1.03095
 Alpha  occ. eigenvalues --   -1.02677  -0.90213  -0.79317  -0.67343  -0.66803
 Alpha  occ. eigenvalues --   -0.61953  -0.57200  -0.54332  -0.53139  -0.49823
 Alpha  occ. eigenvalues --   -0.48920  -0.42556  -0.40886  -0.40273  -0.39136
 Alpha  occ. eigenvalues --   -0.38780  -0.37450  -0.35552  -0.33837  -0.33050
 Alpha  occ. eigenvalues --   -0.29961  -0.27408  -0.25018  -0.23466
 Alpha virt. eigenvalues --    0.07287   0.07609   0.09773   0.10952   0.12550
 Alpha virt. eigenvalues --    0.13040   0.14694   0.15114   0.17045   0.17640
 Alpha virt. eigenvalues --    0.18078   0.20570   0.21378   0.21391   0.24541

 Mulliken charges:
               1
     1  O   -0.445991
     2  C    0.118785
     3  C   -0.098480
     4  C   -0.134414
     5  C    0.404961
     6  O   -0.486355
     7  C   -0.272949
     8  C   -0.053306
     9  C   -0.307118
    10  H    0.283260
    11  H    0.107653
    12  H    0.082406
    13  H    0.086551
    14  H    0.279341
    15  H    0.084009
    16  H    0.090903
    17  H    0.069530
    18  H    0.088060
    19  H    0.103155
 Sum of Mulliken charges =   0.00000

 Dipole moment (field-independent basis, Debye):
    X=             -1.7538    Y=             -1.2973    Z=             -0.7253  Tot=              2.2990
 Quadrupole moment (field-independent basis, Debye-Ang):
   XX=            -51.8435   YY=            -56.9006   ZZ=            -50.4311
   XY=             -0.5908   XZ=             -5.8397   YZ=              0.0113

  Exact polarizability:  85.507   1.909  68.874  -1.682   0.216  68.742
 Approx polarizability: 118.338   1.322 107.832  -0.398   0.152 106.139

                      1                      2                      3
                      A                      A                      A
 Frequencies --    190.7423               217.8075               235.6513
 Red. masses --      1.1879                 3.0720                 3.8676
 Frc consts  --      0.0255                 0.0859                 0.1265
 IR Inten    --     72.1834                 9.6061                 5.2936

                      4                      5                      6
                      A                      A                      A
 Frequencies --    286.3428               322.3386               385.6782
 Red. masses --      1.7602                 1.6581                 3.7212
 Frc consts  --      0.0850                 0.1015                 0.3261
 IR Inten    --     34.8458                57.0401                15.3594

                      7                      8                      9
                      A                      A                      A
 Frequencies --    410.9154               441.3853               501.4382
 Red. masses --      3.0671                 3.5453                 2.6453
 Frc consts  --      0.3051                 0.4070                 0.3919
 IR Inten    --      9.2208                 1.3477                 1.6888

                     10                     11                     12
                      A                      A                      A
 Frequencies --    584.9029               600.4756               675.7434
 Red. masses --      2.4484                 3.1037                 3.6920
 Frc consts  --      0.4935                 0.6594                 0.9933
 IR Inten    --      0.9526                 3.4517                 5.2518

                     13                     14                     15
                      A                      A                      A
 Frequencies --    783.1082               824.4745               860.5696
 Red. masses --      1.6466                 3.3726                 2.5191
 Frc consts  --      0.5949                 1.3507                 1.0992
 IR Inten    --      2.2386                 1.6894                 2.4622

                     16                     17                     18
                      A                      A                      A
 Frequencies --    880.2242               915.2604               934.4196
 Red. masses --      3.2048                 2.5213                 2.5012
 Frc consts  --      1.4630                 1.2444                 1.2867
 IR Inten    --     11.4166                 6.9069                 8.1369

                     19                     20                     21
                      A                      A                      A
 Frequencies --    946.6102               976.8538               991.7723
 Red. masses --      2.1962                 1.9524                 1.7310
 Frc consts  --      1.1595                 1.0977                 1.0032
 IR Inten    --     11.4093                 1.9186                20.2642

                     22                     23                     24
                      A                      A                      A
 Frequencies --   1025.4480              1028.2697              1077.0025
 Red. masses --      1.4778                 1.3805                 1.5575
 Frc consts  --      0.9156                 0.8600                 1.0644
 IR Inten    --      2.0587                 4.6144                23.8117

                     25                     26                     27
                      A                      A                      A
 Frequencies --   1094.2423              1100.5383              1126.6215
 Red. masses --      1.3356                 1.6363                 1.3896
 Frc consts  --      0.9422                 1.1677                 1.0392
 IR Inten    --      1.2198                 4.1712                79.3921

                     28                     29                     30
                      A                      A                      A
 Frequencies --   1130.8965              1131.8663              1159.5999
 Red. masses --      1.4076                 2.0587                 1.8346
 Frc consts  --      1.0607                 1.5539                 1.4535
 IR Inten    --     12.1058                36.2574                59.9115

                     31                     32                     33
                      A                      A                      A
 Frequencies --   1210.5830              1220.8364              1247.7526
 Red. masses --      1.9806                 1.4990                 1.7912
 Frc consts  --      1.7102                 1.3163                 1.6431
 IR Inten    --     11.3961                 5.0676                26.9191

                     34                     35                     36
                      A                      A                      A
 Frequencies --   1268.3647              1284.4614              1306.8811
 Red. masses --      1.7567                 1.6673                 2.0261
 Frc consts  --      1.6651                 1.6207                 2.0388
 IR Inten    --     19.6445                70.9031                91.6905

                     37                     38                     39
                      A                      A                      A
 Frequencies --   1361.3899              1392.4441              1450.9008
 Red. masses --      1.6058                 1.9526                 1.6378
 Frc consts  --      1.7535                 2.2306                 2.0314
 IR Inten    --     24.1803                 1.8465                81.9484

                     40                     41                     42
                      A                      A                      A
 Frequencies --   1489.8436              1536.4842              3046.3290
 Red. masses --      1.1425                 1.1335                 1.0563
 Frc consts  --      1.4941                 1.5766                 5.7754
 IR Inten    --      8.3987                 7.7156                40.0507

                     43                     44                     45
                      A                      A                      A
 Frequencies --   3069.9348              3112.9327              3128.4774
 Red. masses --      1.0604                 1.1092                 1.1037
 Frc consts  --      5.8884                 6.3327                 6.3647
 IR Inten    --     25.1183                34.7075                34.6654

                     46                     47                     48
                      A                      A                      A
 Frequencies --   3130.1961              3151.0085              3162.2670
 Red. masses --      1.0912                 1.0888                 1.0927
 Frc consts  --      6.2994                 6.3692                 6.4382
 IR Inten    --     30.0207                19.9464                13.4835

                     49                     50                     51
                      A                      A                      A
 Frequencies --   3188.1462              3811.1882              3816.4852
 Red. masses --      1.0880                 1.0658                 1.0658
 Frc consts  --      6.5154                 9.1207                 9.1464
 IR Inten    --     21.1369                17.7378                19.4999

 - Thermochemistry -
 -------------------
 Temperature   298.150 Kelvin.  Pressure   1.00000 Atm.
 Atom     1 has atomic number  8 and mass  15.99491

 Molecular mass:   126.06808 amu.
 Principal axes and moments of inertia in atomic units:
                           1         2         3
     Eigenvalues --   603.502351265.608581512.26921
           X            0.99979   0.01588  -0.01316
           Y           -0.01585   0.99987   0.00253
           Z            0.01320  -0.00232   0.99991
 This molecule is an asymmetric top.
 Rotational symmetry number  1.
 Warning -- assumption of classical behavior for rotation
           may cause significant error
 Rotational temperatures (Kelvin)      0.14352     0.06844     0.05727
 Rotational constants (GHZ):           2.99045     1.42599     1.19340
 Zero-point vibrational energy     420057.4 (Joules/Mol)
                                  100.39612 (Kcal/Mol)
 Warning -- explicit consideration of  11 degrees of freedom as
           vibrations may cause significant error
 Vibrational temperatures:    274.44   313.38   339.05   411.98   463.77
          (Kelvin)            554.90   591.21   635.05   721.46   841.54
                              863.95   972.24  1126.72  1186.23  1238.17
                             1266.44  1316.85  1344.42  1361.96  1405.47
                             1426.94  1475.39  1479.45  1549.56  1574.37
                             1583.43  1620.95  1627.11  1628.50  1668.40
                             1741.76  1756.51  1795.24  1824.89  1848.05
                             1880.31  1958.73  2003.41  2087.52  2143.55
                             2210.66  4382.98  4416.95  4478.81  4501.18
                             4503.65  4533.59  4549.79  4587.03  5483.44
                             5491.06

 Zero-point correction=                           0.159991 (Hartree/Particle)
 Thermal correction to Energy=                    0.167678
 Thermal correction to Enthalpy=                  0.168623
 Thermal correction to Gibbs Free Energy=         0.128429
 Sum of electronic and zero-point Energies=           -422.973812
 Sum of electronic and thermal Energies=              -422.966125
 Sum of electronic and thermal Enthalpies=            -422.965181
 Sum of electronic and thermal Free Energies=         -423.005375

                     E (Thermal)             CV                S
                      KCal/Mol        Cal/Mol-Kelvin    Cal/Mol-Kelvin
 Total                  105.220             31.881             84.595
 Electronic               0.000              0.000              0.000
 Translational            0.889              2.981             40.409
 Rotational               0.889              2.981             28.537
 Vibrational            103.442             25.919             15.650
 Vibration     1          0.634              1.853              2.221
 Vibration     2          0.646              1.814              1.977
 Vibration     3          0.655              1.786              1.835
 Vibration     4          0.684              1.699              1.495
 Vibration     5          0.707              1.631              1.298
 Vibration     6          0.754              1.501              1.017
 Vibration     7          0.775              1.447              0.923
 Vibration     8          0.801              1.380              0.822
 Vibration     9          0.857              1.247              0.655
 Vibration    10          0.942              1.064              0.476
 Vibration    11          0.959              1.031              0.449

 Normal termination of Gaussian 09 at Tue Jan 28 00:31:51 2020.
