 Gaussian 09, Revision D.01,
 Gaussian 09:  ES64L-G09RevD.01 24-Apr-2013

 -----------------------------
 # b3lyp 6-31G(2df,p) opt Freq
 -----------------------------

 -----
 titel
 -----
 Symbolic Z-matrix:
 Charge =  0 Multiplicity = 1

 SCF Done:  E(RB3LYP) =  -423.228134008     A.U. after   14 cycles
 Optimization completed.
    -- Stationary point found.
 Normal termination of Gaussian 09 at Mon Jan 27 14:10:40 2020.

 ----------------------------------------------------------------------
 #N Geom=AllCheck Guess=TCheck SCRF=Check GenChk RB3LYP/6-31G(2df,p) Fr
 eq
 ----------------------------------------------------------------------

 Structure from the checkpoint file:  "/scratch/puck/g09_d3cb32f8-752c-40a2-80fa-1161d5280a83/Gau-70746.chk"
 -----
 titel
 -----
 Charge =  0 Multiplicity = 1

                         Standard orientation:
 ---------------------------------------------------------------------
 Center     Atomic      Atomic             Coordinates (Angstroms)
 Number     Number       Type             X           Y           Z
 ---------------------------------------------------------------------
      1          6           0       -2.247727    1.024519    0.765141
      2          6           0       -2.010101   -0.172881   -0.137836
      3          8           0       -2.892326   -0.718098   -0.744029
      4          8           0       -0.747454   -0.654554   -0.255126
      5          6           0        0.389005   -0.049750    0.393837
      6          6           0        1.074692    1.022614   -0.490153
      7          6           0        2.595407    0.734102   -0.398731
      8          6           0        2.646931   -0.668195    0.156020
      9          6           0        1.459405   -1.093359    0.578350
     10          1           0       -2.050382    0.773049    1.812308
     11          1           0       -1.607861    1.870810    0.501353
     12          1           0       -3.293276    1.311767    0.663284
     13          1           0        0.069781    0.351834    1.362362
     14          1           0        0.723389    0.871469   -1.514582
     15          1           0        0.818952    2.043466   -0.196465
     16          1           0        3.101310    0.824800   -1.366350
     17          1           0        3.100296    1.437447    0.276799
     18          1           0        3.569614   -1.234340    0.220716
     19          1           0        1.240743   -2.051383    1.034051
 ---------------------------------------------------------------------

 SCF Done:  E(RB3LYP) =  -423.228134008     A.U. after    1 cycles

 The electronic state is 1-A.
 Alpha  occ. eigenvalues --  -19.17223 -19.11157 -10.30238 -10.25246 -10.19804
 Alpha  occ. eigenvalues --  -10.19733 -10.19483 -10.19454 -10.18840  -1.08753
 Alpha  occ. eigenvalues --   -1.00751  -0.85161  -0.74809  -0.72265  -0.72190
 Alpha  occ. eigenvalues --   -0.61129  -0.56323  -0.54647  -0.51338  -0.50055
 Alpha  occ. eigenvalues --   -0.46272  -0.45396  -0.44405  -0.40937  -0.40514
 Alpha  occ. eigenvalues --   -0.39687  -0.37004  -0.36793  -0.36384  -0.35799
 Alpha  occ. eigenvalues --   -0.33242  -0.28778  -0.26446  -0.25423
 Alpha virt. eigenvalues --    0.00788   0.01920   0.07393   0.09294   0.12110
 Alpha virt. eigenvalues --    0.12440   0.13599   0.14519   0.15967   0.16324
 Alpha virt. eigenvalues --    0.17514   0.18242   0.19395   0.20288   0.20995

 Mulliken charges:
               1
     1  C   -0.525045
     2  C    0.412468
     3  O   -0.313702
     4  O   -0.239249
     5  C    0.099260
     6  C   -0.242502
     7  C   -0.260718
     8  C   -0.061348
     9  C   -0.077294
    10  H    0.150227
    11  H    0.145321
    12  H    0.151858
    13  H    0.090137
    14  H    0.130346
    15  H    0.101557
    16  H    0.114237
    17  H    0.113316
    18  H    0.103364
    19  H    0.107766
 Sum of Mulliken charges =   0.00000

 Dipole moment (field-independent basis, Debye):
    X=              3.0490    Y=              2.4360    Z=              2.1383  Tot=              4.4500
 Quadrupole moment (field-independent basis, Debye-Ang):
   XX=            -57.6523   YY=            -52.7782   ZZ=            -53.1430
   XY=             -5.3159   XZ=             -5.5597   YZ=             -2.1895

  Exact polarizability: 104.542   1.761  70.670  -2.125  -1.577  60.629
 Approx polarizability: 142.500  10.209 104.029  -1.201  -0.373  94.960

                      1                      2                      3
                      A                      A                      A
 Frequencies --     50.5606                69.9826                88.5915
 Red. masses --      3.0832                 3.6117                 3.4704
 Frc consts  --      0.0046                 0.0104                 0.0160
 IR Inten    --      1.2264                 1.1703                 0.4297

                      4                      5                      6
                      A                      A                      A
 Frequencies --    185.1349               203.0917               301.1246
 Red. masses --      1.4157                 1.6754                 3.2506
 Frc consts  --      0.0286                 0.0407                 0.1737
 IR Inten    --      0.5741                 0.7305                 0.1291

                      7                      8                      9
                      A                      A                      A
 Frequencies --    381.2284               417.7561               477.0317
 Red. masses --      3.9563                 3.8275                 3.0612
 Frc consts  --      0.3388                 0.3936                 0.4104
 IR Inten    --      1.6702                 4.4855                 1.6229

                     10                     11                     12
                      A                      A                      A
 Frequencies --    574.6598               576.0171               659.4053
 Red. masses --      2.3027                 2.3590                 3.4544
 Frc consts  --      0.4480                 0.4612                 0.8850
 IR Inten    --     15.1318                 4.7425                10.4641

                     13                     14                     15
                      A                      A                      A
 Frequencies --    751.3985               785.0166               828.7319
 Red. masses --      1.8417                 3.2424                 2.7670
 Frc consts  --      0.6126                 1.1773                 1.1197
 IR Inten    --     17.2980                 5.4090                 4.4575

                     16                     17                     18
                      A                      A                      A
 Frequencies --    860.7597               907.4671               927.3572
 Red. masses --      1.7270                 2.6927                 2.6252
 Frc consts  --      0.7539                 1.3065                 1.3302
 IR Inten    --      0.2521                 2.6093                 3.1643

                     19                     20                     21
                      A                      A                      A
 Frequencies --    976.5160               999.7243              1000.6600
 Red. masses --      1.3531                 1.7600                 2.1131
 Frc consts  --      0.7602                 1.0364                 1.2466
 IR Inten    --      3.2055                25.6463                 7.8124

                     22                     23                     24
                      A                      A                      A
 Frequencies --   1049.4978              1056.1355              1076.9821
 Red. masses --      2.1492                 1.8336                 2.9527
 Frc consts  --      1.3947                 1.2051                 2.0178
 IR Inten    --     49.0986                 9.2240                73.4061

                     25                     26                     27
                      A                      A                      A
 Frequencies --   1085.0677              1134.6104              1179.7820
 Red. masses --      2.2097                 1.1863                 1.3405
 Frc consts  --      1.5328                 0.8998                 1.0993
 IR Inten    --     21.8564                12.5662                10.2542

                     28                     29                     30
                      A                      A                      A
 Frequencies --   1234.2128              1256.5534              1290.2597
 Red. masses --      1.3378                 3.7318                 1.2671
 Frc consts  --      1.2007                 3.4716                 1.2429
 IR Inten    --      8.2791               416.7428                 4.0558

                     31                     32                     33
                      A                      A                      A
 Frequencies --   1308.1117              1331.6291              1360.9396
 Red. masses --      1.3184                 1.6490                 1.3063
 Frc consts  --      1.3292                 1.7228                 1.4256
 IR Inten    --     10.6941                 1.7572                 2.3282

                     34                     35                     36
                      A                      A                      A
 Frequencies --   1389.3213              1392.7645              1470.5921
 Red. masses --      1.4684                 1.3957                 1.0530
 Frc consts  --      1.6699                 1.5951                 1.3417
 IR Inten    --     14.6372                68.3490                 9.4637

                     37                     38                     39
                      A                      A                      A
 Frequencies --   1481.7399              1488.1357              1499.5270
 Red. masses --      1.0809                 1.0478                 1.0961
 Frc consts  --      1.3983                 1.3672                 1.4521
 IR Inten    --      0.8043                 9.0224                 2.1634

                     40                     41                     42
                      A                      A                      A
 Frequencies --   1693.2588              1841.7861              3020.9989
 Red. masses --      6.3495                11.5826                 1.0662
 Frc consts  --     10.7260                23.1492                 5.7329
 IR Inten    --      2.3264               352.7837                36.1520

                     43                     44                     45
                      A                      A                      A
 Frequencies --   3036.1157              3052.1584              3057.5407
 Red. masses --      1.0798                 1.0408                 1.0909
 Frc consts  --      5.8646                 5.7126                 6.0088
 IR Inten    --     22.7703                 7.6613                17.8218

                     46                     47                     48
                      A                      A                      A
 Frequencies --   3067.9186              3114.2190              3116.6534
 Red. masses --      1.0644                 1.1050                 1.0987
 Frc consts  --      5.9027                 6.3140                 6.2877
 IR Inten    --     21.6982                20.3461                 9.7729

                     49                     50                     51
                      A                      A                      A
 Frequencies --   3166.2846              3190.7771              3219.5480
 Red. masses --      1.1012                 1.0862                 1.1036
 Frc consts  --      6.5044                 6.5155                 6.7400
 IR Inten    --      8.5017                 6.8240                11.3981

 - Thermochemistry -
 -------------------
 Temperature   298.150 Kelvin.  Pressure   1.00000 Atm.
 Atom     1 has atomic number  6 and mass  12.00000

 Molecular mass:   126.06808 amu.
 Principal axes and moments of inertia in atomic units:
                           1         2         3
     Eigenvalues --   446.775961963.860722130.86337
           X            0.99971  -0.01496  -0.01877
           Y            0.01460   0.99971  -0.01904
           Z            0.01905   0.01876   0.99964
 This molecule is an asymmetric top.
 Rotational symmetry number  1.
 Warning -- assumption of classical behavior for rotation
           may cause significant error
 Rotational temperatures (Kelvin)      0.19386     0.04410     0.04065
 Rotational constants (GHZ):           4.03948     0.91898     0.84695
 Zero-point vibrational energy     416810.9 (Joules/Mol)
                                   99.62019 (Kcal/Mol)
 Warning -- explicit consideration of  11 degrees of freedom as
           vibrations may cause significant error
 Vibrational temperatures:     72.75   100.69   127.46   266.37   292.20
          (Kelvin)            433.25   548.50   601.06   686.34   826.81
                              828.76   948.74  1081.09  1129.46  1192.36
                             1238.44  1305.64  1334.26  1404.99  1438.38
                             1439.72  1509.99  1519.54  1549.54  1561.17
                             1632.45  1697.44  1775.75  1807.90  1856.39
                             1882.08  1915.91  1958.09  1998.92  2003.87
                             2115.85  2131.89  2141.09  2157.48  2436.22
                             2649.92  4346.54  4368.29  4391.37  4399.11
                             4414.05  4480.66  4484.16  4555.57  4590.81
                             4632.21

 Zero-point correction=                           0.158755 (Hartree/Particle)
 Thermal correction to Energy=                    0.167658
 Thermal correction to Enthalpy=                  0.168602
 Thermal correction to Gibbs Free Energy=         0.124001
 Sum of electronic and zero-point Energies=           -423.069379
 Sum of electronic and thermal Energies=              -423.060476
 Sum of electronic and thermal Enthalpies=            -423.059532
 Sum of electronic and thermal Free Energies=         -423.104133

                     E (Thermal)             CV                S
                      KCal/Mol        Cal/Mol-Kelvin    Cal/Mol-Kelvin
 Total                  105.207             32.444             93.872
 Electronic               0.000              0.000              0.000
 Translational            0.889              2.981             40.409
 Rotational               0.889              2.981             29.015
 Vibrational            103.430             26.482             24.448
 Vibration     1          0.595              1.977              4.795
 Vibration     2          0.598              1.968              4.154
 Vibration     3          0.601              1.957              3.691
 Vibration     4          0.631              1.860              2.276
 Vibration     5          0.639              1.836              2.105
 Vibration     6          0.693              1.672              1.411
 Vibration     7          0.751              1.510              1.034
 Vibration     8          0.781              1.432              0.900
 Vibration     9          0.834              1.301              0.718
 Vibration    10          0.931              1.086              0.495
 Vibration    11          0.932              1.083              0.493

 Optimization completed.
    -- Stationary point found.
 Normal termination of Gaussian 09 at Mon Jan 27 14:57:27 2020.
