 Gaussian 09, Revision D.01,
 Gaussian 09:  ES64L-G09RevD.01 24-Apr-2013

 -----------------------------
 # b3lyp 6-31G(2df,p) opt Freq
 -----------------------------

 -----
 titel
 -----
 Symbolic Z-matrix:
 Charge =  0 Multiplicity = 1

 SCF Done:  E(RB3LYP) =  -423.120954530     A.U. after   13 cycles
 Optimization completed.
    -- Stationary point found.
 Normal termination of Gaussian 09 at Mon Jan 27 18:30:57 2020.

 ----------------------------------------------------------------------
 #N Geom=AllCheck Guess=TCheck SCRF=Check GenChk RB3LYP/6-31G(2df,p) Fr
 eq
 ----------------------------------------------------------------------

 Structure from the checkpoint file:  "/scratch/puck/g09_756a532f-8a58-40de-beda-2f6312855d6f/Gau-88960.chk"
 -----
 titel
 -----
 Charge =  0 Multiplicity = 1

                         Standard orientation:
 ---------------------------------------------------------------------
 Center     Atomic      Atomic             Coordinates (Angstroms)
 Number     Number       Type             X           Y           Z
 ---------------------------------------------------------------------
      1          6           0       -1.312319    1.668353   -0.701798
      2          6           0       -0.265583    0.804925   -0.039342
      3          6           0       -0.234525    0.647631    1.499310
      4          8           0       -0.259360   -0.799210    1.402995
      5          6           0       -0.287961   -0.756606   -0.035182
      6          6           0       -1.338315   -1.631513   -0.663772
      7          6           0        1.121510   -0.744876   -0.713961
      8          8           0        2.013834   -0.003304    0.117736
      9          6           0        1.128208    0.731750   -0.724565
     10          1           0       -1.335469    1.508002   -1.785701
     11          1           0       -2.312170    1.456128   -0.310107
     12          1           0       -1.106959    2.732162   -0.532248
     13          1           0        0.662821    1.008877    2.009011
     14          1           0       -1.133261    1.023235    2.004471
     15          1           0       -1.139323   -2.681951   -0.422813
     16          1           0       -2.334862   -1.380629   -0.290186
     17          1           0       -1.334846   -1.528227   -1.754156
     18          1           0        1.563144   -1.473024   -1.387279
     19          1           0        1.569047    1.437557   -1.420991
 ---------------------------------------------------------------------

 SCF Done:  E(RB3LYP) =  -423.120954530     A.U. after    1 cycles

 The electronic state is 1-A.
 Alpha  occ. eigenvalues --  -19.15639 -19.12771 -10.24021 -10.23879 -10.23529
 Alpha  occ. eigenvalues --  -10.22289 -10.19883 -10.18883 -10.18395  -1.08804
 Alpha  occ. eigenvalues --   -1.02677  -0.80610  -0.75581  -0.70127  -0.66791
 Alpha  occ. eigenvalues --   -0.62383  -0.60507  -0.51787  -0.49912  -0.48971
 Alpha  occ. eigenvalues --   -0.46661  -0.45171  -0.42332  -0.40761  -0.40438
 Alpha  occ. eigenvalues --   -0.39782  -0.39301  -0.38136  -0.34386  -0.34085
 Alpha  occ. eigenvalues --   -0.30191  -0.26388  -0.26132  -0.23932
 Alpha virt. eigenvalues --    0.06187   0.07854   0.10154   0.11367   0.11876
 Alpha virt. eigenvalues --    0.12836   0.14177   0.14495   0.15390   0.16537
 Alpha virt. eigenvalues --    0.17062   0.17923   0.18730   0.20125   0.21263

 Mulliken charges:
               1
     1  C   -0.498365
     2  C    0.185363
     3  C   -0.122173
     4  O   -0.325556
     5  C    0.390640
     6  C   -0.488578
     7  C   -0.038875
     8  O   -0.227060
     9  C   -0.039227
    10  H    0.120579
    11  H    0.125952
    12  H    0.125223
    13  H    0.113822
    14  H    0.093348
    15  H    0.135109
    16  H    0.127154
    17  H    0.120234
    18  H    0.101012
    19  H    0.101398
 Sum of Mulliken charges =   0.00000

 Dipole moment (field-independent basis, Debye):
    X=             -1.4711    Y=              1.1367    Z=             -2.3339  Tot=              2.9839
 Quadrupole moment (field-independent basis, Debye-Ang):
   XX=            -55.7312   YY=            -50.4784   ZZ=            -53.5190
   XY=             -0.1013   XZ=             -1.7977   YZ=              3.0833

  Exact polarizability:  73.541  -0.332  78.174  -2.219   3.574  70.295
 Approx polarizability: 105.849  -0.141 115.530  -1.148   2.699 105.264

                      1                      2                      3
                      A                      A                      A
 Frequencies --    182.0069               185.4284               199.9405
 Red. masses --      2.3770                 2.2006                 1.0895
 Frc consts  --      0.0464                 0.0446                 0.0257
 IR Inten    --      1.0902                 1.1512                 0.0517

                      4                      5                      6
                      A                      A                      A
 Frequencies --    208.8001               280.7240               298.3508
 Red. masses --      1.1309                 3.7236                 3.2311
 Frc consts  --      0.0290                 0.1729                 0.1695
 IR Inten    --      0.1572                 1.0112                 0.4980

                      7                      8                      9
                      A                      A                      A
 Frequencies --    325.6833               342.7964               503.1810
 Red. masses --      2.3231                 3.7737                 2.7765
 Frc consts  --      0.1452                 0.2613                 0.4142
 IR Inten    --      2.5894                 0.9541                 2.6159

                     10                     11                     12
                      A                      A                      A
 Frequencies --    552.3125               587.2666               710.9326
 Red. masses --      4.5994                 4.2061                 4.6249
 Frc consts  --      0.8266                 0.8547                 1.3772
 IR Inten    --      8.7330                 8.7875                 6.6740

                     13                     14                     15
                      A                      A                      A
 Frequencies --    730.7060               827.7611               846.5425
 Red. masses --      3.9993                 2.1840                 2.0557
 Frc consts  --      1.2581                 0.8817                 0.8680
 IR Inten    --      4.6734                 6.4445                 9.0403

                     16                     17                     18
                      A                      A                      A
 Frequencies --    854.1128               862.1754               891.3860
 Red. masses --      2.7498                 2.9731                 2.2744
 Frc consts  --      1.1819                 1.3021                 1.0648
 IR Inten    --      3.6387                 3.0146                28.0679

                     19                     20                     21
                      A                      A                      A
 Frequencies --    930.0159               974.5298               996.9808
 Red. masses --      1.7705                 1.5308                 5.0154
 Frc consts  --      0.9023                 0.8566                 2.9371
 IR Inten    --      2.2797                 2.7224                67.1804

                     22                     23                     24
                      A                      A                      A
 Frequencies --   1001.4133              1041.5910              1122.5216
 Red. masses --      2.8205                 1.3048                 2.2160
 Frc consts  --      1.6665                 0.8341                 1.6452
 IR Inten    --     25.6337                 0.2228                 2.0824

                     25                     26                     27
                      A                      A                      A
 Frequencies --   1136.5286              1158.2899              1162.4001
 Red. masses --      2.1689                 1.2539                 1.9675
 Frc consts  --      1.6507                 0.9912                 1.5663
 IR Inten    --      8.5129                 1.2829                30.9557

                     28                     29                     30
                      A                      A                      A
 Frequencies --   1200.4899              1204.5769              1244.2566
 Red. masses --      1.4212                 2.0375                 2.8897
 Frc consts  --      1.2068                 1.7419                 2.6359
 IR Inten    --      3.0681                 1.6243                 6.3053

                     31                     32                     33
                      A                      A                      A
 Frequencies --   1295.6900              1305.6356              1347.3994
 Red. masses --      2.4433                 2.4247                 2.1594
 Frc consts  --      2.4167                 2.4353                 2.3099
 IR Inten    --      4.7014                12.0715                 6.1975

                     34                     35                     36
                      A                      A                      A
 Frequencies --   1380.3228              1404.8135              1414.6416
 Red. masses --      2.8769                 1.3713                 1.2662
 Frc consts  --      3.2296                 1.5945                 1.4930
 IR Inten    --      6.4640                 7.5358                 6.0028

                     37                     38                     39
                      A                      A                      A
 Frequencies --   1478.2436              1485.3015              1493.5380
 Red. masses --      1.0514                 1.0494                 1.0641
 Frc consts  --      1.3537                 1.3641                 1.3985
 IR Inten    --      3.5079                 1.0102                 3.6457

                     40                     41                     42
                      A                      A                      A
 Frequencies --   1497.3868              1504.9865              3018.2672
 Red. masses --      1.0520                 1.1056                 1.0591
 Frc consts  --      1.3897                 1.4755                 5.6844
 IR Inten    --      7.4159                 1.1870                55.2270

                     43                     44                     45
                      A                      A                      A
 Frequencies --   3024.3777              3032.5687              3083.8562
 Red. masses --      1.0388                 1.0357                 1.1001
 Frc consts  --      5.5983                 5.6117                 6.1641
 IR Inten    --     37.9154                12.6426                20.1114

                     46                     47                     48
                      A                      A                      A
 Frequencies --   3091.0667              3098.9660              3099.8112
 Red. masses --      1.1029                 1.1002                 1.1008
 Frc consts  --      6.2089                 6.2250                 6.2319
 IR Inten    --     24.3070                11.7692                21.5742

                     49                     50                     51
                      A                      A                      A
 Frequencies --   3115.6099              3158.5117              3175.0010
 Red. masses --      1.1013                 1.0875                 1.1005
 Frc consts  --      6.2988                 6.3920                 6.5360
 IR Inten    --     19.1343                19.2657                23.8096

 - Thermochemistry -
 -------------------
 Temperature   298.150 Kelvin.  Pressure   1.00000 Atm.
 Atom     1 has atomic number  6 and mass  12.00000

 Molecular mass:   126.06808 amu.
 Principal axes and moments of inertia in atomic units:
                           1         2         3
     Eigenvalues --   854.49747 947.227001081.39672
           X            0.99889  -0.03557   0.03101
           Y            0.03246   0.99490   0.09546
           Z           -0.03425  -0.09434   0.99495
 This molecule is an asymmetric top.
 Rotational symmetry number  1.
 Warning -- assumption of classical behavior for rotation
           may cause significant error
 Rotational temperatures (Kelvin)      0.10136     0.09144     0.08009
 Rotational constants (GHZ):           2.11205     1.90529     1.66890
 Zero-point vibrational energy     413128.5 (Joules/Mol)
                                   98.74009 (Kcal/Mol)
 Warning -- explicit consideration of  11 degrees of freedom as
           vibrations may cause significant error
 Vibrational temperatures:    261.87   266.79   287.67   300.42   403.90
          (Kelvin)            429.26   468.59   493.21   723.96   794.65
                              844.94  1022.87  1051.32  1190.96  1217.98
                             1228.88  1240.48  1282.50  1338.08  1402.13
                             1434.43  1440.81  1498.62  1615.06  1635.21
                             1666.52  1672.43  1727.24  1733.12  1790.21
                             1864.21  1878.52  1938.60  1985.97  2021.21
                             2035.35  2126.86  2137.01  2148.87  2154.40
                             2165.34  4342.61  4351.40  4363.18  4436.98
                             4447.35  4458.72  4459.93  4482.66  4544.39
                             4568.11

 Zero-point correction=                           0.157352 (Hartree/Particle)
 Thermal correction to Energy=                    0.165601
 Thermal correction to Enthalpy=                  0.166545
 Thermal correction to Gibbs Free Energy=         0.125235
 Sum of electronic and zero-point Energies=           -422.963602
 Sum of electronic and thermal Energies=              -422.955353
 Sum of electronic and thermal Enthalpies=            -422.954409
 Sum of electronic and thermal Free Energies=         -422.995719

                     E (Thermal)             CV                S
                      KCal/Mol        Cal/Mol-Kelvin    Cal/Mol-Kelvin
 Total                  103.916             32.427             86.944
 Electronic               0.000              0.000              0.000
 Translational            0.889              2.981             40.409
 Rotational               0.889              2.981             28.261
 Vibrational            102.139             26.466             18.274
 Vibration     1          0.630              1.864              2.308
 Vibration     2          0.632              1.860              2.273
 Vibration     3          0.638              1.840              2.134
 Vibration     4          0.642              1.827              2.054
 Vibration     5          0.680              1.709              1.529
 Vibration     6          0.691              1.677              1.426
 Vibration     7          0.710              1.624              1.281
 Vibration     8          0.722              1.590              1.199
 Vibration     9          0.858              1.243              0.650
 Vibration    10          0.908              1.135              0.539
 Vibration    11          0.944              1.059              0.472

 Optimization completed.
    -- Stationary point found.
 Normal termination of Gaussian 09 at Mon Jan 27 19:13:35 2020.
