 Gaussian 09, Revision D.01,
 Gaussian 09:  ES64L-G09RevD.01 24-Apr-2013

 -----------------------------
 # b3lyp 6-31G(2df,p) opt Freq
 -----------------------------

 -----
 titel
 -----
 Symbolic Z-matrix:
 Charge =  0 Multiplicity = 1

 SCF Done:  E(RB3LYP) =  -423.164093683     A.U. after   14 cycles
 Optimization completed.
    -- Stationary point found.
 Normal termination of Gaussian 09 at Mon Jan 27 22:01:08 2020.

 ----------------------------------------------------------------------
 #N Geom=AllCheck Guess=TCheck SCRF=Check GenChk RB3LYP/6-31G(2df,p) Fr
 eq
 ----------------------------------------------------------------------

 Structure from the checkpoint file:  "/scratch/puck/g09_222eba3a-75c4-4068-9e5a-764a1ac7b707/Gau-98600.chk"
 -----
 titel
 -----
 Charge =  0 Multiplicity = 1

                         Standard orientation:
 ---------------------------------------------------------------------
 Center     Atomic      Atomic             Coordinates (Angstroms)
 Number     Number       Type             X           Y           Z
 ---------------------------------------------------------------------
      1          6           0       -0.079500    2.144459    0.538652
      2          6           0       -0.011889    1.026849   -0.487102
      3          6           0        0.965985   -0.199254   -0.286693
      4          6           0        2.464731   -0.189911   -0.219111
      5          6           0        0.043275   -0.966240   -1.300649
      6          6           0       -0.978051   -0.204798   -0.374437
      7          8           0       -2.347609   -0.170905   -0.450648
      8          6           0       -0.059853   -0.663673    0.760743
      9          8           0       -0.128577   -1.141906    1.854374
     10          1           0       -0.980928    2.747070    0.387264
     11          1           0       -0.103730    1.759766    1.563741
     12          1           0        0.784342    2.811766    0.450422
     13          1           0        0.034037    1.410835   -1.511784
     14          1           0        2.814419    0.448844    0.598466
     15          1           0        2.853371   -1.197764   -0.041592
     16          1           0        2.904051    0.182185   -1.150289
     17          1           0        0.085854   -0.587093   -2.324338
     18          1           0        0.051765   -2.057478   -1.263374
     19          1           0       -2.701875   -0.700240    0.273267
 ---------------------------------------------------------------------

 SCF Done:  E(RB3LYP) =  -423.164093683     A.U. after    1 cycles

 The electronic state is 1-A.
 Alpha  occ. eigenvalues --  -19.15956 -19.13784 -10.26970 -10.25387 -10.21454
 Alpha  occ. eigenvalues --  -10.20810 -10.20204 -10.18828 -10.18147  -1.05578
 Alpha  occ. eigenvalues --   -1.04033  -0.91915  -0.74572  -0.73771  -0.64930
 Alpha  occ. eigenvalues --   -0.62168  -0.60789  -0.52719  -0.48313  -0.46754
 Alpha  occ. eigenvalues --   -0.45361  -0.44993  -0.43832  -0.41253  -0.40299
 Alpha  occ. eigenvalues --   -0.38923  -0.38238  -0.37037  -0.36306  -0.34050
 Alpha  occ. eigenvalues --   -0.33552  -0.31689  -0.27104  -0.23496
 Alpha virt. eigenvalues --    0.00981   0.06723   0.09639   0.12056   0.12260
 Alpha virt. eigenvalues --    0.13278   0.13859   0.14389   0.15659   0.16068
 Alpha virt. eigenvalues --    0.17477   0.18136   0.20426   0.20668   0.22022

 Mulliken charges:
               1
     1  C   -0.448870
     2  C   -0.053015
     3  C    0.175067
     4  C   -0.514398
     5  C   -0.334803
     6  C    0.278691
     7  O   -0.469312
     8  C    0.342016
     9  O   -0.349776
    10  H    0.131643
    11  H    0.133897
    12  H    0.121209
    13  H    0.078555
    14  H    0.132696
    15  H    0.133560
    16  H    0.125133
    17  H    0.108595
    18  H    0.107547
    19  H    0.301566
 Sum of Mulliken charges =   0.00000

 Dipole moment (field-independent basis, Debye):
    X=              0.7770    Y=              0.6262    Z=             -1.4786  Tot=              1.7838
 Quadrupole moment (field-independent basis, Debye-Ang):
   XX=            -51.8260   YY=            -52.2803   ZZ=            -57.9323
   XY=              1.9899   XZ=             -3.1890   YZ=              2.8427

  Exact polarizability:  78.824   0.317  75.289  -1.855  -0.527  73.938
 Approx polarizability: 110.238   0.815 108.481  -2.171  -7.699 120.266

                      1                      2                      3
                      A                      A                      A
 Frequencies --    110.3530               146.9321               169.1712
 Red. masses --      1.9321                 2.7313                 1.1235
 Frc consts  --      0.0139                 0.0347                 0.0189
 IR Inten    --     42.6779                20.5297                 1.2492

                      4                      5                      6
                      A                      A                      A
 Frequencies --    174.1247               196.8961               204.6000
 Red. masses --      1.4274                 1.3944                 3.3675
 Frc consts  --      0.0255                 0.0319                 0.0831
 IR Inten    --      3.7532                 0.8029                 1.8968

                      7                      8                      9
                      A                      A                      A
 Frequencies --    232.9459               242.5938               341.4445
 Red. masses --      4.3143                 2.3142                 2.7437
 Frc consts  --      0.1379                 0.0802                 0.1885
 IR Inten    --     18.3979                 5.1200                 0.5109

                     10                     11                     12
                      A                      A                      A
 Frequencies --    465.1587               544.5665               546.0659
 Red. masses --      2.6325                 3.0142                 2.9985
 Frc consts  --      0.3356                 0.5266                 0.5268
 IR Inten    --      0.6390                 0.2944                 2.7053

                     13                     14                     15
                      A                      A                      A
 Frequencies --    604.7200               678.2250               718.9934
 Red. masses --      5.3716                 3.1188                 4.5131
 Frc consts  --      1.1574                 0.8453                 1.3746
 IR Inten    --      5.7530                10.5788                 2.8014

                     16                     17                     18
                      A                      A                      A
 Frequencies --    749.7459               828.3066               845.0264
 Red. masses --      5.0841                 3.6476                 2.5919
 Frc consts  --      1.6838                 1.4745                 1.0905
 IR Inten    --     10.4502                 7.6344                37.0119

                     19                     20                     21
                      A                      A                      A
 Frequencies --    861.1368               963.8849               999.3763
 Red. masses --      4.4561                 2.5274                 1.0666
 Frc consts  --      1.9469                 1.3835                 0.6277
 IR Inten    --     29.7041                 1.1856                 3.8852

                     22                     23                     24
                      A                      A                      A
 Frequencies --   1018.7481              1070.5971              1091.2107
 Red. masses --      1.3828                 1.5518                 1.6774
 Frc consts  --      0.8455                 1.0480                 1.1768
 IR Inten    --      3.6437                 8.4541                 6.2570

                     25                     26                     27
                      A                      A                      A
 Frequencies --   1106.6144              1128.3595              1141.0587
 Red. masses --      1.6491                 1.5197                 2.0302
 Frc consts  --      1.1899                 1.1400                 1.5574
 IR Inten    --      3.5714                38.3007                 1.6945

                     28                     29                     30
                      A                      A                      A
 Frequencies --   1172.7530              1192.6958              1319.7784
 Red. masses --      2.6181                 1.9835                 1.8660
 Frc consts  --      2.1215                 1.6624                 1.9150
 IR Inten    --      0.2796                 5.8336               128.7351

                     31                     32                     33
                      A                      A                      A
 Frequencies --   1336.4600              1379.8093              1411.0333
 Red. masses --      3.5463                 1.3513                 1.3219
 Frc consts  --      3.7320                 1.5158                 1.5507
 IR Inten    --     18.8530                 4.4668                 7.9959

                     34                     35                     36
                      A                      A                      A
 Frequencies --   1417.6509              1434.1568              1488.7484
 Red. masses --      1.2734                 2.5861                 1.0477
 Frc consts  --      1.5078                 3.1339                 1.3682
 IR Inten    --      5.5295                15.4506                 6.2572

                     37                     38                     39
                      A                      A                      A
 Frequencies --   1489.1568              1493.3989              1498.0111
 Red. masses --      1.0443                 1.0459                 1.0516
 Frc consts  --      1.3645                 1.3744                 1.3903
 IR Inten    --      5.0262                 4.8037                 2.7913

                     40                     41                     42
                      A                      A                      A
 Frequencies --   1519.3094              1900.1695              3032.5593
 Red. masses --      1.2644                12.6750                 1.0354
 Frc consts  --      1.7196                26.9640                 5.6104
 IR Inten    --      7.5691               307.7274                19.9277

                     43                     44                     45
                      A                      A                      A
 Frequencies --   3034.5406              3052.7956              3062.1674
 Red. masses --      1.0353                 1.0845                 1.0536
 Frc consts  --      5.6168                 5.9546                 5.8210
 IR Inten    --     26.2727                14.5615                27.0652

                     46                     47                     48
                      A                      A                      A
 Frequencies --   3099.5864              3101.6471              3103.7342
 Red. masses --      1.1010                 1.1013                 1.1009
 Frc consts  --      6.2320                 6.2422                 6.2486
 IR Inten    --     18.2724                12.0352                15.9720

                     49                     50                     51
                      A                      A                      A
 Frequencies --   3105.1566              3135.5727              3797.5463
 Red. masses --      1.1011                 1.1125                 1.0662
 Frc consts  --      6.2554                 6.4446                 9.0591
 IR Inten    --     21.1291                21.4907                44.2350

 - Thermochemistry -
 -------------------
 Temperature   298.150 Kelvin.  Pressure   1.00000 Atm.
 Atom     1 has atomic number  6 and mass  12.00000

 Molecular mass:   126.06808 amu.
 Principal axes and moments of inertia in atomic units:
                           1         2         3
     Eigenvalues --   868.586751160.056441262.84192
           X            0.99959   0.00565  -0.02813
           Y            0.00122   0.97121   0.23823
           Z            0.02867  -0.23816   0.97080
 This molecule is an asymmetric top.
 Rotational symmetry number  1.
 Warning -- assumption of classical behavior for rotation
           may cause significant error
 Rotational temperatures (Kelvin)      0.09972     0.07466     0.06859
 Rotational constants (GHZ):           2.07779     1.55574     1.42911
 Zero-point vibrational energy     411271.9 (Joules/Mol)
                                   98.29634 (Kcal/Mol)
 Warning -- explicit consideration of  13 degrees of freedom as
           vibrations may cause significant error
 Vibrational temperatures:    158.77   211.40   243.40   250.53   283.29
          (Kelvin)            294.37   335.16   349.04   491.26   669.26
                              783.51   785.67   870.06   975.81  1034.47
                             1078.72  1191.75  1215.80  1238.98  1386.81
                             1437.88  1465.75  1540.35  1570.01  1592.17
                             1623.46  1641.73  1687.33  1716.02  1898.86
                             1922.87  1985.24  2030.16  2039.68  2063.43
                             2141.97  2142.56  2148.67  2155.30  2185.94
                             2733.92  4363.17  4366.02  4392.29  4405.77
                             4459.61  4462.57  4465.58  4467.62  4511.38
                             5463.82

 Zero-point correction=                           0.156645 (Hartree/Particle)
 Thermal correction to Energy=                    0.166212
 Thermal correction to Enthalpy=                  0.167156
 Thermal correction to Gibbs Free Energy=         0.122730
 Sum of electronic and zero-point Energies=           -423.007448
 Sum of electronic and thermal Energies=              -422.997881
 Sum of electronic and thermal Enthalpies=            -422.996937
 Sum of electronic and thermal Free Energies=         -423.041363

                     E (Thermal)             CV                S
                      KCal/Mol        Cal/Mol-Kelvin    Cal/Mol-Kelvin
 Total                  104.300             35.223             93.503
 Electronic               0.000              0.000              0.000
 Translational            0.889              2.981             40.409
 Rotational               0.889              2.981             28.633
 Vibrational            102.522             29.261             24.461
 Vibration     1          0.606              1.941              3.263
 Vibration     2          0.617              1.906              2.712
 Vibration     3          0.625              1.880              2.445
 Vibration     4          0.627              1.874              2.390
 Vibration     5          0.636              1.844              2.162
 Vibration     6          0.640              1.833              2.091
 Vibration     7          0.654              1.791              1.856
 Vibration     8          0.659              1.775              1.784
 Vibration     9          0.721              1.593              1.205
 Vibration    10          0.823              1.327              0.751
 Vibration    11          0.900              1.152              0.556
 Vibration    12          0.901              1.148              0.552
 Vibration    13          0.963              1.022              0.442

 Normal termination of Gaussian 09 at Mon Jan 27 22:45:32 2020.
