 Gaussian 09, Revision D.01,
 Gaussian 09:  ES64L-G09RevD.01 24-Apr-2013

 -----------------------------
 # b3lyp 6-31G(2df,p) opt Freq
 -----------------------------

 -----
 titel
 -----
 Symbolic Z-matrix:
 Charge =  0 Multiplicity = 1

 SCF Done:  E(RB3LYP) =  -423.194969595     A.U. after   14 cycles
 Optimization completed.
    -- Stationary point found.
 Normal termination of Gaussian 09 at Mon Jan 27 16:34:07 2020.

 ----------------------------------------------------------------------
 #N Geom=AllCheck Guess=TCheck SCRF=Check GenChk RB3LYP/6-31G(2df,p) Fr
 eq
 ----------------------------------------------------------------------

 Structure from the checkpoint file:  "/scratch/puck/g09_e288edab-91bf-4328-9e1f-95d4db047e6d/Gau-177577.chk"
 -----
 titel
 -----
 Charge =  0 Multiplicity = 1

                         Standard orientation:
 ---------------------------------------------------------------------
 Center     Atomic      Atomic             Coordinates (Angstroms)
 Number     Number       Type             X           Y           Z
 ---------------------------------------------------------------------
      1          8           0        1.539309   -1.389931   -0.000021
      2          6           0        0.604800   -0.338114    0.000056
      3          6           0       -0.343725   -0.423103    1.246088
      4          6           0       -1.763993   -0.212363    0.756595
      5          6           0       -2.085690    1.052672   -0.000050
      6          6           0       -1.763958   -0.212421   -0.756592
      7          6           0       -0.343694   -0.423165   -1.246051
      8          6           0        1.370872    0.973448   -0.000024
      9          8           0        2.577835    1.014421    0.000004
     10          1           0        2.413974   -0.968564    0.000079
     11          1           0       -0.217482   -1.432425    1.647161
     12          1           0       -0.051960    0.276625    2.038589
     13          1           0       -2.563137   -0.686181    1.315374
     14          1           0       -3.121050    1.375860   -0.000093
     15          1           0       -1.379086    1.877162   -0.000068
     16          1           0       -2.563117   -0.686265   -1.315330
     17          1           0       -0.217381   -1.432481   -1.647109
     18          1           0       -0.051886    0.276588   -2.038509
     19          1           0        0.766300    1.902039   -0.000098
 ---------------------------------------------------------------------

 SCF Done:  E(RB3LYP) =  -423.194969595     A.U. after    1 cycles

 The electronic state is 1-A.
 Alpha  occ. eigenvalues --  -19.16009 -19.13213 -10.28120 -10.24890 -10.19596
 Alpha  occ. eigenvalues --  -10.19571 -10.19148 -10.19148 -10.19080  -1.07194
 Alpha  occ. eigenvalues --   -1.01588  -0.88440  -0.76991  -0.72193  -0.66286
 Alpha  occ. eigenvalues --   -0.58841  -0.56483  -0.56273  -0.52826  -0.51749
 Alpha  occ. eigenvalues --   -0.46273  -0.44902  -0.43007  -0.42905  -0.41552
 Alpha  occ. eigenvalues --   -0.39124  -0.37012  -0.36084  -0.35810  -0.34375
 Alpha  occ. eigenvalues --   -0.28904  -0.28029  -0.27140  -0.26611
 Alpha virt. eigenvalues --   -0.03440   0.07555   0.09112   0.10588   0.11712
 Alpha virt. eigenvalues --    0.12579   0.14369   0.15458   0.16456   0.16950
 Alpha virt. eigenvalues --    0.17543   0.18106   0.20958   0.21626   0.22443

 Mulliken charges:
               1
     1  O   -0.476112
     2  C    0.331279
     3  C   -0.300266
     4  C   -0.023736
     5  C   -0.295822
     6  C   -0.023728
     7  C   -0.300256
     8  C    0.111787
     9  O   -0.281755
    10  H    0.290715
    11  H    0.130105
    12  H    0.104127
    13  H    0.089051
    14  H    0.115253
    15  H    0.106009
    16  H    0.089048
    17  H    0.130106
    18  H    0.104127
    19  H    0.100068
 Sum of Mulliken charges =   0.00000

 Dipole moment (field-independent basis, Debye):
    X=             -2.3408    Y=              0.6990    Z=              0.0002  Tot=              2.4429
 Quadrupole moment (field-independent basis, Debye-Ang):
   XX=            -56.7189   YY=            -55.3415   ZZ=            -52.1893
   XY=             -0.4068   XZ=              0.0002   YZ=             -0.0003

  Exact polarizability:  88.245  -1.124  70.405   0.000   0.000  66.119
 Approx polarizability: 125.234  -0.067 108.660   0.001   0.000  99.543

                      1                      2                      3
                      A                      A                      A
 Frequencies --     99.6236               100.2825               222.9332
 Red. masses --      4.6974                 3.1126                 2.3834
 Frc consts  --      0.0275                 0.0184                 0.0698
 IR Inten    --      0.0540                 0.5010                 1.2537

                      4                      5                      6
                      A                      A                      A
 Frequencies --    301.0590               318.7961               354.5444
 Red. masses --      3.9520                 1.8366                 2.7095
 Frc consts  --      0.2110                 0.1100                 0.2007
 IR Inten    --      9.2599                 3.3349                 0.9362

                      7                      8                      9
                      A                      A                      A
 Frequencies --    381.9078               392.7752               491.3450
 Red. masses --      2.4795                 4.0489                 3.3622
 Frc consts  --      0.2131                 0.3680                 0.4782
 IR Inten    --     25.5215                10.3529                 3.5359

                     10                     11                     12
                      A                      A                      A
 Frequencies --    499.4729               627.5046               731.0236
 Red. masses --      1.2287                 3.1016                 4.0042
 Frc consts  --      0.1806                 0.7196                 1.2607
 IR Inten    --     36.6477                 3.3966                 0.0201

                     13                     14                     15
                      A                      A                      A
 Frequencies --    782.6986               817.9483               827.8521
 Red. masses --      2.3809                 1.3582                 4.2864
 Frc consts  --      0.8594                 0.5354                 1.7308
 IR Inten    --      7.3707                 7.0609                34.8891

                     16                     17                     18
                      A                      A                      A
 Frequencies --    859.1668               892.4140               900.9129
 Red. masses --      2.6751                 1.5990                 1.9747
 Frc consts  --      1.1634                 0.7503                 0.9443
 IR Inten    --      4.1863                 0.2054                 9.2529

                     19                     20                     21
                      A                      A                      A
 Frequencies --    941.8609               943.5796              1028.3028
 Red. masses --      1.9605                 2.6958                 1.6204
 Frc consts  --      1.0247                 1.4142                 1.0095
 IR Inten    --      0.9389                 8.5389                 2.6943

                     22                     23                     24
                      A                      A                      A
 Frequencies --   1054.9108              1070.6908              1076.0465
 Red. masses --      1.4442                 1.5353                 1.6761
 Frc consts  --      0.9469                 1.0370                 1.1435
 IR Inten    --      0.8132                 5.4568                 4.0078

                     25                     26                     27
                      A                      A                      A
 Frequencies --   1085.6704              1105.2992              1124.8781
 Red. masses --      2.3456                 1.3833                 2.2407
 Frc consts  --      1.6289                 0.9957                 1.6705
 IR Inten    --     52.4534                 1.2917                 1.1150

                     28                     29                     30
                      A                      A                      A
 Frequencies --   1162.5513              1195.5557              1211.2107
 Red. masses --      1.9343                 1.2062                 1.6331
 Frc consts  --      1.5403                 1.0158                 1.4116
 IR Inten    --     26.4807                 0.0363                 3.3454

                     31                     32                     33
                      A                      A                      A
 Frequencies --   1279.4165              1301.0740              1323.0729
 Red. masses --      1.5376                 1.3911                 2.1252
 Frc consts  --      1.4829                 1.3874                 2.1919
 IR Inten    --     12.0851                 2.8207                 9.3350

                     34                     35                     36
                      A                      A                      A
 Frequencies --   1344.3796              1387.3039              1401.7748
 Red. masses --      1.6983                 1.3260                 1.6215
 Frc consts  --      1.8084                 1.5036                 1.8772
 IR Inten    --      0.6476                42.4286                33.9705

                     37                     38                     39
                      A                      A                      A
 Frequencies --   1439.2401              1481.8332              1484.7791
 Red. masses --      1.4106                 1.0859                 1.1538
 Frc consts  --      1.7216                 1.4048                 1.4986
 IR Inten    --     46.9371                 4.7538                 3.9626

                     40                     41                     42
                      A                      A                      A
 Frequencies --   1498.5840              1807.7875              2943.5438
 Red. masses --      1.1850                10.5215                 1.0850
 Frc consts  --      1.5680                20.2592                 5.5389
 IR Inten    --      1.1974               178.4897                64.8929

                     43                     44                     45
                      A                      A                      A
 Frequencies --   3033.0238              3035.3478              3094.1908
 Red. masses --      1.0652                 1.0672                 1.0973
 Frc consts  --      5.7737                 5.7929                 6.1899
 IR Inten    --     47.4680                 9.9712                 0.1029

                     46                     47                     48
                      A                      A                      A
 Frequencies --   3095.3148              3125.3326              3167.0426
 Red. masses --      1.0971                 1.0554                 1.0882
 Frc consts  --      6.1931                 6.0736                 6.4309
 IR Inten    --     14.6036                19.3528                11.9456

                     49                     50                     51
                      A                      A                      A
 Frequencies --   3174.9651              3207.3166              3678.7364
 Red. masses --      1.0944                 1.1130                 1.0647
 Frc consts  --      6.4996                 6.7459                 8.4892
 IR Inten    --     12.1644                17.4953                77.8386

 - Thermochemistry -
 -------------------
 Temperature   298.150 Kelvin.  Pressure   1.00000 Atm.
 Atom     1 has atomic number  8 and mass  15.99491

 Molecular mass:   126.06808 amu.
 Principal axes and moments of inertia in atomic units:
                           1         2         3
     Eigenvalues --   579.754751429.852131521.54724
           X            0.99988  -0.01533   0.00000
           Y            0.01533   0.99988  -0.00001
           Z            0.00000   0.00001   1.00000
 This molecule is an asymmetric top.
 Rotational symmetry number  1.
 Warning -- assumption of classical behavior for rotation
           may cause significant error
 Rotational temperatures (Kelvin)      0.14940     0.06058     0.05692
 Rotational constants (GHZ):           3.11294     1.26219     1.18612
 Zero-point vibrational energy     418136.0 (Joules/Mol)
                                   99.93690 (Kcal/Mol)
 Warning -- explicit consideration of  10 degrees of freedom as
           vibrations may cause significant error
 Vibrational temperatures:    143.34   144.28   320.75   433.16   458.68
          (Kelvin)            510.11   549.48   565.12   706.93   718.63
                              902.84  1051.78  1126.13  1176.84  1191.09
                             1236.15  1283.98  1296.21  1355.13  1357.60
                             1479.50  1517.78  1540.48  1548.19  1562.04
                             1590.28  1618.45  1672.65  1720.14  1742.66
                             1840.79  1871.95  1903.60  1934.26  1996.02
                             2016.84  2070.74  2132.02  2136.26  2156.13
                             2601.00  4235.10  4363.84  4367.18  4451.84
                             4453.46  4496.65  4556.66  4568.06  4614.61
                             5292.87

 Zero-point correction=                           0.159260 (Hartree/Particle)
 Thermal correction to Energy=                    0.167422
 Thermal correction to Enthalpy=                  0.168366
 Thermal correction to Gibbs Free Energy=         0.126612
 Sum of electronic and zero-point Energies=           -423.035710
 Sum of electronic and thermal Energies=              -423.027548
 Sum of electronic and thermal Enthalpies=            -423.026604
 Sum of electronic and thermal Free Energies=         -423.068358

                     E (Thermal)             CV                S
                      KCal/Mol        Cal/Mol-Kelvin    Cal/Mol-Kelvin
 Total                  105.059             32.042             87.879
 Electronic               0.000              0.000              0.000
 Translational            0.889              2.981             40.409
 Rotational               0.889              2.981             28.624
 Vibrational            103.281             26.080             18.847
 Vibration     1          0.604              1.949              3.462
 Vibration     2          0.604              1.949              3.449
 Vibration     3          0.649              1.806              1.935
 Vibration     4          0.693              1.672              1.411
 Vibration     5          0.705              1.638              1.316
 Vibration     6          0.730              1.566              1.146
 Vibration     7          0.751              1.509              1.032
 Vibration     8          0.760              1.486              0.990
 Vibration     9          0.847              1.269              0.680
 Vibration    10          0.855              1.251              0.659

 Optimization completed.
    -- Stationary point found.
 Normal termination of Gaussian 09 at Mon Jan 27 17:17:41 2020.
