 Gaussian 09, Revision D.01,
 Gaussian 09:  ES64L-G09RevD.01 24-Apr-2013

 -----------------------------
 # b3lyp 6-31G(2df,p) opt Freq
 -----------------------------

 -----
 titel
 -----
 Symbolic Z-matrix:
 Charge =  0 Multiplicity = 1

 SCF Done:  E(RB3LYP) =  -423.202705625     A.U. after   14 cycles
 Optimization completed.
    -- Stationary point found.
 Normal termination of Gaussian 09 at Mon Jan 27 14:01:13 2020.

 ----------------------------------------------------------------------
 #N Geom=AllCheck Guess=TCheck SCRF=Check GenChk RB3LYP/6-31G(2df,p) Fr
 eq
 ----------------------------------------------------------------------

 Structure from the checkpoint file:  "/scratch/puck/g09_fafccaa7-2d95-46e6-ba5b-98d15eba0776/Gau-4006.chk"
 -----
 titel
 -----
 Charge =  0 Multiplicity = 1

                         Standard orientation:
 ---------------------------------------------------------------------
 Center     Atomic      Atomic             Coordinates (Angstroms)
 Number     Number       Type             X           Y           Z
 ---------------------------------------------------------------------
      1          8           0        3.912873   -0.180218   -0.567127
      2          6           0        3.040940    0.368648    0.054729
      3          6           0        1.754982   -0.285282    0.509265
      4          6           0        0.517707    0.477057    0.002008
      5          6           0       -0.796220   -0.112157    0.503803
      6          6           0       -1.339524   -1.457516   -0.080977
      7          6           0       -2.746798   -0.817079   -0.285093
      8          6           0       -2.099913    0.546016    0.007884
      9          8           0       -2.419790    1.683225   -0.181845
     10          1           0        3.130432    1.444044    0.339414
     11          1           0        1.756703   -1.326500    0.174096
     12          1           0        1.752092   -0.280804    1.609346
     13          1           0        0.571020    1.527380    0.314153
     14          1           0        0.516352    0.481989   -1.095223
     15          1           0       -0.803882   -0.135913    1.602087
     16          1           0       -0.860230   -1.713101   -1.029518
     17          1           0       -1.296065   -2.323818    0.579647
     18          1           0       -3.228043   -0.920411   -1.260563
     19          1           0       -3.470079   -1.095040    0.488622
 ---------------------------------------------------------------------

 SCF Done:  E(RB3LYP) =  -423.202705625     A.U. after    1 cycles

 The electronic state is 1-A.
 Alpha  occ. eigenvalues --  -19.14320 -19.14307 -10.27515 -10.27411 -10.20729
 Alpha  occ. eigenvalues --  -10.20656 -10.20301 -10.20278 -10.20000  -1.05173
 Alpha  occ. eigenvalues --   -1.04984  -0.85949  -0.79848  -0.70930  -0.64312
 Alpha  occ. eigenvalues --   -0.62532  -0.58024  -0.53646  -0.48484  -0.48235
 Alpha  occ. eigenvalues --   -0.46768  -0.46184  -0.43569  -0.43287  -0.41428
 Alpha  occ. eigenvalues --   -0.39660  -0.38740  -0.37656  -0.36138  -0.35036
 Alpha  occ. eigenvalues --   -0.34358  -0.33275  -0.25933  -0.24285
 Alpha virt. eigenvalues --   -0.03327  -0.01666   0.08090   0.10083   0.10392
 Alpha virt. eigenvalues --    0.11556   0.12125   0.13329   0.14420   0.15160
 Alpha virt. eigenvalues --    0.16855   0.17556   0.18003   0.20305   0.21573

 Mulliken charges:
               1
     1  O   -0.234354
     2  C    0.160131
     3  C   -0.279220
     4  C   -0.215450
     5  C   -0.096361
     6  C   -0.244664
     7  C   -0.337766
     8  C    0.386745
     9  O   -0.295292
    10  H    0.073528
    11  H    0.125322
    12  H    0.118662
    13  H    0.124396
    14  H    0.115115
    15  H    0.101888
    16  H    0.116950
    17  H    0.112223
    18  H    0.133202
    19  H    0.134943
 Sum of Mulliken charges =   0.00000

 Dipole moment (field-independent basis, Debye):
    X=             -1.4732    Y=             -1.7539    Z=              1.6390  Tot=              2.8165
 Quadrupole moment (field-independent basis, Debye-Ang):
   XX=            -68.1698   YY=            -56.7641   ZZ=            -51.0973
   XY=              9.6132   XZ=              3.7193   YZ=              0.3850

  Exact polarizability:  94.960   1.092  76.443  -0.342   1.480  62.087
 Approx polarizability: 118.066  -6.558 119.613  -4.564   2.924  99.230

                      1                      2                      3
                      A                      A                      A
 Frequencies --     48.0758                59.4590                80.3496
 Red. masses --      4.8478                 4.2798                 2.3653
 Frc consts  --      0.0066                 0.0089                 0.0090
 IR Inten    --      5.5144                 6.3651                 0.9883

                      4                      5                      6
                      A                      A                      A
 Frequencies --     95.4391               127.5187               244.5589
 Red. masses --      2.3325                 3.1697                 4.9406
 Frc consts  --      0.0125                 0.0304                 0.1741
 IR Inten    --      1.4355                 2.4883                 0.5674

                      7                      8                      9
                      A                      A                      A
 Frequencies --    279.5507               352.5465               466.2333
 Red. masses --      2.8307                 2.5676                 2.2555
 Frc consts  --      0.1303                 0.1880                 0.2889
 IR Inten    --      1.1552                 1.0514                 1.8604

                     10                     11                     12
                      A                      A                      A
 Frequencies --    499.0310               560.4029               669.5718
 Red. masses --      3.0130                 2.6588                 3.5197
 Frc consts  --      0.4421                 0.4920                 0.9297
 IR Inten    --     16.5301                 2.0683                 1.7676

                     13                     14                     15
                      A                      A                      A
 Frequencies --    733.0864               760.2937               793.4317
 Red. masses --      1.4213                 1.3806                 2.2832
 Frc consts  --      0.4500                 0.4702                 0.8469
 IR Inten    --      1.0996                 1.6425                 1.1377

                     16                     17                     18
                      A                      A                      A
 Frequencies --    840.1064               897.5580               932.8963
 Red. masses --      1.6359                 2.3035                 3.0777
 Frc consts  --      0.6802                 1.0933                 1.5781
 IR Inten    --      2.1477                 1.2896                 9.6145

                     19                     20                     21
                      A                      A                      A
 Frequencies --    980.2072               992.7468              1012.1165
 Red. masses --      1.3462                 2.2870                 1.8951
 Frc consts  --      0.7621                 1.3280                 1.1438
 IR Inten    --      1.0079                15.8613                13.9896

                     22                     23                     24
                      A                      A                      A
 Frequencies --   1061.9629              1093.8740              1121.8992
 Red. masses --      3.2116                 2.7312                 2.5588
 Frc consts  --      2.1340                 1.9255                 1.8975
 IR Inten    --     55.0606                28.5550                11.3432

                     25                     26                     27
                      A                      A                      A
 Frequencies --   1146.4359              1193.1405              1205.5195
 Red. masses --      2.2408                 1.4107                 1.4470
 Frc consts  --      1.7352                 1.1832                 1.2390
 IR Inten    --      3.2578                 8.2068                 5.3578

                     28                     29                     30
                      A                      A                      A
 Frequencies --   1228.5953              1233.1882              1266.9993
 Red. masses --      1.3350                 1.2140                 1.4837
 Frc consts  --      1.1873                 1.0877                 1.4033
 IR Inten    --      3.7760                 1.2490                12.2585

                     31                     32                     33
                      A                      A                      A
 Frequencies --   1275.3100              1304.1224              1340.3826
 Red. masses --      1.4486                 1.2780                 1.3489
 Frc consts  --      1.3881                 1.2806                 1.4279
 IR Inten    --      0.1975                 0.3047                 0.4724

                     34                     35                     36
                      A                      A                      A
 Frequencies --   1379.8514              1428.5879              1441.3310
 Red. masses --      1.5111                 1.1940                 1.0986
 Frc consts  --      1.6952                 1.4357                 1.3447
 IR Inten    --     13.7087                 6.0650                 6.3470

                     37                     38                     39
                      A                      A                      A
 Frequencies --   1463.2108              1488.0609              1496.7960
 Red. masses --      1.0843                 1.0949                 1.0980
 Frc consts  --      1.3677                 1.4284                 1.4493
 IR Inten    --      1.4876                 3.3056                 2.6765

                     40                     41                     42
                      A                      A                      A
 Frequencies --   1837.6694              1888.9720              2851.2291
 Red. masses --     10.1202                12.7841                 1.0818
 Frc consts  --     20.1361                26.8765                 5.1815
 IR Inten    --    199.3370               241.0284               110.6681

                     43                     44                     45
                      A                      A                      A
 Frequencies --   3009.1571              3019.9245              3029.0181
 Red. masses --      1.0651                 1.0781                 1.0635
 Frc consts  --      5.6825                 5.7927                 5.7487
 IR Inten    --      6.1568                 3.9803                23.5003

                     46                     47                     48
                      A                      A                      A
 Frequencies --   3058.8418              3064.7559              3073.6340
 Red. masses --      1.0606                 1.1003                 1.0622
 Frc consts  --      5.8468                 6.0892                 5.9124
 IR Inten    --     11.2407                11.6272                18.4730

                     49                     50                     51
                      A                      A                      A
 Frequencies --   3099.7806              3114.1932              3135.1343
 Red. masses --      1.0970                 1.1033                 1.1065
 Frc consts  --      6.2102                 6.3042                 6.4078
 IR Inten    --     21.1320                 4.6387                21.4500

 - Thermochemistry -
 -------------------
 Temperature   298.150 Kelvin.  Pressure   1.00000 Atm.
 Atom     1 has atomic number  8 and mass  15.99491

 Molecular mass:   126.06808 amu.
 Principal axes and moments of inertia in atomic units:
                           1         2         3
     Eigenvalues --   456.074282598.981092892.50439
           X            0.99970   0.02347   0.00741
           Y           -0.02352   0.99969   0.00756
           Z           -0.00723  -0.00774   0.99994
 This molecule is an asymmetric top.
 Rotational symmetry number  1.
 Warning -- assumption of classical behavior for rotation
           may cause significant error
 Rotational temperatures (Kelvin)      0.18991     0.03333     0.02994
 Rotational constants (GHZ):           3.95712     0.69440     0.62394
 Zero-point vibrational energy     411376.4 (Joules/Mol)
                                   98.32131 (Kcal/Mol)
 Warning -- explicit consideration of  11 degrees of freedom as
           vibrations may cause significant error
 Vibrational temperatures:     69.17    85.55   115.60   137.32   183.47
          (Kelvin)            351.87   402.21   507.24   670.80   717.99
                              806.29   963.36  1054.75  1093.89  1141.57
                             1208.72  1291.38  1342.23  1410.30  1428.34
                             1456.21  1527.93  1573.84  1614.16  1649.46
                             1716.66  1734.47  1767.67  1774.28  1822.93
                             1834.88  1876.34  1928.51  1985.30  2055.42
                             2073.75  2105.23  2140.99  2153.55  2643.99
                             2717.81  4102.28  4329.50  4344.99  4358.08
                             4400.99  4409.49  4422.27  4459.89  4480.62
                             4510.75

 Zero-point correction=                           0.156685 (Hartree/Particle)
 Thermal correction to Energy=                    0.166254
 Thermal correction to Enthalpy=                  0.167198
 Thermal correction to Gibbs Free Energy=         0.120349
 Sum of electronic and zero-point Energies=           -423.046021
 Sum of electronic and thermal Energies=              -423.036452
 Sum of electronic and thermal Enthalpies=            -423.035508
 Sum of electronic and thermal Free Energies=         -423.082357

                     E (Thermal)             CV                S
                      KCal/Mol        Cal/Mol-Kelvin    Cal/Mol-Kelvin
 Total                  104.326             33.302             98.602
 Electronic               0.000              0.000              0.000
 Translational            0.889              2.981             40.409
 Rotational               0.889              2.981             29.618
 Vibrational            102.548             27.340             28.575
 Vibration     1          0.595              1.978              4.895
 Vibration     2          0.597              1.974              4.475
 Vibration     3          0.600              1.962              3.882
 Vibration     4          0.603              1.952              3.545
 Vibration     5          0.611              1.926              2.983
 Vibration     6          0.660              1.772              1.769
 Vibration     7          0.680              1.711              1.536
 Vibration     8          0.729              1.570              1.155
 Vibration     9          0.824              1.325              0.748
 Vibration    10          0.854              1.252              0.661
 Vibration    11          0.916              1.117              0.523

 Normal termination of Gaussian 09 at Mon Jan 27 15:37:41 2020.
