 Gaussian 09, Revision D.01,
 Gaussian 09:  ES64L-G09RevD.01 24-Apr-2013

 -----------------------------
 # b3lyp 6-31G(2df,p) opt Freq
 -----------------------------

 -----
 titel
 -----
 Symbolic Z-matrix:
 Charge =  0 Multiplicity = 1

 SCF Done:  E(RB3LYP) =  -423.130931233     A.U. after   14 cycles
 Optimization completed.
    -- Stationary point found.
 Normal termination of Gaussian 09 at Tue Jan 28 09:00:54 2020.

 ----------------------------------------------------------------------
 #N Geom=AllCheck Guess=TCheck SCRF=Check GenChk RB3LYP/6-31G(2df,p) Fr
 eq
 ----------------------------------------------------------------------

 Structure from the checkpoint file:  "/scratch/puck/g09_98bad2c4-756b-41ef-87c4-6991926d1a56/Gau-15938.chk"
 -----
 titel
 -----
 Charge =  0 Multiplicity = 1

                         Standard orientation:
 ---------------------------------------------------------------------
 Center     Atomic      Atomic             Coordinates (Angstroms)
 Number     Number       Type             X           Y           Z
 ---------------------------------------------------------------------
      1          6           0       -2.829850    0.231122   -0.471746
      2          6           0       -1.637078   -0.540475    0.052142
      3          6           0       -0.851824    0.050285    1.242617
      4          6           0        0.367141    0.041793    0.281848
      5          6           0        1.408073   -1.053177    0.558502
      6          8           0        2.136828   -1.352136   -0.606461
      7          8           0       -0.478262   -0.414018   -0.821712
      8          6           0        0.982809    1.330519    0.000750
      9          6           0        1.483855    2.405088   -0.195985
     10          1           0       -2.580624    1.289042   -0.596130
     11          1           0       -3.144658   -0.165174   -1.442151
     12          1           0       -3.673293    0.146478    0.222426
     13          1           0       -1.895128   -1.599393    0.183149
     14          1           0       -1.172776    1.048388    1.541035
     15          1           0       -0.748871   -0.584145    2.124755
     16          1           0        2.119890   -0.720678    1.320666
     17          1           0        0.876248   -1.938109    0.945954
     18          1           0        1.477318   -1.486515   -1.299764
     19          1           0        1.934608    3.348414   -0.383327
 ---------------------------------------------------------------------

 SCF Done:  E(RB3LYP) =  -423.130931233     A.U. after    1 cycles

 The electronic state is 1-A.
 Alpha  occ. eigenvalues --  -19.14362 -19.13149 -10.26247 -10.24500 -10.23052
 Alpha  occ. eigenvalues --  -10.19815 -10.18283 -10.18222 -10.17877  -1.05038
 Alpha  occ. eigenvalues --   -1.01262  -0.78711  -0.76959  -0.73006  -0.68906
 Alpha  occ. eigenvalues --   -0.63743  -0.56687  -0.53792  -0.51259  -0.49666
 Alpha  occ. eigenvalues --   -0.48129  -0.45672  -0.43502  -0.42408  -0.39967
 Alpha  occ. eigenvalues --   -0.39325  -0.37542  -0.35659  -0.32872  -0.31534
 Alpha  occ. eigenvalues --   -0.28928  -0.27045  -0.26575  -0.25361
 Alpha virt. eigenvalues --    0.02261   0.04703   0.08468   0.10837   0.11454
 Alpha virt. eigenvalues --    0.11698   0.12879   0.14164   0.15094   0.15393
 Alpha virt. eigenvalues --    0.16031   0.17311   0.17905   0.18585   0.20544

 Mulliken charges:
               1
     1  C   -0.399263
     2  C    0.165988
     3  C   -0.363799
     4  C    0.167732
     5  C   -0.088292
     6  O   -0.415984
     7  O   -0.339288
     8  C    0.339011
     9  C   -0.450198
    10  H    0.129395
    11  H    0.129848
    12  H    0.118163
    13  H    0.080239
    14  H    0.122949
    15  H    0.114191
    16  H    0.116120
    17  H    0.080146
    18  H    0.293518
    19  H    0.199525
 Sum of Mulliken charges =   0.00000

 Dipole moment (field-independent basis, Debye):
    X=             -2.2180    Y=              0.3134    Z=              1.5346  Tot=              2.7153
 Quadrupole moment (field-independent basis, Debye-Ang):
   XX=            -55.0654   YY=            -49.4551   ZZ=            -52.4992
   XY=              4.4707   XZ=              0.5324   YZ=             -0.9292

  Exact polarizability:  85.089  10.423  84.815  -0.810  -3.690  63.716
 Approx polarizability: 111.005  20.217 129.684  -3.851  -5.371  97.073

                      1                      2                      3
                      A                      A                      A
 Frequencies --     50.2414               102.4527               158.2616
 Red. masses --      3.4868                 4.1340                 4.0568
 Frc consts  --      0.0052                 0.0256                 0.0599
 IR Inten    --      0.0508                 3.6779                 0.3977

                      4                      5                      6
                      A                      A                      A
 Frequencies --    177.2312               212.7978               239.3234
 Red. masses --      3.0000                 2.6545                 1.1473
 Frc consts  --      0.0555                 0.0708                 0.0387
 IR Inten    --      1.3140                 0.2930                 0.4202

                      7                      8                      9
                      A                      A                      A
 Frequencies --    321.7283               336.8855               432.6930
 Red. masses --      3.0563                 2.5168                 3.2845
 Frc consts  --      0.1864                 0.1683                 0.3623
 IR Inten    --      2.1209                 4.5851                 2.7853

                     10                     11                     12
                      A                      A                      A
 Frequencies --    462.3624               478.8508               521.8388
 Red. masses --      2.6196                 1.2270                 4.7003
 Frc consts  --      0.3300                 0.1658                 0.7541
 IR Inten    --     13.4005                89.1027                10.4600

                     13                     14                     15
                      A                      A                      A
 Frequencies --    549.2670               623.4057               666.3072
 Red. masses --      4.7827                 1.2453                 1.2559
 Frc consts  --      0.8501                 0.2851                 0.3285
 IR Inten    --      8.5561                36.9655                34.0084

                     16                     17                     18
                      A                      A                      A
 Frequencies --    684.3907               777.0756               870.0576
 Red. masses --      3.6069                 3.0198                 1.7629
 Frc consts  --      0.9954                 1.0744                 0.7863
 IR Inten    --     22.1956                 8.7556                 9.6845

                     19                     20                     21
                      A                      A                      A
 Frequencies --    897.0814               901.9885               937.1435
 Red. masses --      3.5771                 2.0252                 2.4778
 Frc consts  --      1.6961                 0.9708                 1.2821
 IR Inten    --     12.8377                16.4603                50.1375

                     22                     23                     24
                      A                      A                      A
 Frequencies --    978.1959              1033.5674              1072.6076
 Red. masses --      1.5172                 2.4849                 3.2784
 Frc consts  --      0.8554                 1.5640                 2.2222
 IR Inten    --     25.3959                69.6690                90.0848

                     25                     26                     27
                      A                      A                      A
 Frequencies --   1090.3911              1114.6173              1167.1663
 Red. masses --      3.1176                 1.9789                 3.1580
 Frc consts  --      2.1839                 1.4485                 2.5347
 IR Inten    --     40.0825                22.3309                 2.6807

                     28                     29                     30
                      A                      A                      A
 Frequencies --   1187.7902              1215.5273              1251.5883
 Red. masses --      1.9444                 1.3414                 1.5314
 Frc consts  --      1.6163                 1.1677                 1.4134
 IR Inten    --      4.4043                 7.4400                 7.6749

                     31                     32                     33
                      A                      A                      A
 Frequencies --   1281.6792              1310.2622              1380.3721
 Red. masses --      2.0307                 1.3749                 1.2262
 Frc consts  --      1.9654                 1.3907                 1.3766
 IR Inten    --     29.6188                 5.8581                17.7354

                     34                     35                     36
                      A                      A                      A
 Frequencies --   1390.3259              1410.1616              1432.9780
 Red. masses --      1.3157                 1.3928                 1.2559
 Frc consts  --      1.4984                 1.6318                 1.5195
 IR Inten    --      3.5644                18.9913                74.7771

                     37                     38                     39
                      A                      A                      A
 Frequencies --   1482.1657              1487.2871              1495.9074
 Red. masses --      1.0519                 1.1094                 1.0590
 Frc consts  --      1.3615                 1.4458                 1.3963
 IR Inten    --      5.7603                 6.9971                 1.6944

                     40                     41                     42
                      A                      A                      A
 Frequencies --   1497.1782              2234.7368              2964.9805
 Red. masses --      1.0913                 5.9267                 1.0702
 Frc consts  --      1.4412                17.4389                 5.5431
 IR Inten    --      0.8873                 2.2400                56.3820

                     43                     44                     45
                      A                      A                      A
 Frequencies --   3015.8814              3034.8374              3082.4071
 Red. masses --      1.0848                 1.0353                 1.0660
 Frc consts  --      5.8135                 5.6181                 5.9672
 IR Inten    --     47.7746                14.7543                12.8086

                     46                     47                     48
                      A                      A                      A
 Frequencies --   3082.9150              3106.8763              3118.0385
 Red. masses --      1.0857                 1.1006                 1.1028
 Frc consts  --      6.0796                 6.2592                 6.3169
 IR Inten    --     29.9219                18.1552                21.7676

                     49                     50                     51
                      A                      A                      A
 Frequencies --   3144.2859              3500.7627              3768.2817
 Red. masses --      1.1083                 1.1623                 1.0651
 Frc consts  --      6.4561                 8.3927                 8.9114
 IR Inten    --     14.7296                63.6688                30.7094

 - Thermochemistry -
 -------------------
 Temperature   298.150 Kelvin.  Pressure   1.00000 Atm.
 Atom     1 has atomic number  6 and mass  12.00000

 Molecular mass:   126.06808 amu.
 Principal axes and moments of inertia in atomic units:
                           1         2         3
     Eigenvalues --   788.225681359.825741741.44836
           X            0.99996   0.00017   0.00867
           Y            0.00004   0.99972  -0.02378
           Z           -0.00868   0.02378   0.99968
 This molecule is an asymmetric top.
 Rotational symmetry number  1.
 Warning -- assumption of classical behavior for rotation
           may cause significant error
 Rotational temperatures (Kelvin)      0.10988     0.06369     0.04974
 Rotational constants (GHZ):           2.28962     1.32719     1.03634
 Zero-point vibrational energy     411127.5 (Joules/Mol)
                                   98.26184 (Kcal/Mol)
 Warning -- explicit consideration of  13 degrees of freedom as
           vibrations may cause significant error
 Vibrational temperatures:     72.29   147.41   227.70   255.00   306.17
          (Kelvin)            344.33   462.89   484.70   622.55   665.24
                              688.96   750.81   790.27   896.94   958.67
                              984.68  1118.04  1251.82  1290.70  1297.76
                             1348.34  1407.40  1487.07  1543.24  1568.83
                             1603.68  1679.29  1708.96  1748.87  1800.75
                             1844.05  1885.17  1986.05  2000.37  2028.91
                             2061.73  2132.50  2139.87  2152.27  2154.10
                             3215.28  4265.94  4339.18  4366.45  4434.89
                             4435.62  4470.10  4486.16  4523.92  5036.81
                             5421.71

 Zero-point correction=                           0.156590 (Hartree/Particle)
 Thermal correction to Energy=                    0.166180
 Thermal correction to Enthalpy=                  0.167124
 Thermal correction to Gibbs Free Energy=         0.121996
 Sum of electronic and zero-point Energies=           -422.974341
 Sum of electronic and thermal Energies=              -422.964751
 Sum of electronic and thermal Enthalpies=            -422.963807
 Sum of electronic and thermal Free Energies=         -423.008935

                     E (Thermal)             CV                S
                      KCal/Mol        Cal/Mol-Kelvin    Cal/Mol-Kelvin
 Total                  104.279             35.727             94.980
 Electronic               0.000              0.000              0.000
 Translational            0.889              2.981             40.409
 Rotational               0.889              2.981             29.014
 Vibrational            102.502             29.766             25.558
 Vibration     1          0.595              1.978              4.808
 Vibration     2          0.605              1.947              3.407
 Vibration     3          0.621              1.893              2.570
 Vibration     4          0.628              1.870              2.357
 Vibration     5          0.644              1.821              2.020
 Vibration     6          0.657              1.780              1.808
 Vibration     7          0.707              1.632              1.301
 Vibration     8          0.718              1.602              1.227
 Vibration     9          0.794              1.399              0.850
 Vibration    10          0.820              1.334              0.759
 Vibration    11          0.835              1.297              0.713
 Vibration    12          0.877              1.202              0.606
 Vibration    13          0.905              1.141              0.546

 Optimization completed.
    -- Stationary point found.
 Normal termination of Gaussian 09 at Tue Jan 28 09:41:06 2020.
