 Gaussian 09, Revision D.01,
 Gaussian 09:  ES64L-G09RevD.01 24-Apr-2013

 -----------------------------
 # b3lyp 6-31G(2df,p) opt Freq
 -----------------------------

 -----
 titel
 -----
 Symbolic Z-matrix:
 Charge =  0 Multiplicity = 1

 SCF Done:  E(RB3LYP) =  -423.116003161     A.U. after   13 cycles
 Optimization completed.
    -- Stationary point found.
 Normal termination of Gaussian 09 at Tue Jan 28 00:04:48 2020.

 ----------------------------------------------------------------------
 #N Geom=AllCheck Guess=TCheck SCRF=Check GenChk RB3LYP/6-31G(2df,p) Fr
 eq
 ----------------------------------------------------------------------

 Structure from the checkpoint file:  "/scratch/puck/g09_deea782e-0941-4cc5-9c0a-cfbb717b1505/Gau-58699.chk"
 -----
 titel
 -----
 Charge =  0 Multiplicity = 1

                         Standard orientation:
 ---------------------------------------------------------------------
 Center     Atomic      Atomic             Coordinates (Angstroms)
 Number     Number       Type             X           Y           Z
 ---------------------------------------------------------------------
      1          8           0        2.239222   -1.199251   -0.492431
      2          6           0        1.000611   -1.033906    0.120693
      3          6           0        0.739419    0.116113    1.033827
      4          8           0        1.527680    1.229861    0.589687
      5          6           0        0.775528    1.280535   -0.661136
      6          6           0       -0.015595    0.026033   -0.294947
      7          6           0       -1.434697   -0.246176   -0.632553
      8          6           0       -2.544494    0.605398   -0.057614
      9          6           0       -2.378423   -0.820780    0.398208
     10          1           0        2.767681   -0.432370   -0.230926
     11          1           0        0.547817   -1.979667    0.405268
     12          1           0        0.446919    0.091151    2.078611
     13          1           0        0.165221    2.188593   -0.695988
     14          1           0        1.428448    1.225962   -1.539095
     15          1           0       -1.591029   -0.596119   -1.650675
     16          1           0       -2.267104    1.389400    0.639008
     17          1           0       -3.386486    0.850039   -0.695175
     18          1           0       -1.997939   -0.987080    1.400527
     19          1           0       -3.102839   -1.558088    0.071535
 ---------------------------------------------------------------------

 SCF Done:  E(RB3LYP) =  -423.116003161     A.U. after    1 cycles

 The electronic state is 1-A.
 Alpha  occ. eigenvalues --  -19.15005 -19.13829 -10.24036 -10.23677 -10.23570
 Alpha  occ. eigenvalues --  -10.20069 -10.20031 -10.19235 -10.18992  -1.06564
 Alpha  occ. eigenvalues --   -1.01504  -0.86828  -0.81685  -0.70897  -0.62493
 Alpha  occ. eigenvalues --   -0.60750  -0.59982  -0.55153  -0.52389  -0.50980
 Alpha  occ. eigenvalues --   -0.48566  -0.47106  -0.42856  -0.41691  -0.40645
 Alpha  occ. eigenvalues --   -0.38628  -0.36963  -0.35569  -0.34241  -0.30976
 Alpha  occ. eigenvalues --   -0.30514  -0.29080  -0.25052  -0.23089
 Alpha virt. eigenvalues --    0.05855   0.09199   0.09615   0.10101   0.11520
 Alpha virt. eigenvalues --    0.12466   0.13601   0.14803   0.15659   0.17146
 Alpha virt. eigenvalues --    0.17836   0.18215   0.19613   0.21712   0.23367

 Mulliken charges:
               1
     1  O   -0.439339
     2  C    0.074603
     3  C   -0.032617
     4  O   -0.309271
     5  C   -0.147650
     6  C    0.224770
     7  C   -0.121237
     8  C   -0.265950
     9  C   -0.267777
    10  H    0.295842
    11  H    0.108468
    12  H    0.103938
    13  H    0.115252
    14  H    0.112545
    15  H    0.090686
    16  H    0.115592
    17  H    0.113955
    18  H    0.112068
    19  H    0.116121
 Sum of Mulliken charges =   0.00000

 Dipole moment (field-independent basis, Debye):
    X=             -1.8527    Y=              0.3603    Z=              0.1032  Tot=              1.8902
 Quadrupole moment (field-independent basis, Debye-Ang):
   XX=            -54.6472   YY=            -55.2535   ZZ=            -51.7298
   XY=              2.0370   XZ=              0.9382   YZ=             -3.1413

  Exact polarizability:  83.821  -0.082  72.454  -0.335  -3.181  66.834
 Approx polarizability: 110.959  -0.509 109.378   0.679  -1.767 106.182

                      1                      2                      3
                      A                      A                      A
 Frequencies --     63.6882               138.9199               171.2340
 Red. masses --      2.8093                 3.8169                 2.9079
 Frc consts  --      0.0067                 0.0434                 0.0502
 IR Inten    --      0.2801                 0.4774                 0.4171

                      4                      5                      6
                      A                      A                      A
 Frequencies --    232.6645               257.2601               338.2412
 Red. masses --      3.7039                 4.0399                 4.0077
 Frc consts  --      0.1181                 0.1575                 0.2701
 IR Inten    --      2.7806                18.2420                 2.7124

                      7                      8                      9
                      A                      A                      A
 Frequencies --    421.4279               453.2581               552.9268
 Red. masses --      2.1189                 1.2291                 2.3766
 Frc consts  --      0.2217                 0.1488                 0.4281
 IR Inten    --      6.8083                65.0147                 4.1029

                     10                     11                     12
                      A                      A                      A
 Frequencies --    567.4413               663.3466               783.0187
 Red. masses --      2.6641                 4.0716                 1.1369
 Frc consts  --      0.5054                 1.0556                 0.4107
 IR Inten    --      0.8055                 2.2164                 4.3994

                     13                     14                     15
                      A                      A                      A
 Frequencies --    794.0536               829.0275               839.8502
 Red. masses --      3.9523                 1.3007                 3.0123
 Frc consts  --      1.4682                 0.5267                 1.2518
 IR Inten    --     40.8730                 7.3602                 2.0539

                     16                     17                     18
                      A                      A                      A
 Frequencies --    866.7940               922.3089               932.4919
 Red. masses --      2.3084                 4.0391                 3.2586
 Frc consts  --      1.0219                 2.0243                 1.6695
 IR Inten    --      7.8907                 3.6915                 7.0017

                     19                     20                     21
                      A                      A                      A
 Frequencies --    955.2452               990.9978              1015.7804
 Red. masses --      2.6450                 1.9544                 2.3651
 Frc consts  --      1.4220                 1.1309                 1.4378
 IR Inten    --     17.6196                19.2755                26.4776

                     22                     23                     24
                      A                      A                      A
 Frequencies --   1037.9100              1059.6570              1074.1654
 Red. masses --      2.0090                 1.3138                 1.8699
 Frc consts  --      1.2751                 0.8692                 1.2712
 IR Inten    --     32.9609                 9.0713                33.6926

                     25                     26                     27
                      A                      A                      A
 Frequencies --   1082.9559              1110.2232              1135.4789
 Red. masses --      1.3709                 2.1198                 1.1528
 Frc consts  --      0.9473                 1.5395                 0.8757
 IR Inten    --      4.3293                 8.9349                 3.2823

                     28                     29                     30
                      A                      A                      A
 Frequencies --   1136.5865              1163.9522              1196.8516
 Red. masses --      2.5931                 1.1523                 1.3972
 Frc consts  --      1.9737                 0.9198                 1.1792
 IR Inten    --     52.5583                 6.0392                 2.0709

                     31                     32                     33
                      A                      A                      A
 Frequencies --   1209.5616              1219.2029              1273.3753
 Red. masses --      2.3335                 1.6113                 1.5825
 Frc consts  --      2.0114                 1.4112                 1.5119
 IR Inten    --      3.6616                21.9581                 5.8809

                     34                     35                     36
                      A                      A                      A
 Frequencies --   1284.3541              1314.0649              1380.8591
 Red. masses --      1.7056                 1.5052                 1.4350
 Frc consts  --      1.6576                 1.5314                 1.6122
 IR Inten    --     13.2733                 6.5219                18.6552

                     37                     38                     39
                      A                      A                      A
 Frequencies --   1417.4066              1467.3032              1476.3740
 Red. masses --      1.6267                 1.0954                 2.4189
 Frc consts  --      1.9255                 1.3895                 3.1065
 IR Inten    --     32.7638                 2.3957                29.9841

                     40                     41                     42
                      A                      A                      A
 Frequencies --   1503.9836              1510.6475              3034.9003
 Red. masses --      1.4374                 1.1408                 1.0543
 Frc consts  --      1.9157                 1.5339                 5.7214
 IR Inten    --      2.9452                 3.4078                55.9428

                     43                     44                     45
                      A                      A                      A
 Frequencies --   3089.6976              3124.8308              3132.1588
 Red. masses --      1.1118                 1.0851                 1.0505
 Frc consts  --      6.2532                 6.2428                 6.0720
 IR Inten    --     26.2239                18.2511                17.7164

                     46                     47                     48
                      A                      A                      A
 Frequencies --   3137.0501              3155.4121              3165.9006
 Red. masses --      1.0607                 1.0876                 1.0939
 Frc consts  --      6.1499                 6.3804                 6.4600
 IR Inten    --      6.2373                 6.7162                22.5093

                     49                     50                     51
                      A                      A                      A
 Frequencies --   3211.3462              3226.1638              3746.9428
 Red. masses --      1.1178                 1.1157                 1.0650
 Frc consts  --      6.7916                 6.8418                 8.8094
 IR Inten    --      0.3523                20.3010                35.4168

 - Thermochemistry -
 -------------------
 Temperature   298.150 Kelvin.  Pressure   1.00000 Atm.
 Atom     1 has atomic number  8 and mass  15.99491

 Molecular mass:   126.06808 amu.
 Principal axes and moments of inertia in atomic units:
                           1         2         3
     Eigenvalues --   566.245281445.680481667.16311
           X            0.99997   0.00603  -0.00445
           Y           -0.00631   0.99778  -0.06631
           Z            0.00404   0.06634   0.99779
 This molecule is an asymmetric top.
 Rotational symmetry number  1.
 Warning -- assumption of classical behavior for rotation
           may cause significant error
 Rotational temperatures (Kelvin)      0.15296     0.05991     0.05195
 Rotational constants (GHZ):           3.18721     1.24837     1.08252
 Zero-point vibrational energy     417911.2 (Joules/Mol)
                                   99.88317 (Kcal/Mol)
 Warning -- explicit consideration of  10 degrees of freedom as
           vibrations may cause significant error
 Vibrational temperatures:     91.63   199.87   246.37   334.75   370.14
          (Kelvin)            486.65   606.34   652.14   795.54   816.42
                              954.41  1126.59  1142.46  1192.78  1208.36
                             1247.12  1327.00  1341.65  1374.38  1425.82
                             1461.48  1493.32  1524.61  1545.48  1558.13
                             1597.36  1633.70  1635.29  1674.67  1722.00
                             1740.29  1754.16  1832.10  1847.90  1890.64
                             1986.75  2039.33  2111.12  2124.17  2163.89
                             2173.48  4366.54  4445.38  4495.93  4506.47
                             4513.51  4539.93  4555.02  4620.41  4641.72
                             5391.01

 Zero-point correction=                           0.159174 (Hartree/Particle)
 Thermal correction to Energy=                    0.167388
 Thermal correction to Enthalpy=                  0.168332
 Thermal correction to Gibbs Free Energy=         0.126130
 Sum of electronic and zero-point Energies=           -422.956829
 Sum of electronic and thermal Energies=              -422.948615
 Sum of electronic and thermal Enthalpies=            -422.947671
 Sum of electronic and thermal Free Energies=         -422.989873

                     E (Thermal)             CV                S
                      KCal/Mol        Cal/Mol-Kelvin    Cal/Mol-Kelvin
 Total                  105.038             31.797             88.822
 Electronic               0.000              0.000              0.000
 Translational            0.889              2.981             40.409
 Rotational               0.889              2.981             28.703
 Vibrational            103.260             25.835             19.711
 Vibration     1          0.597              1.972              4.340
 Vibration     2          0.615              1.914              2.819
 Vibration     3          0.626              1.878              2.422
 Vibration     4          0.653              1.791              1.858
 Vibration     5          0.667              1.751              1.680
 Vibration     6          0.719              1.599              1.220
 Vibration     7          0.784              1.424              0.887
 Vibration     8          0.812              1.354              0.786
 Vibration     9          0.908              1.133              0.538
 Vibration    10          0.923              1.102              0.509

 Normal termination of Gaussian 09 at Tue Jan 28 00:51:31 2020.
