 Gaussian 09, Revision D.01,
 Gaussian 09:  ES64L-G09RevD.01 24-Apr-2013

 -----------------------------
 # b3lyp 6-31G(2df,p) opt Freq
 -----------------------------

 -----
 titel
 -----
 Symbolic Z-matrix:
 Charge =  0 Multiplicity = 1

 SCF Done:  E(RB3LYP) =  -423.195274797     A.U. after   14 cycles
 Optimization completed.
    -- Stationary point found.
 Normal termination of Gaussian 09 at Mon Jan 27 13:21:24 2020.

 ----------------------------------------------------------------------
 #N Geom=AllCheck Guess=TCheck SCRF=Check GenChk RB3LYP/6-31G(2df,p) Fr
 eq
 ----------------------------------------------------------------------

 Structure from the checkpoint file:  "/scratch/puck/g09_7877539d-84c6-49a8-bebd-57d1dcca8932/Gau-55360.chk"
 -----
 titel
 -----
 Charge =  0 Multiplicity = 1

                         Standard orientation:
 ---------------------------------------------------------------------
 Center     Atomic      Atomic             Coordinates (Angstroms)
 Number     Number       Type             X           Y           Z
 ---------------------------------------------------------------------
      1          8           0        3.027263    0.622868    0.270112
      2          6           0        2.347491   -0.243791   -0.215526
      3          6           0        0.874296   -0.089010   -0.540332
      4          8           0        0.185781   -1.349076   -0.423021
      5          6           0       -0.625554   -0.848844    0.679220
      6          6           0       -2.100066   -0.730810    0.309216
      7          6           0       -2.162987    0.515524   -0.596032
      8          6           0       -1.134155    1.479289    0.033410
      9          6           0       -0.003683    0.572396    0.540322
     10          1           0        2.751241   -1.251642   -0.463500
     11          1           0        0.789209    0.336516   -1.553320
     12          1           0       -0.433646   -1.420676    1.592529
     13          1           0       -2.472901   -1.641584   -0.167381
     14          1           0       -2.681894   -0.569405    1.225740
     15          1           0       -1.860160    0.246787   -1.613795
     16          1           0       -3.164296    0.948555   -0.660013
     17          1           0       -0.778880    2.245675   -0.662360
     18          1           0       -1.583411    2.001411    0.886309
     19          1           0        0.558337    0.985505    1.377395
 ---------------------------------------------------------------------

 SCF Done:  E(RB3LYP) =  -423.195274797     A.U. after    1 cycles

 The electronic state is 1-A.
 Alpha  occ. eigenvalues --  -19.14630 -19.14306 -10.27234 -10.24380 -10.23809
 Alpha  occ. eigenvalues --  -10.19817 -10.18997 -10.18689 -10.18602  -1.05708
 Alpha  occ. eigenvalues --   -1.04346  -0.83032  -0.75646  -0.70390  -0.69145
 Alpha  occ. eigenvalues --   -0.59863  -0.57706  -0.53363  -0.51715  -0.49149
 Alpha  occ. eigenvalues --   -0.46955  -0.46347  -0.44106  -0.42621  -0.40486
 Alpha  occ. eigenvalues --   -0.38703  -0.37415  -0.34970  -0.34452  -0.33865
 Alpha  occ. eigenvalues --   -0.31708  -0.30536  -0.28210  -0.24244
 Alpha virt. eigenvalues --   -0.02985   0.07459   0.08538   0.10356   0.12605
 Alpha virt. eigenvalues --    0.13320   0.14171   0.14984   0.15773   0.16352
 Alpha virt. eigenvalues --    0.16516   0.18638   0.18776   0.20483   0.22545

 Mulliken charges:
               1
     1  O   -0.241791
     2  C    0.125119
     3  C    0.042608
     4  O   -0.319973
     5  C    0.132143
     6  C   -0.218379
     7  C   -0.211748
     8  C   -0.232639
     9  C   -0.072955
    10  H    0.090596
    11  H    0.101330
    12  H    0.077820
    13  H    0.111944
    14  H    0.100062
    15  H    0.113420
    16  H    0.098657
    17  H    0.105012
    18  H    0.104014
    19  H    0.094761
 Sum of Mulliken charges =   0.00000

 Dipole moment (field-independent basis, Debye):
    X=             -2.3330    Y=              0.1173    Z=             -0.0389  Tot=              2.3363
 Quadrupole moment (field-independent basis, Debye-Ang):
   XX=            -58.7296   YY=            -55.4735   ZZ=            -51.1298
   XY=             -3.6416   XZ=             -3.0922   YZ=             -1.8856

  Exact polarizability:  88.015   0.313  72.246  -0.773   0.222  64.540
 Approx polarizability: 113.240   5.536 110.220  -0.143   4.584 101.616

                      1                      2                      3
                      A                      A                      A
 Frequencies --     40.1662               108.7781               163.6111
 Red. masses --      4.1843                 3.2372                 4.2575
 Frc consts  --      0.0040                 0.0226                 0.0671
 IR Inten    --      6.8524                 5.0412                 4.9218

                      4                      5                      6
                      A                      A                      A
 Frequencies --    216.4917               273.7452               356.4313
 Red. masses --      2.5591                 2.2568                 2.1742
 Frc consts  --      0.0707                 0.0996                 0.1627
 IR Inten    --      2.3539                 0.0262                 0.5947

                      7                      8                      9
                      A                      A                      A
 Frequencies --    428.1427               561.6034               605.5802
 Red. masses --      3.0262                 3.3555                 2.4151
 Frc consts  --      0.3268                 0.6235                 0.5218
 IR Inten    --     15.0207                 4.5069                 2.3701

                     10                     11                     12
                      A                      A                      A
 Frequencies --    634.5477               775.9599               824.8708
 Red. masses --      4.1160                 2.5490                 2.3272
 Frc consts  --      0.9765                 0.9043                 0.9330
 IR Inten    --      2.4430                15.0551                 3.6416

                     13                     14                     15
                      A                      A                      A
 Frequencies --    845.0847               860.6507               881.8141
 Red. masses --      2.4890                 2.5015                 2.6838
 Frc consts  --      1.0473                 1.0917                 1.2296
 IR Inten    --      3.3528                 1.7334                 4.7234

                     16                     17                     18
                      A                      A                      A
 Frequencies --    902.5087               937.0093               965.2841
 Red. masses --      1.9257                 2.0420                 2.2721
 Frc consts  --      0.9241                 1.0563                 1.2473
 IR Inten    --      1.6044                13.2644                17.5739

                     19                     20                     21
                      A                      A                      A
 Frequencies --    994.5726              1031.2200              1041.3205
 Red. masses --      1.5882                 2.3127                 2.7448
 Frc consts  --      0.9256                 1.4490                 1.7536
 IR Inten    --      6.6302                29.8775                50.0598

                     22                     23                     24
                      A                      A                      A
 Frequencies --   1053.9354              1086.4727              1115.6090
 Red. masses --      2.1182                 1.9676                 2.0432
 Frc consts  --      1.3863                 1.3684                 1.4983
 IR Inten    --     19.1123                 5.8083                 7.6293

                     25                     26                     27
                      A                      A                      A
 Frequencies --   1142.4424              1184.4652              1197.1350
 Red. masses --      1.2544                 1.6066                 1.9231
 Frc consts  --      0.9647                 1.3280                 1.6238
 IR Inten    --      0.0398                 1.5408                 7.0642

                     28                     29                     30
                      A                      A                      A
 Frequencies --   1233.5968              1265.3367              1283.5595
 Red. masses --      1.4681                 1.4670                 1.3680
 Frc consts  --      1.3163                 1.3838                 1.3279
 IR Inten    --      8.1298                 6.2976                 6.3704

                     31                     32                     33
                      A                      A                      A
 Frequencies --   1300.4760              1323.8707              1332.9609
 Red. masses --      1.3915                 1.3733                 1.4201
 Frc consts  --      1.3866                 1.4181                 1.4866
 IR Inten    --      0.2240                 0.5587                 2.6519

                     34                     35                     36
                      A                      A                      A
 Frequencies --   1342.8864              1363.6457              1377.0507
 Red. masses --      1.4165                 1.4557                 1.5813
 Frc consts  --      1.5050                 1.5949                 1.7667
 IR Inten    --      2.0797                 3.7638                 3.0678

                     37                     38                     39
                      A                      A                      A
 Frequencies --   1398.2107              1470.8775              1488.4243
 Red. masses --      1.2461                 1.0929                 1.0827
 Frc consts  --      1.4353                 1.3931                 1.4133
 IR Inten    --      7.4763                 3.8464                 2.8611

                     40                     41                     42
                      A                      A                      A
 Frequencies --   1501.3786              1830.4057              2883.8116
 Red. masses --      1.1022                10.8591                 1.0839
 Frc consts  --      1.4638                21.4358                 5.3110
 IR Inten    --      3.1843               139.5389               103.7848

                     43                     44                     45
                      A                      A                      A
 Frequencies --   2978.1210              3031.1854              3038.8136
 Red. masses --      1.0820                 1.0669                 1.0641
 Frc consts  --      5.6541                 5.7758                 5.7894
 IR Inten    --     34.0819                12.7860                27.3861

                     46                     47                     48
                      A                      A                      A
 Frequencies --   3050.9332              3059.9140              3085.9608
 Red. masses --      1.0638                 1.0870                 1.0988
 Frc consts  --      5.8341                 5.9963                 6.1650
 IR Inten    --     16.6564                60.5731                19.9208

                     49                     50                     51
                      A                      A                      A
 Frequencies --   3097.4671              3105.8896              3120.6565
 Red. masses --      1.0957                 1.1038                 1.0883
 Frc consts  --      6.1937                 6.2736                 6.2445
 IR Inten    --     19.1876                38.0329                15.0724

 - Thermochemistry -
 -------------------
 Temperature   298.150 Kelvin.  Pressure   1.00000 Atm.
 Atom     1 has atomic number  8 and mass  15.99491

 Molecular mass:   126.06808 amu.
 Principal axes and moments of inertia in atomic units:
                           1         2         3
     Eigenvalues --   492.065111519.285221758.17559
           X            0.99985  -0.01710  -0.00263
           Y            0.01701   0.99942  -0.02953
           Z            0.00314   0.02948   0.99956
 This molecule is an asymmetric top.
 Rotational symmetry number  1.
 Warning -- assumption of classical behavior for rotation
           may cause significant error
 Rotational temperatures (Kelvin)      0.17602     0.05701     0.04926
 Rotational constants (GHZ):           3.66769     1.18789     1.02649
 Zero-point vibrational energy     419858.7 (Joules/Mol)
                                  100.34863 (Kcal/Mol)
 Warning -- explicit consideration of   9 degrees of freedom as
           vibrations may cause significant error
 Vibrational temperatures:     57.79   156.51   235.40   311.48   393.86
          (Kelvin)            512.82   616.00   808.02   871.29   912.97
                             1116.43  1186.80  1215.89  1238.28  1268.73
                             1298.51  1348.15  1388.83  1430.97  1483.69
                             1498.23  1516.38  1563.19  1605.11  1643.72
                             1704.18  1722.41  1774.87  1820.54  1846.75
                             1871.09  1904.75  1917.83  1932.11  1961.98
                             1981.27  2011.71  2116.26  2141.51  2160.15
                             2633.54  4149.16  4284.85  4361.19  4372.17
                             4389.61  4402.53  4440.00  4456.56  4468.68
                             4489.92

 Zero-point correction=                           0.159916 (Hartree/Particle)
 Thermal correction to Energy=                    0.167894
 Thermal correction to Enthalpy=                  0.168839
 Thermal correction to Gibbs Free Energy=         0.126457
 Sum of electronic and zero-point Energies=           -423.035359
 Sum of electronic and thermal Energies=              -423.027380
 Sum of electronic and thermal Enthalpies=            -423.026436
 Sum of electronic and thermal Free Energies=         -423.068818

                     E (Thermal)             CV                S
                      KCal/Mol        Cal/Mol-Kelvin    Cal/Mol-Kelvin
 Total                  105.355             29.964             89.199
 Electronic               0.000              0.000              0.000
 Translational            0.889              2.981             40.409
 Rotational               0.889              2.981             28.665
 Vibrational            103.578             24.002             20.126
 Vibration     1          0.594              1.981              5.251
 Vibration     2          0.606              1.942              3.291
 Vibration     3          0.623              1.887              2.508
 Vibration     4          0.645              1.816              1.988
 Vibration     5          0.676              1.722              1.572
 Vibration     6          0.732              1.562              1.138
 Vibration     7          0.790              1.409              0.865
 Vibration     8          0.917              1.114              0.521
 Vibration     9          0.964              1.020              0.440

 Optimization completed.
    -- Stationary point found.
 Normal termination of Gaussian 09 at Mon Jan 27 14:06:50 2020.
