 Gaussian 09, Revision D.01,
 Gaussian 09:  ES64L-G09RevD.01 24-Apr-2013

 -----------------------------
 # b3lyp 6-31G(2df,p) opt Freq
 -----------------------------

 -----
 titel
 -----
 Symbolic Z-matrix:
 Charge =  0 Multiplicity = 1

 SCF Done:  E(RB3LYP) =  -423.146077604     A.U. after   15 cycles
 Optimization completed.
    -- Stationary point found.
 Normal termination of Gaussian 09 at Tue Jan 28 12:07:26 2020.

 ----------------------------------------------------------------------
 #N Geom=AllCheck Guess=TCheck SCRF=Check GenChk RB3LYP/6-31G(2df,p) Fr
 eq
 ----------------------------------------------------------------------

 Structure from the checkpoint file:  "/scratch/puck/g09_5914c47a-a716-461b-a0d4-7646f78386a0/Gau-22514.chk"
 -----
 titel
 -----
 Charge =  0 Multiplicity = 1

                         Standard orientation:
 ---------------------------------------------------------------------
 Center     Atomic      Atomic             Coordinates (Angstroms)
 Number     Number       Type             X           Y           Z
 ---------------------------------------------------------------------
      1          6           0        2.620450   -1.874926   -0.254135
      2          6           0        1.911881   -0.715998    0.424194
      3          8           0        0.674990   -0.500817   -0.244003
      4          6           0       -0.112711    0.544276    0.299948
      5          6           0       -1.494598    0.446841   -0.370295
      6          6           0       -2.213684   -0.844869   -0.033754
      7          8           0       -3.398135   -0.919711    0.170714
      8          6           0        0.485727    1.869075    0.091372
      9          6           0        0.967725    2.955034   -0.090350
     10          1           0        2.812182   -1.644594   -1.305772
     11          1           0        3.577316   -2.072278    0.238014
     12          1           0        2.012195   -2.782674   -0.206450
     13          1           0        1.725313   -0.939161    1.487471
     14          1           0        2.523646    0.196182    0.381650
     15          1           0       -0.227395    0.388488    1.387398
     16          1           0       -2.127747    1.293400   -0.096660
     17          1           0       -1.334246    0.475295   -1.455898
     18          1           0       -1.560048   -1.742023    0.001221
     19          1           0        1.395201    3.914979   -0.246545
 ---------------------------------------------------------------------

 SCF Done:  E(RB3LYP) =  -423.146077604     A.U. after    1 cycles

 The electronic state is 1-A.
 Alpha  occ. eigenvalues --  -19.15644 -19.13974 -10.27344 -10.27121 -10.23660
 Alpha  occ. eigenvalues --  -10.20174 -10.19276 -10.18873 -10.18303  -1.05105
 Alpha  occ. eigenvalues --   -1.04556  -0.81669  -0.75487  -0.74618  -0.66942
 Alpha  occ. eigenvalues --   -0.62209  -0.57960  -0.54509  -0.51798  -0.50213
 Alpha  occ. eigenvalues --   -0.48175  -0.45994  -0.43840  -0.42442  -0.41318
 Alpha  occ. eigenvalues --   -0.39482  -0.37293  -0.36770  -0.36242  -0.33895
 Alpha  occ. eigenvalues --   -0.28975  -0.28100  -0.27646  -0.24796
 Alpha virt. eigenvalues --   -0.02576   0.03013   0.04105   0.09816   0.10701
 Alpha virt. eigenvalues --    0.11875   0.12460   0.13601   0.14374   0.15450
 Alpha virt. eigenvalues --    0.16047   0.17202   0.18876   0.19115   0.20185

 Mulliken charges:
               1
     1  C   -0.386067
     2  C   -0.044148
     3  O   -0.244936
     4  C   -0.091130
     5  C   -0.289071
     6  C    0.149851
     7  O   -0.242091
     8  C    0.336701
     9  C   -0.446796
    10  H    0.131306
    11  H    0.119810
    12  H    0.127170
    13  H    0.090412
    14  H    0.107272
    15  H    0.101810
    16  H    0.135227
    17  H    0.145820
    18  H    0.095014
    19  H    0.203847
 Sum of Mulliken charges =   0.00000

 Dipole moment (field-independent basis, Debye):
    X=              3.0302    Y=              0.8896    Z=              0.2557  Tot=              3.1684
 Quadrupole moment (field-independent basis, Debye-Ang):
   XX=            -62.6100   YY=            -49.1115   ZZ=            -52.7044
   XY=             -2.6256   XZ=              1.8982   YZ=             -0.8728

  Exact polarizability:  87.963   5.947  93.640  -1.673  -3.257  57.336
 Approx polarizability: 119.490  16.048 133.341  -5.119  -6.372  88.398

                      1                      2                      3
                      A                      A                      A
 Frequencies --     54.5905                61.4997                83.3052
 Red. masses --      3.6103                 2.6893                 2.9223
 Frc consts  --      0.0063                 0.0060                 0.0119
 IR Inten    --      6.3723                 0.4468                 0.5108

                      4                      5                      6
                      A                      A                      A
 Frequencies --     96.7003               130.3198               176.2993
 Red. masses --      2.2753                 3.6804                 2.5993
 Frc consts  --      0.0125                 0.0368                 0.0476
 IR Inten    --      3.0540                 0.5346                 1.3881

                      7                      8                      9
                      A                      A                      A
 Frequencies --    227.0419               258.3349               285.5180
 Red. masses --      2.4265                 1.5283                 3.9071
 Frc consts  --      0.0737                 0.0601                 0.1877
 IR Inten    --      3.8960                 2.5134                 1.7853

                     10                     11                     12
                      A                      A                      A
 Frequencies --    392.4829               413.1663               445.7548
 Red. masses --      3.5061                 3.8605                 5.2633
 Frc consts  --      0.3182                 0.3883                 0.6162
 IR Inten    --      3.9510                 6.4797                 2.6986

                     13                     14                     15
                      A                      A                      A
 Frequencies --    559.3389               611.9869               634.1574
 Red. masses --      2.3731                 4.9821                 1.2282
 Frc consts  --      0.4374                 1.0994                 0.2910
 IR Inten    --      7.1181                12.4133                42.2217

                     16                     17                     18
                      A                      A                      A
 Frequencies --    681.8696               785.0060               822.3078
 Red. masses --      1.2538                 1.8291                 1.0961
 Frc consts  --      0.3435                 0.6641                 0.4367
 IR Inten    --     34.1734                 1.0220                 0.8191

                     19                     20                     21
                      A                      A                      A
 Frequencies --    858.5806               930.2817               981.4969
 Red. masses --      2.1110                 2.7251                 3.0687
 Frc consts  --      0.9168                 1.3895                 1.7417
 IR Inten    --      8.2177                 1.8670                 4.7016

                     22                     23                     24
                      A                      A                      A
 Frequencies --   1042.2840              1083.1700              1096.5677
 Red. masses --      2.7493                 3.4164                 2.2580
 Frc consts  --      1.7597                 2.3616                 1.5997
 IR Inten    --     22.4064                48.7744                 0.6523

                     25                     26                     27
                      A                      A                      A
 Frequencies --   1127.7656              1156.0474              1188.8110
 Red. masses --      5.1141                 2.4831                 1.5437
 Frc consts  --      3.8323                 1.9552                 1.2854
 IR Inten    --    188.0490                66.4897                 4.2123

                     28                     29                     30
                      A                      A                      A
 Frequencies --   1234.5197              1276.1833              1297.1311
 Red. masses --      1.3873                 1.3100                 1.1013
 Frc consts  --      1.2457                 1.2570                 1.0918
 IR Inten    --      3.4633                 1.3431                 2.5615

                     31                     32                     33
                      A                      A                      A
 Frequencies --   1341.1207              1366.5875              1403.2997
 Red. masses --      1.2180                 1.3722                 1.2305
 Frc consts  --      1.2907                 1.5098                 1.4277
 IR Inten    --     30.5638                34.9365                 0.5165

                     34                     35                     36
                      A                      A                      A
 Frequencies --   1418.3673              1434.5913              1442.1540
 Red. masses --      1.2396                 1.3779                 1.0944
 Frc consts  --      1.4693                 1.6708                 1.3410
 IR Inten    --     20.7739                 9.4287                 6.5366

                     37                     38                     39
                      A                      A                      A
 Frequencies --   1484.0654              1500.2193              1527.9321
 Red. masses --      1.0401                 1.0466                 1.0863
 Frc consts  --      1.3496                 1.3878                 1.4942
 IR Inten    --      4.6191                 1.9841                 2.4305

                     40                     41                     42
                      A                      A                      A
 Frequencies --   1831.7031              2231.7519              2914.9071
 Red. masses --     10.0699                 5.8841                 1.0835
 Frc consts  --     19.9061                17.2673                 5.4243
 IR Inten    --    190.7291                 2.6050                76.5642

                     43                     44                     45
                      A                      A                      A
 Frequencies --   2945.3771              2972.5074              3023.5111
 Red. masses --      1.0804                 1.0638                 1.0968
 Frc consts  --      5.5222                 5.5380                 5.9074
 IR Inten    --     25.8569                51.5030                27.7044

                     46                     47                     48
                      A                      A                      A
 Frequencies --   3041.4083              3046.2555              3120.9585
 Red. masses --      1.0647                 1.0347                 1.1017
 Frc consts  --      5.8024                 5.6574                 6.3225
 IR Inten    --      3.8668                16.3235                22.8914

                     49                     50                     51
                      A                      A                      A
 Frequencies --   3123.6288              3123.7405              3500.4476
 Red. masses --      1.0971                 1.1026                 1.1630
 Frc consts  --      6.3071                 6.3387                 8.3963
 IR Inten    --      5.8081                23.0334                65.2245

 - Thermochemistry -
 -------------------
 Temperature   298.150 Kelvin.  Pressure   1.00000 Atm.
 Atom     1 has atomic number  6 and mass  12.00000

 Molecular mass:   126.06808 amu.
 Principal axes and moments of inertia in atomic units:
                           1         2         3
     Eigenvalues --   992.823481711.606402592.84408
           X            0.99751  -0.07038   0.00402
           Y            0.07038   0.99752  -0.00160
           Z           -0.00390   0.00188   0.99999
 This molecule is an asymmetric top.
 Rotational symmetry number  1.
 Warning -- assumption of classical behavior for rotation
           may cause significant error
 Rotational temperatures (Kelvin)      0.08724     0.05060     0.03340
 Rotational constants (GHZ):           1.81779     1.05441     0.69605
 Zero-point vibrational energy     405456.6 (Joules/Mol)
                                   96.90646 (Kcal/Mol)
 Warning -- explicit consideration of  14 degrees of freedom as
           vibrations may cause significant error
 Vibrational temperatures:     78.54    88.48   119.86   139.13   187.50
          (Kelvin)            253.66   326.66   371.69   410.80   564.69
                              594.45   641.34   804.76   880.51   912.41
                              981.06  1129.45  1183.12  1235.30  1338.47
                             1412.15  1499.61  1558.44  1577.71  1622.60
                             1663.29  1710.43  1776.20  1836.14  1866.28
                             1929.57  1966.21  2019.03  2040.71  2064.05
                             2074.94  2135.24  2158.48  2198.35  2635.41
                             3210.99  4193.90  4237.74  4276.77  4350.15
                             4375.90  4382.88  4490.36  4494.20  4494.36
                             5036.36

 Zero-point correction=                           0.154430 (Hartree/Particle)
 Thermal correction to Energy=                    0.165146
 Thermal correction to Enthalpy=                  0.166090
 Thermal correction to Gibbs Free Energy=         0.117231
 Sum of electronic and zero-point Energies=           -422.991647
 Sum of electronic and thermal Energies=              -422.980932
 Sum of electronic and thermal Enthalpies=            -422.979988
 Sum of electronic and thermal Free Energies=         -423.028847

                     E (Thermal)             CV                S
                      KCal/Mol        Cal/Mol-Kelvin    Cal/Mol-Kelvin
 Total                  103.630             36.819            102.832
 Electronic               0.000              0.000              0.000
 Translational            0.889              2.981             40.409
 Rotational               0.889              2.981             29.867
 Vibrational            101.853             30.857             32.557
 Vibration     1          0.596              1.976              4.644
 Vibration     2          0.597              1.973              4.408
 Vibration     3          0.600              1.961              3.811
 Vibration     4          0.603              1.952              3.520
 Vibration     5          0.612              1.923              2.941
 Vibration     6          0.628              1.872              2.367
 Vibration     7          0.651              1.800              1.902
 Vibration     8          0.667              1.749              1.673
 Vibration     9          0.683              1.701              1.500
 Vibration    10          0.760              1.486              0.991
 Vibration    11          0.777              1.442              0.915
 Vibration    12          0.805              1.370              0.809
 Vibration    13          0.915              1.119              0.525
 Vibration    14          0.971              1.006              0.429

 Optimization completed.
    -- Stationary point found.
 Normal termination of Gaussian 09 at Tue Jan 28 12:44:51 2020.
