 Gaussian 09, Revision D.01,
 Gaussian 09:  ES64L-G09RevD.01 24-Apr-2013

 -----------------------------
 # b3lyp 6-31G(2df,p) opt Freq
 -----------------------------

 -----
 titel
 -----
 Symbolic Z-matrix:
 Charge =  0 Multiplicity = 1

 SCF Done:  E(RB3LYP) =  -423.233965627     A.U. after   14 cycles
 Optimization completed.
    -- Stationary point found.
 Normal termination of Gaussian 09 at Mon Jan 27 22:13:44 2020.

 ----------------------------------------------------------------------
 #N Geom=AllCheck Guess=TCheck SCRF=Check GenChk RB3LYP/6-31G(2df,p) Fr
 eq
 ----------------------------------------------------------------------

 Structure from the checkpoint file:  "/scratch/puck/g09_ed5d7b75-3ba6-434d-bfb8-c7173a02ac9e/Gau-28745.chk"
 -----
 titel
 -----
 Charge =  0 Multiplicity = 1

                         Standard orientation:
 ---------------------------------------------------------------------
 Center     Atomic      Atomic             Coordinates (Angstroms)
 Number     Number       Type             X           Y           Z
 ---------------------------------------------------------------------
      1          6           0        2.943648   -0.449827   -0.063742
      2          6           0        1.498331   -0.167512   -0.405669
      3          6           0        0.400196   -0.914546    0.283314
      4          6           0        0.628126    0.540422    0.625147
      5          6           0       -0.531979    1.287480    0.054520
      6          8           0       -0.804916    2.448402    0.159166
      7          8           0       -1.305597    0.419550   -0.670505
      8          6           0       -0.944607   -0.960821   -0.433109
      9          6           0       -2.042217   -1.637396    0.376346
     10          1           0        3.330914   -1.280733   -0.663025
     11          1           0        3.572901    0.425139   -0.255388
     12          1           0        3.056113   -0.718298    0.991692
     13          1           0        1.318472    0.105105   -1.443659
     14          1           0        0.641273   -1.708102    0.981392
     15          1           0        1.068651    0.901770    1.544553
     16          1           0       -0.861551   -1.429412   -1.420613
     17          1           0       -3.005907   -1.532117   -0.127990
     18          1           0       -1.824394   -2.704347    0.491085
     19          1           0       -2.121339   -1.189421    1.371823
 ---------------------------------------------------------------------

 SCF Done:  E(RB3LYP) =  -423.233965627     A.U. after    1 cycles

 The electronic state is 1-A.
 Alpha  occ. eigenvalues --  -19.17262 -19.11493 -10.29829 -10.25536 -10.21565
 Alpha  occ. eigenvalues --  -10.21147 -10.20899 -10.19405 -10.18899  -1.09159
 Alpha  occ. eigenvalues --   -1.01386  -0.88857  -0.77847  -0.73396  -0.66822
 Alpha  occ. eigenvalues --   -0.61636  -0.60214  -0.57040  -0.50628  -0.48761
 Alpha  occ. eigenvalues --   -0.45848  -0.44859  -0.42724  -0.41853  -0.41277
 Alpha  occ. eigenvalues --   -0.40095  -0.39982  -0.38476  -0.37026  -0.34160
 Alpha  occ. eigenvalues --   -0.31657  -0.29496  -0.28775  -0.25734
 Alpha virt. eigenvalues --    0.01491   0.08783   0.09757   0.09891   0.11598
 Alpha virt. eigenvalues --    0.12518   0.13855   0.14492   0.15141   0.16100
 Alpha virt. eigenvalues --    0.16734   0.17142   0.19151   0.20387   0.21591

 Mulliken charges:
               1
     1  C   -0.425602
     2  C   -0.026649
     3  C   -0.070445
     4  C   -0.201900
     5  C    0.439122
     6  O   -0.351484
     7  O   -0.241924
     8  C    0.100496
     9  C   -0.400127
    10  H    0.126097
    11  H    0.132329
    12  H    0.119948
    13  H    0.105718
    14  H    0.098766
    15  H    0.114456
    16  H    0.096729
    17  H    0.136379
    18  H    0.119538
    19  H    0.128553
 Sum of Mulliken charges =   0.00000

 Dipole moment (field-independent basis, Debye):
    X=              2.0418    Y=             -4.1416    Z=              0.5167  Tot=              4.6464
 Quadrupole moment (field-independent basis, Debye-Ang):
   XX=            -52.0216   YY=            -60.4454   ZZ=            -51.5051
   XY=              4.7904   XZ=             -0.5501   YZ=              0.1254

  Exact polarizability:  84.622   0.677  81.928  -0.109   2.532  62.058
 Approx polarizability: 107.350  -2.699 127.184   0.815   6.711  97.598

                      1                      2                      3
                      A                      A                      A
 Frequencies --    113.4703               159.2106               177.0086
 Red. masses --      4.4811                 2.4480                 2.6405
 Frc consts  --      0.0340                 0.0366                 0.0487
 IR Inten    --      0.2869                 1.9132                 0.5877

                      4                      5                      6
                      A                      A                      A
 Frequencies --    216.7309               236.6659               242.1001
 Red. masses --      1.1787                 1.1472                 2.4843
 Frc consts  --      0.0326                 0.0379                 0.0858
 IR Inten    --      0.2227                 0.1970                 1.2693

                      7                      8                      9
                      A                      A                      A
 Frequencies --    341.0879               386.8889               460.0973
 Red. masses --      3.1730                 3.0347                 3.7842
 Frc consts  --      0.2175                 0.2676                 0.4720
 IR Inten    --      0.8224                 0.4004                 2.8734

                     10                     11                     12
                      A                      A                      A
 Frequencies --    500.0657               640.1004               698.2388
 Red. masses --      4.6477                 6.8594                 4.0964
 Frc consts  --      0.6848                 1.6559                 1.1767
 IR Inten    --      2.5719                 7.3363                 2.3348

                     13                     14                     15
                      A                      A                      A
 Frequencies --    757.3127               826.7634               847.3605
 Red. masses --      4.3558                 2.2804                 2.4407
 Frc consts  --      1.4719                 0.9184                 1.0325
 IR Inten    --      3.9053                 1.9692                 9.6055

                     16                     17                     18
                      A                      A                      A
 Frequencies --    853.7965               913.0449               936.6267
 Red. masses --      2.3545                 1.9388                 3.1117
 Frc consts  --      1.0113                 0.9523                 1.6083
 IR Inten    --      0.7640                 9.7329                33.0725

                     19                     20                     21
                      A                      A                      A
 Frequencies --    979.1025              1015.3753              1017.9249
 Red. masses --      1.8235                 1.7489                 1.8358
 Frc consts  --      1.0300                 1.0624                 1.1208
 IR Inten    --      7.4846                24.2526                19.7890

                     22                     23                     24
                      A                      A                      A
 Frequencies --   1054.6291              1084.5512              1116.4205
 Red. masses --      1.9566                 1.2748                 2.2597
 Frc consts  --      1.2822                 0.8835                 1.6594
 IR Inten    --     25.1270                23.8888                27.2956

                     25                     26                     27
                      A                      A                      A
 Frequencies --   1135.3158              1135.9580              1159.2288
 Red. masses --      1.6499                 1.9684                 2.0336
 Frc consts  --      1.2530                 1.4965                 1.6101
 IR Inten    --      6.4363                25.5686                33.2001

                     28                     29                     30
                      A                      A                      A
 Frequencies --   1181.2763              1213.8922              1298.5952
 Red. masses --      1.9057                 1.8986                 1.6207
 Frc consts  --      1.5667                 1.6484                 1.6102
 IR Inten    --     82.0753                 3.7254                 7.9399

                     31                     32                     33
                      A                      A                      A
 Frequencies --   1304.1171              1353.7828              1382.9335
 Red. masses --      1.4745                 1.7097                 1.3431
 Frc consts  --      1.4775                 1.8462                 1.5134
 IR Inten    --     12.0542                57.0585                 5.4261

                     34                     35                     36
                      A                      A                      A
 Frequencies --   1408.3903              1418.4474              1442.1531
 Red. masses --      1.2832                 1.2403                 2.5012
 Frc consts  --      1.4997                 1.4703                 3.0650
 IR Inten    --      7.8736                 4.1535                 9.5232

                     37                     38                     39
                      A                      A                      A
 Frequencies --   1486.3308              1492.2040              1493.9812
 Red. masses --      1.0560                 1.0470                 1.0491
 Frc consts  --      1.3745                 1.3735                 1.3796
 IR Inten    --      2.6006                 1.3250                 2.8983

                     40                     41                     42
                      A                      A                      A
 Frequencies --   1501.9210              1877.0240              3032.9442
 Red. masses --      1.0811                12.7073                 1.0352
 Frc consts  --      1.4369                26.3781                 5.6103
 IR Inten    --      6.0699               428.0449                28.5273

                     43                     44                     45
                      A                      A                      A
 Frequencies --   3039.6335              3040.0030              3098.6087
 Red. masses --      1.0640                 1.0555                 1.1005
 Frc consts  --      5.7920                 5.7472                 6.2256
 IR Inten    --     20.6037                19.8699                15.2535

                     46                     47                     48
                      A                      A                      A
 Frequencies --   3102.4594              3112.4122              3127.3988
 Red. masses --      1.1004                 1.1015                 1.1019
 Frc consts  --      6.2404                 6.2870                 6.3499
 IR Inten    --     15.1020                22.5254                15.3658

                     49                     50                     51
                      A                      A                      A
 Frequencies --   3131.0118              3179.2510              3210.5339
 Red. masses --      1.0899                 1.0904                 1.0926
 Frc consts  --      6.2953                 6.4936                 6.6354
 IR Inten    --     16.8176                 7.4777                 2.1681

 - Thermochemistry -
 -------------------
 Temperature   298.150 Kelvin.  Pressure   1.00000 Atm.
 Atom     1 has atomic number  6 and mass  12.00000

 Molecular mass:   126.06808 amu.
 Principal axes and moments of inertia in atomic units:
                           1         2         3
     Eigenvalues --   809.207051159.552761751.74754
           X            0.99671   0.08077  -0.00720
           Y           -0.08083   0.99670  -0.00776
           Z            0.00655   0.00832   0.99994
 This molecule is an asymmetric top.
 Rotational symmetry number  1.
 Warning -- assumption of classical behavior for rotation
           may cause significant error
 Rotational temperatures (Kelvin)      0.10704     0.07470     0.04944
 Rotational constants (GHZ):           2.23026     1.55641     1.03025
 Zero-point vibrational energy     418300.5 (Joules/Mol)
                                   99.97622 (Kcal/Mol)
 Warning -- explicit consideration of  10 degrees of freedom as
           vibrations may cause significant error
 Vibrational temperatures:    163.26   229.07   254.68   311.83   340.51
          (Kelvin)            348.33   490.75   556.65   661.98   719.48
                              920.96  1004.61  1089.60  1189.53  1219.16
                             1228.42  1313.67  1347.60  1408.71  1460.90
                             1464.57  1517.37  1560.43  1606.28  1633.46
                             1634.39  1667.87  1699.59  1746.52  1868.39
                             1876.33  1947.79  1989.73  2026.36  2040.83
                             2074.93  2138.50  2146.95  2149.50  2160.93
                             2700.62  4363.72  4373.35  4373.88  4458.20
                             4463.74  4478.06  4499.62  4504.82  4574.23
                             4619.24

 Zero-point correction=                           0.159322 (Hartree/Particle)
 Thermal correction to Energy=                    0.167810
 Thermal correction to Enthalpy=                  0.168754
 Thermal correction to Gibbs Free Energy=         0.126326
 Sum of electronic and zero-point Energies=           -423.074643
 Sum of electronic and thermal Energies=              -423.066155
 Sum of electronic and thermal Enthalpies=            -423.065211
 Sum of electronic and thermal Free Energies=         -423.107640

                     E (Thermal)             CV                S
                      KCal/Mol        Cal/Mol-Kelvin    Cal/Mol-Kelvin
 Total                  105.303             32.207             89.298
 Electronic               0.000              0.000              0.000
 Translational            0.889              2.981             40.409
 Rotational               0.889              2.981             28.887
 Vibrational            103.525             26.245             20.002
 Vibration     1          0.607              1.938              3.209
 Vibration     2          0.621              1.892              2.559
 Vibration     3          0.628              1.871              2.360
 Vibration     4          0.646              1.816              1.986
 Vibration     5          0.656              1.785              1.828
 Vibration     6          0.658              1.776              1.787
 Vibration     7          0.721              1.593              1.207
 Vibration     8          0.755              1.498              1.012
 Vibration     9          0.818              1.339              0.766
 Vibration    10          0.855              1.250              0.658

 Optimization completed.
    -- Stationary point found.
 Normal termination of Gaussian 09 at Tue Jan 28 00:23:17 2020.
