 Gaussian 09, Revision D.01,
 Gaussian 09:  ES64L-G09RevD.01 24-Apr-2013

 -----------------------------
 # b3lyp 6-31G(2df,p) opt Freq
 -----------------------------

 -----
 titel
 -----
 Symbolic Z-matrix:
 Charge =  0 Multiplicity = 1

 SCF Done:  E(RB3LYP) =  -423.158144594     A.U. after   13 cycles
 Optimization completed.
    -- Stationary point found.
 Normal termination of Gaussian 09 at Mon Jan 27 11:55:04 2020.

 ----------------------------------------------------------------------
 #N Geom=AllCheck Guess=TCheck SCRF=Check GenChk RB3LYP/6-31G(2df,p) Fr
 eq
 ----------------------------------------------------------------------

 Structure from the checkpoint file:  "/scratch/puck/g09_d8d9b051-51d6-4779-9c8f-9d5e1395ddca/Gau-71180.chk"
 -----
 titel
 -----
 Charge =  0 Multiplicity = 1

                         Standard orientation:
 ---------------------------------------------------------------------
 Center     Atomic      Atomic             Coordinates (Angstroms)
 Number     Number       Type             X           Y           Z
 ---------------------------------------------------------------------
      1          6           0        2.506513   -0.038734   -0.145006
      2          6           0        1.708234   -0.442630    1.085173
      3          6           0        1.022699    0.085862   -0.147882
      4          6           0        0.245936    1.394182   -0.168915
      5          6           0       -1.195169    0.912178   -0.310937
      6          8           0       -1.768723    0.427454    0.924280
      7          6           0       -1.769074   -0.939012    0.453002
      8          6           0       -1.063818   -0.532683   -0.859899
      9          8           0        0.312915   -0.828904   -0.966452
     10          1           0        3.099205    0.869189   -0.109102
     11          1           0        2.931728   -0.835159   -0.745356
     12          1           0        1.618125   -1.504337    1.284360
     13          1           0        1.752136    0.188285    1.966592
     14          1           0        0.387852    1.995886    0.731170
     15          1           0        0.520784    1.995241   -1.043872
     16          1           0       -1.859235    1.619078   -0.817327
     17          1           0       -1.197798   -1.609827    1.103308
     18          1           0       -2.788814   -1.324723    0.328245
     19          1           0       -1.549440   -0.817008   -1.793853
 ---------------------------------------------------------------------

 SCF Done:  E(RB3LYP) =  -423.158144594     A.U. after    1 cycles

 The electronic state is 1-A.
 Alpha  occ. eigenvalues --  -19.14699 -19.13244 -10.23942 -10.23576 -10.23452
 Alpha  occ. eigenvalues --  -10.22611 -10.18759 -10.18423 -10.18164  -1.06068
 Alpha  occ. eigenvalues --   -1.02186  -0.85139  -0.76450  -0.72031  -0.65559
 Alpha  occ. eigenvalues --   -0.60530  -0.57986  -0.54923  -0.51735  -0.48829
 Alpha  occ. eigenvalues --   -0.47579  -0.46046  -0.44340  -0.41289  -0.40281
 Alpha  occ. eigenvalues --   -0.39184  -0.37509  -0.36341  -0.34915  -0.30440
 Alpha  occ. eigenvalues --   -0.29760  -0.29275  -0.25156  -0.23706
 Alpha virt. eigenvalues --    0.07783   0.09216   0.10391   0.11064   0.11390
 Alpha virt. eigenvalues --    0.13120   0.14133   0.16015   0.16691   0.17639
 Alpha virt. eigenvalues --    0.18106   0.18668   0.20340   0.21318   0.22086

 Mulliken charges:
               1
     1  C   -0.345627
     2  C   -0.313955
     3  C    0.446595
     4  C   -0.311341
     5  C    0.092116
     6  O   -0.297058
     7  C   -0.101663
     8  C    0.052700
     9  O   -0.299376
    10  H    0.115102
    11  H    0.125810
    12  H    0.118477
    13  H    0.115478
    14  H    0.119215
    15  H    0.106153
    16  H    0.076531
    17  H    0.111041
    18  H    0.099530
    19  H    0.090270
 Sum of Mulliken charges =   0.00000

 Dipole moment (field-independent basis, Debye):
    X=              0.1750    Y=              0.3165    Z=             -0.6562  Tot=              0.7492
 Quadrupole moment (field-independent basis, Debye-Ang):
   XX=            -52.6934   YY=            -51.0639   ZZ=            -54.7270
   XY=              2.9686   XZ=              3.7957   YZ=             -2.1859

  Exact polarizability:  84.560   3.257  71.607   1.935  -3.366  66.866
 Approx polarizability: 109.313   3.035 105.223   0.116  -2.076 103.767

                      1                      2                      3
                      A                      A                      A
 Frequencies --     96.7529               123.5265               257.8913
 Red. masses --      4.3119                 2.9351                 2.1962
 Frc consts  --      0.0238                 0.0264                 0.0861
 IR Inten    --      0.8368                 5.1789                 0.4665

                      4                      5                      6
                      A                      A                      A
 Frequencies --    323.0853               363.5311               385.3284
 Red. masses --      2.5451                 2.9586                 2.0454
 Frc consts  --      0.1565                 0.2304                 0.1789
 IR Inten    --      1.5790                 2.2992                 3.2009

                      7                      8                      9
                      A                      A                      A
 Frequencies --    472.2275               552.5728               647.4272
 Red. masses --      3.7591                 3.3942                 5.5191
 Frc consts  --      0.4939                 0.6106                 1.3630
 IR Inten    --      5.6937                 0.2506                 2.9594

                     10                     11                     12
                      A                      A                      A
 Frequencies --    762.8562               772.3610               801.9160
 Red. masses --      1.2296                 2.5682                 2.1598
 Frc consts  --      0.4216                 0.9027                 0.8183
 IR Inten    --      3.9083                 6.6059                 5.1460

                     13                     14                     15
                      A                      A                      A
 Frequencies --    845.7643               866.3251               892.8354
 Red. masses --      2.1753                 2.1318                 1.8772
 Frc consts  --      0.9168                 0.9427                 0.8817
 IR Inten    --     12.1708                 7.3401                 3.5627

                     16                     17                     18
                      A                      A                      A
 Frequencies --    902.7125               921.4709               949.3262
 Red. masses --      2.1590                 2.6151                 2.1026
 Frc consts  --      1.0366                 1.3083                 1.1164
 IR Inten    --     15.2280                 3.1107                12.2696

                     19                     20                     21
                      A                      A                      A
 Frequencies --    988.1301              1016.4889              1023.5465
 Red. masses --      2.5231                 5.4676                 1.9695
 Frc consts  --      1.4515                 3.3285                 1.2157
 IR Inten    --      4.8213                68.1654                 6.5000

                     22                     23                     24
                      A                      A                      A
 Frequencies --   1043.2742              1050.1462              1073.5051
 Red. masses --      2.1984                 1.5796                 1.8630
 Frc consts  --      1.4098                 1.0263                 1.2650
 IR Inten    --      9.7168                14.3151                12.3915

                     25                     26                     27
                      A                      A                      A
 Frequencies --   1081.3119              1122.6482              1160.2478
 Red. masses --      2.0552                 2.8572                 1.3495
 Frc consts  --      1.4158                 2.1216                 1.0703
 IR Inten    --     27.4659                76.4305                 2.0773

                     28                     29                     30
                      A                      A                      A
 Frequencies --   1179.9757              1188.0706              1220.9337
 Red. masses --      1.5974                 1.2788                 1.5966
 Frc consts  --      1.3104                 1.0635                 1.4023
 IR Inten    --     41.1526                 0.9168                 2.3010

                     31                     32                     33
                      A                      A                      A
 Frequencies --   1244.3663              1268.4636              1293.6720
 Red. masses --      1.8480                 1.5572                 1.4755
 Frc consts  --      1.6859                 1.4762                 1.4550
 IR Inten    --     23.4797                 3.4824                 3.6375

                     34                     35                     36
                      A                      A                      A
 Frequencies --   1335.7200              1350.2598              1379.5199
 Red. masses --      1.5486                 1.3388                 2.0808
 Frc consts  --      1.6279                 1.4381                 2.3331
 IR Inten    --     24.7169                 9.2120                 9.4144

                     37                     38                     39
                      A                      A                      A
 Frequencies --   1381.0117              1451.9665              1468.2998
 Red. masses --      1.4791                 1.0910                 1.1094
 Frc consts  --      1.6620                 1.3552                 1.4092
 IR Inten    --      4.9485                 2.0040                 3.7500

                     40                     41                     42
                      A                      A                      A
 Frequencies --   1500.7905              1509.6458              3018.1694
 Red. masses --      1.6310                 1.1103                 1.0586
 Frc consts  --      2.1645                 1.4909                 5.6818
 IR Inten    --     14.6886                 2.1244                65.7990

                     43                     44                     45
                      A                      A                      A
 Frequencies --   3038.5196              3064.9298              3076.9324
 Red. masses --      1.0669                 1.0874                 1.1062
 Frc consts  --      5.8038                 6.0184                 6.1705
 IR Inten    --     13.2841                60.8954                20.0194

                     46                     47                     48
                      A                      A                      A
 Frequencies --   3111.2544              3116.8540              3132.3085
 Red. masses --      1.0903                 1.0980                 1.0506
 Frc consts  --      6.2180                 6.2846                 6.0731
 IR Inten    --     53.4958                 5.5324                14.6546

                     49                     50                     51
                      A                      A                      A
 Frequencies --   3135.3256              3216.6384              3230.6794
 Red. masses --      1.0584                 1.1182                 1.1157
 Frc consts  --      6.1300                 6.8167                 6.8607
 IR Inten    --      5.0175                 0.0732                10.4872

 - Thermochemistry -
 -------------------
 Temperature   298.150 Kelvin.  Pressure   1.00000 Atm.
 Atom     1 has atomic number  6 and mass  12.00000

 Molecular mass:   126.06808 amu.
 Principal axes and moments of inertia in atomic units:
                           1         2         3
     Eigenvalues --   543.110121255.229681311.74870
           X            0.99956   0.02419   0.01744
           Y           -0.01944   0.97205  -0.23395
           Z           -0.02261   0.23350   0.97209
 This molecule is an asymmetric top.
 Rotational symmetry number  1.
 Warning -- assumption of classical behavior for rotation
           may cause significant error
 Rotational temperatures (Kelvin)      0.15948     0.06900     0.06603
 Rotational constants (GHZ):           3.32297     1.43778     1.37583
 Zero-point vibrational energy     421154.4 (Joules/Mol)
                                  100.65832 (Kcal/Mol)
 Warning -- explicit consideration of   8 degrees of freedom as
           vibrations may cause significant error
 Vibrational temperatures:    139.21   177.73   371.05   464.85   523.04
          (Kelvin)            554.40   679.43   795.03   931.50  1097.58
                             1111.25  1153.78  1216.86  1246.45  1284.59
                             1298.80  1325.79  1365.87  1421.70  1462.50
                             1472.65  1501.04  1510.92  1544.53  1555.76
                             1615.24  1669.34  1697.72  1709.37  1756.65
                             1790.36  1825.03  1861.30  1921.80  1942.72
                             1984.82  1986.97  2089.05  2112.55  2159.30
                             2172.04  4342.47  4371.75  4409.74  4427.01
                             4476.40  4484.45  4506.69  4511.03  4628.02
                             4648.22

 Zero-point correction=                           0.160409 (Hartree/Particle)
 Thermal correction to Energy=                    0.167777
 Thermal correction to Enthalpy=                  0.168721
 Thermal correction to Gibbs Free Energy=         0.128547
 Sum of electronic and zero-point Energies=           -422.997735
 Sum of electronic and thermal Energies=              -422.990368
 Sum of electronic and thermal Enthalpies=            -422.989424
 Sum of electronic and thermal Free Energies=         -423.029597

                     E (Thermal)             CV                S
                      KCal/Mol        Cal/Mol-Kelvin    Cal/Mol-Kelvin
 Total                  105.281             29.520             84.552
 Electronic               0.000              0.000              0.000
 Translational            0.889              2.981             40.409
 Rotational               0.889              2.981             28.283
 Vibrational            103.504             23.558             15.861
 Vibration     1          0.603              1.951              3.519
 Vibration     2          0.610              1.929              3.044
 Vibration     3          0.667              1.749              1.676
 Vibration     4          0.708              1.629              1.294
 Vibration     5          0.737              1.547              1.107
 Vibration     6          0.754              1.502              1.018
 Vibration     7          0.829              1.312              0.731
 Vibration     8          0.908              1.134              0.539

 Optimization completed.
    -- Stationary point found.
 Normal termination of Gaussian 09 at Mon Jan 27 12:38:34 2020.
