 Gaussian 09, Revision D.01,
 Gaussian 09:  ES64L-G09RevD.01 24-Apr-2013

 -----------------------------
 # b3lyp 6-31G(2df,p) opt Freq
 -----------------------------

 -----
 titel
 -----
 Symbolic Z-matrix:
 Charge =  0 Multiplicity = 1

 SCF Done:  E(RB3LYP) =  -423.185130832     A.U. after   14 cycles
 Optimization completed.
    -- Stationary point found.
 Normal termination of Gaussian 09 at Mon Jan 27 13:15:21 2020.

 ----------------------------------------------------------------------
 #N Geom=AllCheck Guess=TCheck SCRF=Check GenChk RB3LYP/6-31G(2df,p) Fr
 eq
 ----------------------------------------------------------------------

 Structure from the checkpoint file:  "/scratch/puck/g09_35bad8c8-784a-46dd-802a-7b82f19dbafe/Gau-28284.chk"
 -----
 titel
 -----
 Charge =  0 Multiplicity = 1

                         Standard orientation:
 ---------------------------------------------------------------------
 Center     Atomic      Atomic             Coordinates (Angstroms)
 Number     Number       Type             X           Y           Z
 ---------------------------------------------------------------------
      1          8           0       -1.707097    2.211800   -0.379663
      2          6           0       -1.485111    1.255716    0.315681
      3          6           0       -0.778192    0.000078   -0.157855
      4          6           0       -1.485896   -1.255061    0.315742
      5          8           0       -1.709148   -2.210802   -0.379663
      6          6           0        0.655203   -0.000251    0.428185
      7          6           0        1.651380    1.087885   -0.065229
      8          6           0        2.758928   -0.000594   -0.086499
      9          6           0        1.650973   -1.088663   -0.065459
     10          1           0       -1.762132    1.252838    1.395923
     11          1           0       -0.733753    0.000059   -1.249915
     12          1           0       -1.761956   -1.252300    1.396240
     13          1           0        0.602638   -0.000363    1.523453
     14          1           0        1.395143    1.433103   -1.070795
     15          1           0        1.799955    1.961880    0.572519
     16          1           0        3.444701   -0.000633   -0.935907
     17          1           0        3.347818   -0.000802    0.834697
     18          1           0        1.394612   -1.433559   -1.071106
     19          1           0        1.799222   -1.962849    0.572105
 ---------------------------------------------------------------------

 SCF Done:  E(RB3LYP) =  -423.185130832     A.U. after    1 cycles

 The electronic state is 1-A.
 Alpha  occ. eigenvalues --  -19.15282 -19.15281 -10.28546 -10.28545 -10.21795
 Alpha  occ. eigenvalues --  -10.21183 -10.19480 -10.19479 -10.19338  -1.06154
 Alpha  occ. eigenvalues --   -1.05836  -0.86610  -0.79211  -0.67333  -0.65804
 Alpha  occ. eigenvalues --   -0.61108  -0.59025  -0.56297  -0.49653  -0.49475
 Alpha  occ. eigenvalues --   -0.49092  -0.45900  -0.43985  -0.42904  -0.40631
 Alpha  occ. eigenvalues --   -0.39862  -0.39450  -0.37220  -0.36258  -0.33381
 Alpha  occ. eigenvalues --   -0.32289  -0.32238  -0.27437  -0.25092
 Alpha virt. eigenvalues --   -0.05021  -0.01915   0.07403   0.08448   0.10622
 Alpha virt. eigenvalues --    0.11804   0.11931   0.14391   0.14473   0.16188
 Alpha virt. eigenvalues --    0.17559   0.17578   0.18963   0.20148   0.20622

 Mulliken charges:
               1
     1  O   -0.245869
     2  C    0.158311
     3  C   -0.189199
     4  C    0.158320
     5  O   -0.245859
     6  C    0.020589
     7  C   -0.233379
     8  C   -0.218538
     9  C   -0.233387
    10  H    0.080804
    11  H    0.114123
    12  H    0.080786
    13  H    0.081921
    14  H    0.119910
    15  H    0.107999
    16  H    0.107522
    17  H    0.108053
    18  H    0.119895
    19  H    0.107997
 Sum of Mulliken charges =   0.00000

 Dipole moment (field-independent basis, Debye):
    X=              2.0978    Y=             -0.0008    Z=              2.0258  Tot=              2.9163
 Quadrupole moment (field-independent basis, Debye-Ang):
   XX=            -54.8254   YY=            -65.1268   ZZ=            -51.3368
   XY=             -0.0055   XZ=             -3.4854   YZ=              0.0009

  Exact polarizability:  82.102   0.004  82.964  -2.093   0.000  68.779
 Approx polarizability: 105.109   0.014 127.684   1.013  -0.001 112.059

                      1                      2                      3
                      A                      A                      A
 Frequencies --     54.5253                57.6436                82.0010
 Red. masses --      7.0105                 4.6702                 3.1741
 Frc consts  --      0.0123                 0.0091                 0.0126
 IR Inten    --     10.4816                 0.0046                 0.3575

                      4                      5                      6
                      A                      A                      A
 Frequencies --    117.9470               192.7650               230.5236
 Red. masses --      2.2599                 2.3101                 3.2203
 Frc consts  --      0.0185                 0.0506                 0.1008
 IR Inten    --      1.6169                 0.9304                10.8781

                      7                      8                      9
                      A                      A                      A
 Frequencies --    275.8567               356.4579               402.5155
 Red. masses --      2.1408                 3.2303                 3.4266
 Frc consts  --      0.0960                 0.2418                 0.3271
 IR Inten    --      3.9544                 0.3546                 3.6141

                     10                     11                     12
                      A                      A                      A
 Frequencies --    461.0600               567.0547               644.0545
 Red. masses --      3.7032                 3.5084                 2.0018
 Frc consts  --      0.4638                 0.6647                 0.4892
 IR Inten    --      3.7769                27.7387                 1.2429

                     13                     14                     15
                      A                      A                      A
 Frequencies --    768.9291               779.8602               888.8428
 Red. masses --      1.6414                 1.1944                 2.3952
 Frc consts  --      0.5718                 0.4280                 1.1149
 IR Inten    --      1.1148                 2.6207                10.6326

                     16                     17                     18
                      A                      A                      A
 Frequencies --    933.6431               938.5283               943.0359
 Red. masses --      2.4195                 1.9739                 2.5352
 Frc consts  --      1.2426                 1.0244                 1.3284
 IR Inten    --     10.8344                17.8289                10.8744

                     19                     20                     21
                      A                      A                      A
 Frequencies --    955.5965              1005.3330              1013.4220
 Red. masses --      1.9040                 1.7999                 1.6350
 Frc consts  --      1.0244                 1.0718                 0.9893
 IR Inten    --     11.7145                19.0408                16.9283

                     22                     23                     24
                      A                      A                      A
 Frequencies --   1071.6796              1101.0857              1107.0763
 Red. masses --      3.4612                 2.2153                 2.6791
 Frc consts  --      2.3421                 1.5824                 1.9346
 IR Inten    --      2.9953                16.7942                25.6942

                     25                     26                     27
                      A                      A                      A
 Frequencies --   1159.2946              1208.1112              1219.2224
 Red. masses --      3.0362                 1.3088                 1.3905
 Frc consts  --      2.4042                 1.1255                 1.2178
 IR Inten    --     12.0140                 0.0133                 1.2086

                     28                     29                     30
                      A                      A                      A
 Frequencies --   1248.9846              1259.5911              1263.9712
 Red. masses --      1.3540                 1.2001                 1.2847
 Frc consts  --      1.2445                 1.1219                 1.2092
 IR Inten    --      1.0850                 0.8428                 0.3035

                     31                     32                     33
                      A                      A                      A
 Frequencies --   1269.6225              1291.9925              1295.6657
 Red. masses --      1.3557                 1.3906                 1.3910
 Frc consts  --      1.2875                 1.3677                 1.3758
 IR Inten    --      1.5195                 0.3322                 1.5356

                     34                     35                     36
                      A                      A                      A
 Frequencies --   1362.1752              1424.3180              1437.6618
 Red. masses --      1.3064                 1.2074                 1.1791
 Frc consts  --      1.4282                 1.4432                 1.4358
 IR Inten    --     19.0474                 4.0484                 2.9297

                     37                     38                     39
                      A                      A                      A
 Frequencies --   1479.1311              1486.8380              1509.1169
 Red. masses --      1.0885                 1.0823                 1.1332
 Frc consts  --      1.4031                 1.4097                 1.5206
 IR Inten    --      0.8488                 2.4281                 0.6535

                     40                     41                     42
                      A                      A                      A
 Frequencies --   1813.0356              1845.9682              2845.4171
 Red. masses --     10.0329                10.5257                 1.0800
 Frc consts  --     19.4308                21.1325                 5.1519
 IR Inten    --    264.1297               106.4251                 5.4952

                     43                     44                     45
                      A                      A                      A
 Frequencies --   2866.8281              3034.7356              3061.9448
 Red. masses --      1.0830                 1.0835                 1.0577
 Frc consts  --      5.2443                 5.8793                 5.8427
 IR Inten    --    181.4408                16.6757                44.5869

                     46                     47                     48
                      A                      A                      A
 Frequencies --   3063.2013              3066.9412              3093.7048
 Red. masses --      1.0573                 1.0637                 1.0857
 Frc consts  --      5.8450                 5.8949                 6.1222
 IR Inten    --     24.9822                13.0027                 4.8398

                     49                     50                     51
                      A                      A                      A
 Frequencies --   3107.9567              3115.8466              3128.5794
 Red. masses --      1.1059                 1.1078                 1.1074
 Frc consts  --      6.2938                 6.3368                 6.3865
 IR Inten    --      9.0630                14.6766                49.5825

 - Thermochemistry -
 -------------------
 Temperature   298.150 Kelvin.  Pressure   1.00000 Atm.
 Atom     1 has atomic number  8 and mass  15.99491

 Molecular mass:   126.06808 amu.
 Principal axes and moments of inertia in atomic units:
                           1         2         3
     Eigenvalues --   927.579451348.854842119.23968
           X            0.99992  -0.00006  -0.01275
           Y            0.00006   1.00000   0.00000
           Z            0.01275   0.00000   0.99992
 This molecule is an asymmetric top.
 Rotational symmetry number  1.
 Warning -- assumption of classical behavior for rotation
           may cause significant error
 Rotational temperatures (Kelvin)      0.09338     0.06421     0.04087
 Rotational constants (GHZ):           1.94565     1.33798     0.85160
 Zero-point vibrational energy     412169.1 (Joules/Mol)
                                   98.51078 (Kcal/Mol)
 Warning -- explicit consideration of  11 degrees of freedom as
           vibrations may cause significant error
 Vibrational temperatures:     78.45    82.94   117.98   169.70   277.35
          (Kelvin)            331.67   396.90   512.86   579.13   663.36
                              815.86   926.65  1106.32  1122.04  1278.84
                             1343.30  1350.33  1356.82  1374.89  1446.45
                             1458.09  1541.91  1584.21  1592.83  1667.96
                             1738.20  1754.19  1797.01  1812.27  1818.57
                             1826.70  1858.89  1864.17  1959.86  2049.27
                             2068.47  2128.14  2139.23  2171.28  2608.55
                             2655.93  4093.92  4124.72  4366.30  4405.45
                             4407.26  4412.64  4451.15  4471.65  4483.00
                             4501.32

 Zero-point correction=                           0.156987 (Hartree/Particle)
 Thermal correction to Energy=                    0.166431
 Thermal correction to Enthalpy=                  0.167375
 Thermal correction to Gibbs Free Energy=         0.121209
 Sum of electronic and zero-point Energies=           -423.028144
 Sum of electronic and thermal Energies=              -423.018700
 Sum of electronic and thermal Enthalpies=            -423.017756
 Sum of electronic and thermal Free Energies=         -423.063921

                     E (Thermal)             CV                S
                      KCal/Mol        Cal/Mol-Kelvin    Cal/Mol-Kelvin
 Total                  104.437             33.040             97.164
 Electronic               0.000              0.000              0.000
 Translational            0.889              2.981             40.409
 Rotational               0.889              2.981             29.363
 Vibrational            102.660             27.079             27.393
 Vibration     1          0.596              1.976              4.646
 Vibration     2          0.596              1.974              4.536
 Vibration     3          0.600              1.961              3.842
 Vibration     4          0.608              1.934              3.134
 Vibration     5          0.635              1.850              2.201
 Vibration     6          0.652              1.794              1.875
 Vibration     7          0.678              1.718              1.559
 Vibration     8          0.732              1.562              1.138
 Vibration     9          0.768              1.465              0.953
 Vibration    10          0.819              1.336              0.763
 Vibration    11          0.923              1.103              0.510

 Optimization completed.
    -- Stationary point found.
 Normal termination of Gaussian 09 at Mon Jan 27 14:28:13 2020.
