 Gaussian 09, Revision D.01,
 Gaussian 09:  ES64L-G09RevD.01 24-Apr-2013

 -----------------------------
 # b3lyp 6-31G(2df,p) opt Freq
 -----------------------------

 -----
 titel
 -----
 Symbolic Z-matrix:
 Charge =  0 Multiplicity = 1

 SCF Done:  E(RB3LYP) =  -423.194296209     A.U. after   14 cycles
 Optimization completed.
    -- Stationary point found.
 Normal termination of Gaussian 09 at Mon Jan 27 23:57:36 2020.

 ----------------------------------------------------------------------
 #N Geom=AllCheck Guess=TCheck SCRF=Check GenChk RB3LYP/6-31G(2df,p) Fr
 eq
 ----------------------------------------------------------------------

 Structure from the checkpoint file:  "/scratch/puck/g09_447e406d-102e-4a59-ad48-bb48f5acfbfc/Gau-163877.chk"
 -----
 titel
 -----
 Charge =  0 Multiplicity = 1

                         Standard orientation:
 ---------------------------------------------------------------------
 Center     Atomic      Atomic             Coordinates (Angstroms)
 Number     Number       Type             X           Y           Z
 ---------------------------------------------------------------------
      1          6           0        3.199140   -0.286748    0.098473
      2          6           0        1.777742   -0.116678   -0.387202
      3          6           0        0.625998   -0.758462    0.363899
      4          6           0       -0.631029   -1.224178   -0.365314
      5          6           0       -1.802092   -0.314592   -0.013186
      6          8           0       -2.922045   -0.704617    0.210266
      7          6           0       -1.452569    1.176473    0.049671
      8          8           0       -0.129692    1.451481   -0.381550
      9          6           0        0.813825    0.742151    0.372798
     10          1           0        3.623450   -1.236510   -0.243981
     11          1           0        3.840717    0.521723   -0.268050
     12          1           0        3.248507   -0.279001    1.192416
     13          1           0        1.653373   -0.073575   -1.466479
     14          1           0        0.870185   -1.298545    1.273442
     15          1           0       -0.489257   -1.170380   -1.452350
     16          1           0       -0.902521   -2.253300   -0.122577
     17          1           0       -2.129255    1.724229   -0.612801
     18          1           0       -1.632958    1.534281    1.075741
     19          1           0        1.145575    1.248377    1.280082
 ---------------------------------------------------------------------

 SCF Done:  E(RB3LYP) =  -423.194296209     A.U. after    1 cycles

 The electronic state is 1-A.
 Alpha  occ. eigenvalues --  -19.15557 -19.13069 -10.26994 -10.23929 -10.23826
 Alpha  occ. eigenvalues --  -10.20184 -10.20035 -10.19781 -10.18725  -1.05609
 Alpha  occ. eigenvalues --   -1.03871  -0.86893  -0.77063  -0.72747  -0.68603
 Alpha  occ. eigenvalues --   -0.60277  -0.58608  -0.53286  -0.51136  -0.48996
 Alpha  occ. eigenvalues --   -0.47358  -0.44893  -0.43443  -0.42339  -0.41372
 Alpha  occ. eigenvalues --   -0.39779  -0.39223  -0.37591  -0.36466  -0.34170
 Alpha  occ. eigenvalues --   -0.31253  -0.28808  -0.27403  -0.22749
 Alpha virt. eigenvalues --   -0.01611   0.08815   0.09630   0.10446   0.11328
 Alpha virt. eigenvalues --    0.13232   0.13832   0.15385   0.15873   0.16233
 Alpha virt. eigenvalues --    0.16994   0.17710   0.18498   0.20239   0.21840

 Mulliken charges:
               1
     1  C   -0.419868
     2  C   -0.045025
     3  C   -0.085887
     4  C   -0.337356
     5  C    0.363160
     6  O   -0.303726
     7  C   -0.175839
     8  O   -0.250054
     9  C    0.087612
    10  H    0.123068
    11  H    0.125687
    12  H    0.117144
    13  H    0.095912
    14  H    0.096270
    15  H    0.131990
    16  H    0.128569
    17  H    0.141243
    18  H    0.121135
    19  H    0.085963
 Sum of Mulliken charges =   0.00000

 Dipole moment (field-independent basis, Debye):
    X=              2.5325    Y=             -0.0612    Z=              0.2686  Tot=              2.5474
 Quadrupole moment (field-independent basis, Debye-Ang):
   XX=            -60.4711   YY=            -54.1985   ZZ=            -51.0435
   XY=             -4.3884   XZ=              1.8545   YZ=              1.6476

  Exact polarizability:  95.399  -0.726  70.958  -1.163   1.372  61.589
 Approx polarizability: 124.182   3.338 105.035  -4.621  -0.766  97.498

                      1                      2                      3
                      A                      A                      A
 Frequencies --     71.3161               168.7214               189.6878
 Red. masses --      4.1512                 2.1102                 1.4152
 Frc consts  --      0.0124                 0.0354                 0.0300
 IR Inten    --      4.5760                 3.0410                 0.4483

                      4                      5                      6
                      A                      A                      A
 Frequencies --    224.1986               277.9459               327.9856
 Red. masses --      2.0242                 2.1936                 3.4389
 Frc consts  --      0.0599                 0.0998                 0.2180
 IR Inten    --      0.5192                 1.9495                 4.5879

                      7                      8                      9
                      A                      A                      A
 Frequencies --    375.1450               430.8950               470.2988
 Red. masses --      2.8192                 4.4934                 2.8953
 Frc consts  --      0.2338                 0.4916                 0.3773
 IR Inten    --      1.4571                12.2545                 8.9506

                     10                     11                     12
                      A                      A                      A
 Frequencies --    509.2633               548.1138               681.9681
 Red. masses --      5.7166                 3.8078                 2.8083
 Frc consts  --      0.8735                 0.6740                 0.7695
 IR Inten    --      2.4724                 2.8014                 1.0552

                     13                     14                     15
                      A                      A                      A
 Frequencies --    763.4144               804.2068               825.7995
 Red. masses --      2.8098                 2.4772                 2.2691
 Frc consts  --      0.9648                 0.9439                 0.9117
 IR Inten    --      2.2622                 4.6354                 8.7719

                     16                     17                     18
                      A                      A                      A
 Frequencies --    876.8011               927.3178               983.0621
 Red. masses --      2.0718                 1.9843                 1.4573
 Frc consts  --      0.9384                 1.0053                 0.8298
 IR Inten    --      1.4614                 7.6581                 4.6259

                     19                     20                     21
                      A                      A                      A
 Frequencies --   1000.5387              1012.4023              1076.5595
 Red. masses --      1.5822                 2.8373                 1.6821
 Frc consts  --      0.9332                 1.7134                 1.1486
 IR Inten    --      4.3857                 8.9818                21.0368

                     22                     23                     24
                      A                      A                      A
 Frequencies --   1087.0274              1110.7782              1126.6105
 Red. masses --      2.2716                 1.6699                 2.1853
 Frc consts  --      1.5814                 1.2139                 1.6342
 IR Inten    --      0.9561                 1.9061                16.7172

                     25                     26                     27
                      A                      A                      A
 Frequencies --   1131.1362              1170.8385              1189.6627
 Red. masses --      2.3666                 2.2808                 2.4919
 Frc consts  --      1.7840                 1.8421                 2.0779
 IR Inten    --     43.6157                23.6880                43.2951

                     28                     29                     30
                      A                      A                      A
 Frequencies --   1216.2570              1243.5987              1269.2640
 Red. masses --      1.5795                 1.6770                 1.2725
 Frc consts  --      1.3767                 1.5280                 1.2078
 IR Inten    --      2.8820                22.8755                22.9507

                     31                     32                     33
                      A                      A                      A
 Frequencies --   1286.7453              1319.1217              1340.6737
 Red. masses --      1.4567                 1.2671                 1.3876
 Frc consts  --      1.4210                 1.2991                 1.4695
 IR Inten    --      2.5888                 5.4585                14.7164

                     34                     35                     36
                      A                      A                      A
 Frequencies --   1365.7131              1418.7739              1445.3764
 Red. masses --      1.3789                 1.2439                 1.5088
 Frc consts  --      1.5153                 1.4752                 1.8572
 IR Inten    --      2.4169                 1.7310                 5.2678

                     37                     38                     39
                      A                      A                      A
 Frequencies --   1455.6488              1467.2984              1493.5862
 Red. masses --      1.1104                 1.4574                 1.0463
 Frc consts  --      1.3862                 1.8487                 1.3753
 IR Inten    --      1.1336                12.9307                 2.9736

                     40                     41                     42
                      A                      A                      A
 Frequencies --   1502.5037              1827.3333              2988.4247
 Red. masses --      1.1018                12.1662                 1.0694
 Frc consts  --      1.4655                23.9355                 5.6268
 IR Inten    --      7.3292               193.3503                34.4681

                     43                     44                     45
                      A                      A                      A
 Frequencies --   3030.2525              3031.6962              3092.8049
 Red. masses --      1.0360                 1.0658                 1.0899
 Frc consts  --      5.6051                 5.7719                 6.1425
 IR Inten    --     33.9405                 5.8967                32.2793

                     46                     47                     48
                      A                      A                      A
 Frequencies --   3094.7128              3096.3157              3097.7952
 Red. masses --      1.0923                 1.1015                 1.0979
 Frc consts  --      6.1637                 6.2221                 6.2075
 IR Inten    --      4.3008                23.1845                25.0033

                     49                     50                     51
                      A                      A                      A
 Frequencies --   3115.2454              3142.5249              3157.3006
 Red. masses --      1.0950                 1.0892                 1.0885
 Frc consts  --      6.2610                 6.3373                 6.3931
 IR Inten    --      7.0723                 8.1491                20.4069

 - Thermochemistry -
 -------------------
 Temperature   298.150 Kelvin.  Pressure   1.00000 Atm.
 Atom     1 has atomic number  6 and mass  12.00000

 Molecular mass:   126.06808 amu.
 Principal axes and moments of inertia in atomic units:
                           1         2         3
     Eigenvalues --   462.405821611.084481927.34274
           X            0.99976  -0.02136   0.00566
           Y            0.02120   0.99941   0.02688
           Z           -0.00623  -0.02675   0.99962
 This molecule is an asymmetric top.
 Rotational symmetry number  1.
 Warning -- assumption of classical behavior for rotation
           may cause significant error
 Rotational temperatures (Kelvin)      0.18731     0.05376     0.04494
 Rotational constants (GHZ):           3.90294     1.12020     0.93639
 Zero-point vibrational energy     417859.5 (Joules/Mol)
                                   99.87083 (Kcal/Mol)
 Warning -- explicit consideration of  11 degrees of freedom as
           vibrations may cause significant error
 Vibrational temperatures:    102.61   242.75   272.92   322.57   399.90
          (Kelvin)            471.90   539.75   619.96   676.65   732.72
                              788.61   981.20  1098.38  1157.07  1188.14
                             1261.52  1334.20  1414.41  1439.55  1456.62
                             1548.93  1563.99  1598.16  1620.94  1627.45
                             1684.57  1711.66  1749.92  1789.26  1826.19
                             1851.34  1897.92  1928.93  1964.95  2041.30
                             2079.57  2094.35  2111.11  2148.93  2161.76
                             2629.12  4299.67  4359.85  4361.93  4449.85
                             4452.60  4454.90  4457.03  4482.14  4521.39
                             4542.65

 Zero-point correction=                           0.159154 (Hartree/Particle)
 Thermal correction to Energy=                    0.167449
 Thermal correction to Enthalpy=                  0.168393
 Thermal correction to Gibbs Free Energy=         0.126231
 Sum of electronic and zero-point Energies=           -423.035142
 Sum of electronic and thermal Energies=              -423.026847
 Sum of electronic and thermal Enthalpies=            -423.025903
 Sum of electronic and thermal Free Energies=         -423.068065

                     E (Thermal)             CV                S
                      KCal/Mol        Cal/Mol-Kelvin    Cal/Mol-Kelvin
 Total                  105.076             31.807             88.737
 Electronic               0.000              0.000              0.000
 Translational            0.889              2.981             40.409
 Rotational               0.889              2.981             28.753
 Vibrational            103.298             25.845             19.575
 Vibration     1          0.598              1.968              4.117
 Vibration     2          0.625              1.881              2.450
 Vibration     3          0.633              1.854              2.231
 Vibration     4          0.649              1.804              1.925
 Vibration     5          0.679              1.714              1.546
 Vibration     6          0.711              1.620              1.270
 Vibration     7          0.746              1.523              1.059
 Vibration     8          0.792              1.403              0.856
 Vibration     9          0.827              1.316              0.737
 Vibration    10          0.864              1.229              0.635
 Vibration    11          0.903              1.144              0.548

 Normal termination of Gaussian 09 at Tue Jan 28 00:31:10 2020.
