 Gaussian 09, Revision D.01,
 Gaussian 09:  ES64L-G09RevD.01 24-Apr-2013

 -----------------------------
 # b3lyp 6-31G(2df,p) opt Freq
 -----------------------------

 -----
 titel
 -----
 Symbolic Z-matrix:
 Charge =  0 Multiplicity = 1

 SCF Done:  E(RB3LYP) =  -423.177120981     A.U. after   14 cycles
 Optimization completed.
    -- Stationary point found.
 Normal termination of Gaussian 09 at Tue Jan 28 03:15:16 2020.

 ----------------------------------------------------------------------
 #N Geom=AllCheck Guess=TCheck SCRF=Check GenChk RB3LYP/6-31G(2df,p) Fr
 eq
 ----------------------------------------------------------------------

 Structure from the checkpoint file:  "/scratch/puck/g09_a117d73c-af55-40ed-bed2-f81acbaed76c/Gau-45622.chk"
 -----
 titel
 -----
 Charge =  0 Multiplicity = 1

                         Standard orientation:
 ---------------------------------------------------------------------
 Center     Atomic      Atomic             Coordinates (Angstroms)
 Number     Number       Type             X           Y           Z
 ---------------------------------------------------------------------
      1          6           0        0.222925    2.161654    0.281965
      2          6           0       -0.227102    0.945255   -0.522457
      3          6           0       -1.754761    0.614746   -0.397343
      4          6           0       -1.617408   -0.804885    0.184801
      5          6           0       -0.553379   -1.469334   -0.713058
      6          6           0        0.287732   -0.404047    0.049698
      7          8           0       -0.580230   -0.620919    1.205696
      8          6           0        1.746870   -0.629013    0.303100
      9          8           0        2.621912   -0.177467   -0.392641
     10          1           0        1.300992    2.320941    0.186671
     11          1           0       -0.283823    3.066595   -0.068028
     12          1           0       -0.018523    2.027133    1.341084
     13          1           0        0.081561    1.051888   -1.565889
     14          1           0       -2.262206    1.283175    0.302343
     15          1           0       -2.289177    0.634991   -1.350792
     16          1           0       -2.504456   -1.325268    0.545151
     17          1           0       -0.316524   -2.484497   -0.392700
     18          1           0       -0.631982   -1.391503   -1.799666
     19          1           0        1.961423   -1.282614    1.177157
 ---------------------------------------------------------------------

 SCF Done:  E(RB3LYP) =  -423.177120981     A.U. after    1 cycles

 The electronic state is 1-A.
 Alpha  occ. eigenvalues --  -19.14814 -19.14488 -10.27585 -10.24969 -10.24864
 Alpha  occ. eigenvalues --  -10.20334 -10.19769 -10.18950 -10.17343  -1.06351
 Alpha  occ. eigenvalues --   -1.05027  -0.81293  -0.74981  -0.73818  -0.67185
 Alpha  occ. eigenvalues --   -0.62245  -0.56984  -0.53894  -0.51686  -0.48223
 Alpha  occ. eigenvalues --   -0.46417  -0.46007  -0.43421  -0.41127  -0.39713
 Alpha  occ. eigenvalues --   -0.39008  -0.38079  -0.37077  -0.34413  -0.33486
 Alpha  occ. eigenvalues --   -0.32772  -0.32023  -0.26146  -0.25520
 Alpha virt. eigenvalues --   -0.03877   0.08574   0.10268   0.11129   0.12371
 Alpha virt. eigenvalues --    0.12688   0.13525   0.15435   0.16383   0.16782
 Alpha virt. eigenvalues --    0.16920   0.17881   0.18125   0.19645   0.20776

 Mulliken charges:
               1
     1  C   -0.425934
     2  C   -0.003518
     3  C   -0.239631
     4  C    0.074047
     5  C   -0.271605
     6  C    0.322799
     7  O   -0.333117
     8  C    0.056263
     9  O   -0.257046
    10  H    0.132153
    11  H    0.113471
    12  H    0.127376
    13  H    0.087163
    14  H    0.110928
    15  H    0.102245
    16  H    0.085023
    17  H    0.116759
    18  H    0.108703
    19  H    0.093921
 Sum of Mulliken charges =   0.00000

 Dipole moment (field-independent basis, Debye):
    X=             -2.3893    Y=             -0.5645    Z=             -0.7040  Tot=              2.5540
 Quadrupole moment (field-independent basis, Debye-Ang):
   XX=            -57.7672   YY=            -50.6990   ZZ=            -54.7257
   XY=             -0.3693   XZ=              3.6087   YZ=              0.6572

  Exact polarizability:  83.387   1.627  76.096   0.514  -1.886  65.277
 Approx polarizability: 120.335   5.736 103.856  -4.600  -5.933 108.011

                      1                      2                      3
                      A                      A                      A
 Frequencies --     71.1480               152.4308               176.8443
 Red. masses --      3.8936                 2.8357                 3.6674
 Frc consts  --      0.0116                 0.0388                 0.0676
 IR Inten    --      7.4520                 3.9010                 4.3170

                      4                      5                      6
                      A                      A                      A
 Frequencies --    226.3774               258.6054               326.3020
 Red. masses --      1.9584                 1.2323                 2.5713
 Frc consts  --      0.0591                 0.0486                 0.1613
 IR Inten    --      1.5658                 0.9351                 0.5997

                      7                      8                      9
                      A                      A                      A
 Frequencies --    411.6253               450.2701               462.9538
 Red. masses --      1.8406                 3.2376                 4.2143
 Frc consts  --      0.1837                 0.3867                 0.5322
 IR Inten    --      0.5016                 2.4607                 1.5723

                     10                     11                     12
                      A                      A                      A
 Frequencies --    582.9025               661.0364               718.0640
 Red. masses --      3.9436                 3.9798                 2.8488
 Frc consts  --      0.7895                 1.0246                 0.8654
 IR Inten    --     11.7501                 8.6766                15.1242

                     13                     14                     15
                      A                      A                      A
 Frequencies --    827.1900               832.8617               850.7243
 Red. masses --      3.5349                 3.2540                 3.1208
 Frc consts  --      1.4251                 1.3299                 1.3307
 IR Inten    --      5.5890                19.8331                20.0734

                     16                     17                     18
                      A                      A                      A
 Frequencies --    869.4974               912.6114               935.6248
 Red. masses --      2.5477                 2.1271                 1.5003
 Frc consts  --      1.1348                 1.0438                 0.7738
 IR Inten    --     13.1362                12.5978                 4.7305

                     19                     20                     21
                      A                      A                      A
 Frequencies --    952.1393              1011.9312              1016.7193
 Red. masses --      2.7559                 1.6133                 2.3303
 Frc consts  --      1.4720                 0.9733                 1.4193
 IR Inten    --     25.2627                 3.2205                 8.4964

                     22                     23                     24
                      A                      A                      A
 Frequencies --   1035.1216              1068.5310              1109.8383
 Red. masses --      1.3335                 2.1820                 1.4944
 Frc consts  --      0.8419                 1.4678                 1.0845
 IR Inten    --      3.1838                 6.5041                 1.9746

                     25                     26                     27
                      A                      A                      A
 Frequencies --   1119.5480              1146.8370              1193.1671
 Red. masses --      1.6964                 2.3952                 1.5970
 Frc consts  --      1.2528                 1.8561                 1.3396
 IR Inten    --      2.2989                 2.8146                 2.3285

                     28                     29                     30
                      A                      A                      A
 Frequencies --   1209.8302              1238.4393              1279.1022
 Red. masses --      1.6067                 1.3599                 1.7893
 Frc consts  --      1.3856                 1.2289                 1.7248
 IR Inten    --     11.9192                 2.5293                 5.0684

                     31                     32                     33
                      A                      A                      A
 Frequencies --   1290.6286              1302.6795              1319.9804
 Red. masses --      1.7790                 1.6868                 1.8982
 Frc consts  --      1.7459                 1.6866                 1.9486
 IR Inten    --      9.3537                 1.7043                 3.6656

                     34                     35                     36
                      A                      A                      A
 Frequencies --   1365.4314              1401.9569              1408.2850
 Red. masses --      1.4522                 1.2825                 1.2850
 Frc consts  --      1.5952                 1.4852                 1.5016
 IR Inten    --      2.0740                 6.9287                 6.0565

                     37                     38                     39
                      A                      A                      A
 Frequencies --   1478.1428              1494.8333              1498.4931
 Red. masses --      1.1180                 1.1116                 1.0539
 Frc consts  --      1.4392                 1.4635                 1.3943
 IR Inten    --      4.0130                 0.2708                 5.5703

                     40                     41                     42
                      A                      A                      A
 Frequencies --   1506.8674              1820.3114              2895.8128
 Red. masses --      1.0517                10.7342                 1.0839
 Frc consts  --      1.4069                20.9562                 5.3553
 IR Inten    --      2.3375               137.8873                91.5602

                     43                     44                     45
                      A                      A                      A
 Frequencies --   3037.0935              3063.2325              3069.4490
 Red. masses --      1.0347                 1.0632                 1.0723
 Frc consts  --      5.6233                 5.8778                 5.9525
 IR Inten    --     20.1068                22.3536                 7.4420

                     46                     47                     48
                      A                      A                      A
 Frequencies --   3074.8071              3106.2367              3112.9309
 Red. masses --      1.0661                 1.1012                 1.1054
 Frc consts  --      5.9387                 6.2601                 6.3113
 IR Inten    --     24.3414                20.4271                12.8640

                     49                     50                     51
                      A                      A                      A
 Frequencies --   3118.7647              3126.5534              3147.9606
 Red. masses --      1.1031                 1.0919                 1.1096
 Frc consts  --      6.3214                 6.2887                 6.4783
 IR Inten    --     28.0223                47.6313                20.5493

 - Thermochemistry -
 -------------------
 Temperature   298.150 Kelvin.  Pressure   1.00000 Atm.
 Atom     1 has atomic number  6 and mass  12.00000

 Molecular mass:   126.06808 amu.
 Principal axes and moments of inertia in atomic units:
                           1         2         3
     Eigenvalues --   724.287101070.334461432.64547
           X            0.99971   0.00065   0.02391
           Y           -0.00112   0.99980   0.01980
           Z           -0.02390  -0.01982   0.99952
 This molecule is an asymmetric top.
 Rotational symmetry number  1.
 Warning -- assumption of classical behavior for rotation
           may cause significant error
 Rotational temperatures (Kelvin)      0.11958     0.08092     0.06046
 Rotational constants (GHZ):           2.49175     1.68615     1.25973
 Zero-point vibrational energy     417190.0 (Joules/Mol)
                                   99.71081 (Kcal/Mol)
 Warning -- explicit consideration of  10 degrees of freedom as
           vibrations may cause significant error
 Vibrational temperatures:    102.37   219.31   254.44   325.71   372.07
          (Kelvin)            469.48   592.24   647.84   666.09   838.67
                              951.08  1033.13  1190.14  1198.30  1224.00
                             1251.01  1313.04  1346.15  1369.91  1455.94
                             1462.83  1489.31  1537.38  1596.81  1610.78
                             1650.04  1716.70  1740.67  1781.84  1840.34
                             1856.92  1874.26  1899.16  1964.55  2017.10
                             2026.21  2126.72  2150.73  2155.99  2168.04
                             2619.02  4166.42  4369.69  4407.30  4416.25
                             4423.96  4469.18  4478.81  4487.20  4498.41
                             4529.21

 Zero-point correction=                           0.158899 (Hartree/Particle)
 Thermal correction to Energy=                    0.167107
 Thermal correction to Enthalpy=                  0.168051
 Thermal correction to Gibbs Free Energy=         0.126060
 Sum of electronic and zero-point Energies=           -423.018222
 Sum of electronic and thermal Energies=              -423.010014
 Sum of electronic and thermal Enthalpies=            -423.009070
 Sum of electronic and thermal Free Energies=         -423.051061

                     E (Thermal)             CV                S
                      KCal/Mol        Cal/Mol-Kelvin    Cal/Mol-Kelvin
 Total                  104.861             31.459             88.378
 Electronic               0.000              0.000              0.000
 Translational            0.889              2.981             40.409
 Rotational               0.889              2.981             28.498
 Vibrational            103.084             25.498             19.472
 Vibration     1          0.598              1.968              4.121
 Vibration     2          0.619              1.900              2.642
 Vibration     3          0.628              1.871              2.361
 Vibration     4          0.650              1.801              1.907
 Vibration     5          0.667              1.748              1.671
 Vibration     6          0.710              1.623              1.278
 Vibration     7          0.776              1.445              0.921
 Vibration     8          0.809              1.360              0.795
 Vibration     9          0.821              1.332              0.758
 Vibration    10          0.940              1.068              0.480

 Optimization completed.
    -- Stationary point found.
 Normal termination of Gaussian 09 at Tue Jan 28 05:17:56 2020.
