 Gaussian 09, Revision D.01,
 Gaussian 09:  ES64L-G09RevD.01 24-Apr-2013

 -----------------------------
 # b3lyp 6-31G(2df,p) opt Freq
 -----------------------------

 -----
 titel
 -----
 Symbolic Z-matrix:
 Charge =  0 Multiplicity = 1

 SCF Done:  E(RB3LYP) =  -423.184069484     A.U. after   13 cycles
 Optimization completed.
    -- Stationary point found.
 Normal termination of Gaussian 09 at Mon Jan 27 19:03:29 2020.

 ----------------------------------------------------------------------
 #N Geom=AllCheck Guess=TCheck SCRF=Check GenChk RB3LYP/6-31G(2df,p) Fr
 eq
 ----------------------------------------------------------------------

 Structure from the checkpoint file:  "/scratch/puck/g09_0f778a08-1459-4634-b363-11b5848816f7/Gau-183528.chk"
 -----
 titel
 -----
 Charge =  0 Multiplicity = 1

                         Standard orientation:
 ---------------------------------------------------------------------
 Center     Atomic      Atomic             Coordinates (Angstroms)
 Number     Number       Type             X           Y           Z
 ---------------------------------------------------------------------
      1          6           0       -2.543002   -0.245622    0.010653
      2          6           0       -1.048126   -0.103458   -0.043892
      3          8           0       -0.612551    0.966996   -0.863269
      4          6           0        0.420392    1.669269   -0.164599
      5          6           0        1.079662    0.616228    0.735115
      6          8           0        1.971768   -0.204006   -0.012736
      7          6           0        1.214209   -1.206524   -0.696576
      8          6           0       -0.124533   -1.307525    0.020049
      9          6           0       -0.117322   -0.266612    1.121524
     10          1           0       -3.004454    0.660982    0.415202
     11          1           0       -2.949895   -0.413742   -0.991688
     12          1           0       -2.829542   -1.092048    0.641475
     13          1           0        1.114702    2.086804   -0.897741
     14          1           0       -0.009806    2.484474    0.438193
     15          1           0        1.633366    1.044801    1.573184
     16          1           0        1.087920   -0.931389   -1.752012
     17          1           0        1.770668   -2.148515   -0.644159
     18          1           0       -0.560898   -2.286532    0.184479
     19          1           0       -0.413480   -0.443284    2.147460
 ---------------------------------------------------------------------

 SCF Done:  E(RB3LYP) =  -423.184069484     A.U. after    1 cycles

 The electronic state is 1-A.
 Alpha  occ. eigenvalues --  -19.13979 -19.13220 -10.24047 -10.23489 -10.22445
 Alpha  occ. eigenvalues --  -10.22321 -10.19129 -10.19065 -10.18216  -1.05400
 Alpha  occ. eigenvalues --   -1.01672  -0.85405  -0.76249  -0.72844  -0.67249
 Alpha  occ. eigenvalues --   -0.59988  -0.58202  -0.55835  -0.52333  -0.47726
 Alpha  occ. eigenvalues --   -0.45670  -0.44132  -0.43462  -0.41960  -0.41124
 Alpha  occ. eigenvalues --   -0.39992  -0.39125  -0.35692  -0.34583  -0.32030
 Alpha  occ. eigenvalues --   -0.31058  -0.28112  -0.24745  -0.23372
 Alpha virt. eigenvalues --    0.08261   0.09979   0.11815   0.12244   0.13866
 Alpha virt. eigenvalues --    0.13917   0.14669   0.15407   0.15973   0.17178
 Alpha virt. eigenvalues --    0.17938   0.18614   0.19274   0.20042   0.20813

 Mulliken charges:
               1
     1  C   -0.479726
     2  C    0.444884
     3  O   -0.302400
     4  C   -0.099464
     5  C    0.064229
     6  O   -0.267025
     7  C   -0.099270
     8  C   -0.142898
     9  C   -0.172743
    10  H    0.123999
    11  H    0.131371
    12  H    0.117455
    13  H    0.116465
    14  H    0.088582
    15  H    0.085326
    16  H    0.107360
    17  H    0.103169
    18  H    0.089548
    19  H    0.091137
 Sum of Mulliken charges =   0.00000

 Dipole moment (field-independent basis, Debye):
    X=             -1.0860    Y=             -0.5145    Z=              1.3324  Tot=              1.7943
 Quadrupole moment (field-independent basis, Debye-Ang):
   XX=            -56.0764   YY=            -49.7985   ZZ=            -52.6004
   XY=              2.1409   XZ=             -1.2325   YZ=              2.0110

  Exact polarizability:  77.825   0.842  77.163  -1.077   3.156  66.123
 Approx polarizability: 106.066   0.263 110.800   0.846   4.246 103.740

                      1                      2                      3
                      A                      A                      A
 Frequencies --    161.6436               199.5212               209.9339
 Red. masses --      3.1502                 1.2761                 2.0794
 Frc consts  --      0.0485                 0.0299                 0.0540
 IR Inten    --      3.7288                 1.0678                 1.3248

                      4                      5                      6
                      A                      A                      A
 Frequencies --    242.5963               324.9772               400.3556
 Red. masses --      2.4463                 2.7354                 2.4213
 Frc consts  --      0.0848                 0.1702                 0.2287
 IR Inten    --      1.6160                 1.6101                 2.1986

                      7                      8                      9
                      A                      A                      A
 Frequencies --    508.3742               572.6178               652.9359
 Red. masses --      3.8640                 3.3583                 5.0196
 Frc consts  --      0.5884                 0.6488                 1.2608
 IR Inten    --      4.8030                 2.3409                 2.5623

                     10                     11                     12
                      A                      A                      A
 Frequencies --    738.0561               753.6221               784.5404
 Red. masses --      4.8059                 5.4205                 2.6743
 Frc consts  --      1.5424                 1.8138                 0.9698
 IR Inten    --      4.8136                 2.3469                 8.4582

                     13                     14                     15
                      A                      A                      A
 Frequencies --    835.5869               846.6610               881.8595
 Red. masses --      2.4115                 2.5991                 2.4391
 Frc consts  --      0.9920                 1.0977                 1.1176
 IR Inten    --      5.4653                12.5544                 6.8859

                     16                     17                     18
                      A                      A                      A
 Frequencies --    927.3730               932.9654               960.8608
 Red. masses --      2.1100                 1.8858                 2.1278
 Frc consts  --      1.0691                 0.9671                 1.1574
 IR Inten    --     17.4455                13.2243                 8.6464

                     19                     20                     21
                      A                      A                      A
 Frequencies --    985.1491              1025.0738              1036.3060
 Red. masses --      1.7365                 1.8143                 2.1969
 Frc consts  --      0.9929                 1.1232                 1.3901
 IR Inten    --     18.1185                 2.3121                10.8738

                     22                     23                     24
                      A                      A                      A
 Frequencies --   1058.3035              1077.3230              1088.9626
 Red. masses --      2.0253                 2.8259                 2.6037
 Frc consts  --      1.3365                 1.9324                 1.8191
 IR Inten    --     31.3162                35.4210                44.1972

                     25                     26                     27
                      A                      A                      A
 Frequencies --   1114.1251              1131.5089              1200.4647
 Red. masses --      1.9068                 2.8799                 1.9158
 Frc consts  --      1.3945                 2.1724                 1.6267
 IR Inten    --      1.3763                58.2608                 3.2376

                     28                     29                     30
                      A                      A                      A
 Frequencies --   1217.8525              1233.5538              1237.5076
 Red. masses --      1.9165                 1.2488                 1.1848
 Frc consts  --      1.6748                 1.1196                 1.0690
 IR Inten    --     36.6800                 8.5196                 2.5320

                     31                     32                     33
                      A                      A                      A
 Frequencies --   1278.3656              1284.8675              1339.2653
 Red. masses --      1.8865                 1.5398                 1.3068
 Frc consts  --      1.8165                 1.4978                 1.3810
 IR Inten    --      8.7774                 8.0856                 3.3176

                     34                     35                     36
                      A                      A                      A
 Frequencies --   1373.8855              1381.2142              1412.0177
 Red. masses --      1.4618                 1.4773                 1.3071
 Frc consts  --      1.6257                 1.6605                 1.5355
 IR Inten    --      4.6372                17.1122                 5.8310

                     37                     38                     39
                      A                      A                      A
 Frequencies --   1435.0683              1478.9870              1498.2319
 Red. masses --      2.9696                 1.0507                 1.0792
 Frc consts  --      3.6033                 1.3541                 1.4273
 IR Inten    --     10.7973                 2.4063                 1.5751

                     40                     41                     42
                      A                      A                      A
 Frequencies --   1502.5718              1517.1085              2983.5487
 Red. masses --      1.1034                 1.0888                 1.0699
 Frc consts  --      1.4678                 1.4765                 5.6114
 IR Inten    --      1.3311                 0.5964                68.7904

                     43                     44                     45
                      A                      A                      A
 Frequencies --   3015.5761              3036.1436              3064.4781
 Red. masses --      1.0616                 1.0351                 1.1026
 Frc consts  --      5.6881                 5.6216                 6.1007
 IR Inten    --     58.0754                25.1712                37.1079

                     46                     47                     48
                      A                      A                      A
 Frequencies --   3097.1256              3102.6197              3104.5021
 Red. masses --      1.0892                 1.1014                 1.0942
 Frc consts  --      6.1558                 6.2468                 6.2133
 IR Inten    --     32.5553                18.4126                24.5291

                     49                     50                     51
                      A                      A                      A
 Frequencies --   3114.3820              3171.9519              3193.4695
 Red. masses --      1.1012                 1.0900                 1.0944
 Frc consts  --      6.2928                 6.4617                 6.5759
 IR Inten    --     17.4737                11.9491                 9.7817

 - Thermochemistry -
 -------------------
 Temperature   298.150 Kelvin.  Pressure   1.00000 Atm.
 Atom     1 has atomic number  6 and mass  12.00000

 Molecular mass:   126.06808 amu.
 Principal axes and moments of inertia in atomic units:
                           1         2         3
     Eigenvalues --   609.349141002.201261234.35156
           X            0.99950   0.02802  -0.01436
           Y           -0.02747   0.99894   0.03704
           Z            0.01538  -0.03663   0.99921
 This molecule is an asymmetric top.
 Rotational symmetry number  1.
 Warning -- assumption of classical behavior for rotation
           may cause significant error
 Rotational temperatures (Kelvin)      0.14214     0.08642     0.07017
 Rotational constants (GHZ):           2.96175     1.80078     1.46210
 Zero-point vibrational energy     423035.4 (Joules/Mol)
                                  101.10788 (Kcal/Mol)
 Warning -- explicit consideration of   8 degrees of freedom as
           vibrations may cause significant error
 Vibrational temperatures:    232.57   287.07   302.05   349.04   467.57
          (Kelvin)            576.02   731.44   823.87   939.43  1061.90
                             1084.29  1128.78  1202.22  1218.15  1268.80
                             1334.28  1342.33  1382.46  1417.41  1474.85
                             1491.01  1522.66  1550.03  1566.77  1602.98
                             1627.99  1727.20  1752.22  1774.81  1780.50
                             1839.28  1848.64  1926.90  1976.71  1987.26
                             2031.58  2064.74  2127.93  2155.62  2161.86
                             2182.78  4292.66  4338.74  4368.33  4409.09
                             4456.07  4463.97  4466.68  4480.90  4563.73
                             4594.68

 Zero-point correction=                           0.161126 (Hartree/Particle)
 Thermal correction to Energy=                    0.168394
 Thermal correction to Enthalpy=                  0.169338
 Thermal correction to Gibbs Free Energy=         0.129760
 Sum of electronic and zero-point Energies=           -423.022944
 Sum of electronic and thermal Energies=              -423.015675
 Sum of electronic and thermal Enthalpies=            -423.014731
 Sum of electronic and thermal Free Energies=         -423.054309

                     E (Thermal)             CV                S
                      KCal/Mol        Cal/Mol-Kelvin    Cal/Mol-Kelvin
 Total                  105.669             29.281             83.299
 Electronic               0.000              0.000              0.000
 Translational            0.889              2.981             40.409
 Rotational               0.889              2.981             28.113
 Vibrational            103.891             23.320             14.777
 Vibration     1          0.622              1.889              2.530
 Vibration     2          0.638              1.841              2.138
 Vibration     3          0.642              1.826              2.044
 Vibration     4          0.659              1.775              1.784
 Vibration     5          0.709              1.626              1.285
 Vibration     6          0.766              1.469              0.961
 Vibration     7          0.864              1.231              0.638
 Vibration     8          0.929              1.090              0.499

 Normal termination of Gaussian 09 at Mon Jan 27 19:45:59 2020.
