 Gaussian 09, Revision D.01,
 Gaussian 09:  ES64L-G09RevD.01 24-Apr-2013

 -----------------------------
 # b3lyp 6-31G(2df,p) opt Freq
 -----------------------------

 -----
 titel
 -----
 Symbolic Z-matrix:
 Charge =  0 Multiplicity = 1

 SCF Done:  E(RB3LYP) =  -423.171010640     A.U. after   14 cycles
 Optimization completed.
    -- Stationary point found.
 Normal termination of Gaussian 09 at Tue Jan 28 14:27:41 2020.

 ----------------------------------------------------------------------
 #N Geom=AllCheck Guess=TCheck SCRF=Check GenChk RB3LYP/6-31G(2df,p) Fr
 eq
 ----------------------------------------------------------------------

 Structure from the checkpoint file:  "/scratch/puck/g09_aea3b4f9-8fdd-413e-9f04-1586751e1d8b/Gau-11877.chk"
 -----
 titel
 -----
 Charge =  0 Multiplicity = 1

                         Standard orientation:
 ---------------------------------------------------------------------
 Center     Atomic      Atomic             Coordinates (Angstroms)
 Number     Number       Type             X           Y           Z
 ---------------------------------------------------------------------
      1          6           0       -3.963397   -0.726550    0.206336
      2          6           0       -2.913074    0.346016   -0.004209
      3          8           0       -3.187728    1.521950   -0.119027
      4          6           0       -1.542675   -0.126682   -0.061176
      5          6           0       -0.403648   -0.525065   -0.110123
      6          6           0        0.982799   -0.962862   -0.172911
      7          6           0        1.995425    0.175162    0.065780
      8          6           0        3.441609   -0.310202   -0.047592
      9          8           0        4.384216    0.706764    0.237759
     10          1           0       -4.953371   -0.269021    0.234861
     11          1           0       -3.913734   -1.464821   -0.601374
     12          1           0       -3.770316   -1.263588    1.141294
     13          1           0        1.144074   -1.764103    0.560790
     14          1           0        1.162060   -1.419165   -1.156484
     15          1           0        1.814058    0.973802   -0.664197
     16          1           0        1.838851    0.610583    1.057694
     17          1           0        3.630112   -1.101563    0.687088
     18          1           0        3.612189   -0.751043   -1.044197
     19          1           0        4.281948    1.400309   -0.421959
 ---------------------------------------------------------------------

 SCF Done:  E(RB3LYP) =  -423.171010640     A.U. after    1 cycles

 The electronic state is 1-A.
 Alpha  occ. eigenvalues --  -19.14173 -19.13034 -10.28592 -10.23689 -10.22538
 Alpha  occ. eigenvalues --  -10.20423 -10.19840 -10.19036 -10.18530  -1.04065
 Alpha  occ. eigenvalues --   -1.02347  -0.82247  -0.77299  -0.73996  -0.69628
 Alpha  occ. eigenvalues --   -0.62399  -0.60623  -0.51942  -0.49317  -0.47878
 Alpha  occ. eigenvalues --   -0.46338  -0.44407  -0.44350  -0.43453  -0.42343
 Alpha  occ. eigenvalues --   -0.39885  -0.38173  -0.36986  -0.36405  -0.33250
 Alpha  occ. eigenvalues --   -0.28574  -0.27794  -0.26904  -0.25403
 Alpha virt. eigenvalues --   -0.04631   0.03886   0.07005   0.08595   0.09355
 Alpha virt. eigenvalues --    0.11402   0.12332   0.13346   0.14916   0.16341
 Alpha virt. eigenvalues --    0.17209   0.18087   0.18492   0.20132   0.21191

 Mulliken charges:
               1
     1  C   -0.476740
     2  C    0.247102
     3  O   -0.277224
     4  C    0.097282
     5  C    0.009768
     6  C   -0.366683
     7  C   -0.193027
     8  C   -0.057012
     9  O   -0.416639
    10  H    0.141943
    11  H    0.144677
    12  H    0.145031
    13  H    0.140190
    14  H    0.140602
    15  H    0.108769
    16  H    0.126284
    17  H    0.114124
    18  H    0.087837
    19  H    0.283715
 Sum of Mulliken charges =   0.00000

 Dipole moment (field-independent basis, Debye):
    X=              0.9250    Y=             -2.7309    Z=             -0.8693  Tot=              3.0115
 Quadrupole moment (field-independent basis, Debye-Ang):
   XX=            -60.1287   YY=            -54.4639   ZZ=            -51.8575
   XY=              8.0123   XZ=             -6.2168   YZ=             -1.3795

  Exact polarizability: 122.556  -8.037  73.919  -2.025  -1.195  57.174
 Approx polarizability: 157.415 -26.013 120.347  -1.434  -2.406  86.944

                      1                      2                      3
                      A                      A                      A
 Frequencies --     17.2144                54.3592                67.7269
 Red. masses --      3.0422                 5.9840                 2.1514
 Frc consts  --      0.0005                 0.0104                 0.0058
 IR Inten    --      2.3539                 1.6558                 3.6783

                      4                      5                      6
                      A                      A                      A
 Frequencies --    119.5115               125.9756               140.7660
 Red. masses --      1.3253                 1.9027                 3.5241
 Frc consts  --      0.0112                 0.0178                 0.0411
 IR Inten    --      0.5061                 1.6772                 1.4358

                      7                      8                      9
                      A                      A                      A
 Frequencies --    163.9810               242.0429               311.5949
 Red. masses --      3.7692                 3.8074                 1.1635
 Frc consts  --      0.0597                 0.1314                 0.0666
 IR Inten    --      2.4170                 2.0813               112.3675

                     10                     11                     12
                      A                      A                      A
 Frequencies --    362.6373               382.2946               441.9800
 Red. masses --      5.7369                 3.8827                 3.6251
 Frc consts  --      0.4445                 0.3343                 0.4172
 IR Inten    --     12.0315                 2.0041                 6.9027

                     13                     14                     15
                      A                      A                      A
 Frequencies --    502.7327               603.0243               611.1805
 Red. masses --      4.1726                 2.7932                 6.6377
 Frc consts  --      0.6213                 0.5984                 1.4608
 IR Inten    --      9.6856                 2.4594                 4.4773

                     16                     17                     18
                      A                      A                      A
 Frequencies --    684.4385               748.5428               849.7447
 Red. masses --      3.8548                 1.1114                 1.2646
 Frc consts  --      1.0640                 0.3669                 0.5380
 IR Inten    --     19.4451                 3.1283                 2.5593

                     19                     20                     21
                      A                      A                      A
 Frequencies --    958.4157              1006.2654              1036.3376
 Red. masses --      2.7465                 3.2816                 3.5040
 Frc consts  --      1.4864                 1.9578                 2.2172
 IR Inten    --     36.2493                20.6967                16.4531

                     22                     23                     24
                      A                      A                      A
 Frequencies --   1042.8551              1060.6830              1081.1979
 Red. masses --      1.8441                 2.2516                 2.7961
 Frc consts  --      1.1816                 1.4925                 1.9258
 IR Inten    --      5.4465                 8.1371               108.2842

                     25                     26                     27
                      A                      A                      A
 Frequencies --   1100.1040              1161.8256              1246.8741
 Red. masses --      2.1583                 1.1650                 3.0506
 Frc consts  --      1.5389                 0.9265                 2.7944
 IR Inten    --     16.6799                 6.4384               159.0191

                     28                     29                     30
                      A                      A                      A
 Frequencies --   1263.8667              1293.9134              1316.8560
 Red. masses --      1.4135                 1.2315                 1.0869
 Frc consts  --      1.3303                 1.2148                 1.1105
 IR Inten    --     31.8140                13.5966                 5.8946

                     31                     32                     33
                      A                      A                      A
 Frequencies --   1365.2077              1382.1675              1399.9554
 Red. masses --      1.4428                 1.3201                 1.3074
 Frc consts  --      1.5844                 1.4858                 1.5097
 IR Inten    --     14.2988                37.8778                 5.6286

                     34                     35                     36
                      A                      A                      A
 Frequencies --   1425.5053              1460.6398              1463.3579
 Red. masses --      1.2805                 1.0541                 1.0838
 Frc consts  --      1.5331                 1.3250                 1.3674
 IR Inten    --     49.8016                12.0467                 2.5387

                     37                     38                     39
                      A                      A                      A
 Frequencies --   1469.3723              1492.1648              1514.6568
 Red. masses --      1.0475                 1.0823                 1.0936
 Frc consts  --      1.3325                 1.4198                 1.4783
 IR Inten    --      6.9089                 2.1924                 0.7007

                     40                     41                     42
                      A                      A                      A
 Frequencies --   1767.0944              2331.5956              2964.4047
 Red. masses --     11.0631                11.9417                 1.0708
 Frc consts  --     20.3538                38.2493                 5.5440
 IR Inten    --    198.8788               153.6409                57.6791

                     43                     44                     45
                      A                      A                      A
 Frequencies --   3011.8391              3033.5283              3039.2394
 Red. masses --      1.0586                 1.0742                 1.0356
 Frc consts  --      5.6576                 5.8241                 5.6358
 IR Inten    --     11.8612                 9.3250                 1.7597

                     46                     47                     48
                      A                      A                      A
 Frequencies --   3042.7122              3061.1544              3095.6618
 Red. masses --      1.0901                 1.0869                 1.1026
 Frc consts  --      5.9460                 6.0006                 6.2257
 IR Inten    --      8.9340                27.9899                34.3661

                     49                     50                     51
                      A                      A                      A
 Frequencies --   3103.2483              3151.5005              3814.6434
 Red. masses --      1.0986                 1.1029                 1.0662
 Frc consts  --      6.2334                 6.4541                 9.1408
 IR Inten    --      6.1951                11.0190                19.0898

 - Thermochemistry -
 -------------------
 Temperature   298.150 Kelvin.  Pressure   1.00000 Atm.
 Atom     1 has atomic number  6 and mass  12.00000

 Molecular mass:   126.06808 amu.
 Principal axes and moments of inertia in atomic units:
                           1         2         3
     Eigenvalues --   327.579293964.035634227.65735
           X            0.99994   0.00983  -0.00567
           Y           -0.00987   0.99992  -0.00787
           Z            0.00559   0.00793   0.99995
 This molecule is an asymmetric top.
 Rotational symmetry number  1.
 Rotational temperatures (Kelvin)      0.26441     0.02185     0.02049
 Rotational constants (GHZ):           5.50933     0.45528     0.42689
 Zero-point vibrational energy     409054.6 (Joules/Mol)
                                   97.76640 (Kcal/Mol)
 Warning -- explicit consideration of  15 degrees of freedom as
           vibrations may cause significant error
 Vibrational temperatures:     24.77    78.21    97.44   171.95   181.25
          (Kelvin)            202.53   235.93   348.25   448.31   521.75
                              550.04   635.91   723.32   867.62   879.35
                              984.75  1076.98  1222.59  1378.94  1447.79
                             1491.06  1500.43  1526.08  1555.60  1582.80
                             1671.61  1793.97  1818.42  1861.65  1894.66
                             1964.23  1988.63  2014.22  2050.98  2101.53
                             2105.44  2114.10  2146.89  2179.25  2542.45
                             3354.64  4265.11  4333.36  4364.57  4372.78
                             4377.78  4404.31  4453.96  4464.88  4534.30
                             5488.41

 Zero-point correction=                           0.155801 (Hartree/Particle)
 Thermal correction to Energy=                    0.166839
 Thermal correction to Enthalpy=                  0.167783
 Thermal correction to Gibbs Free Energy=         0.116962
 Sum of electronic and zero-point Energies=           -423.015210
 Sum of electronic and thermal Energies=              -423.004172
 Sum of electronic and thermal Enthalpies=            -423.003228
 Sum of electronic and thermal Free Energies=         -423.054049

                     E (Thermal)             CV                S
                      KCal/Mol        Cal/Mol-Kelvin    Cal/Mol-Kelvin
 Total                  104.693             36.958            106.961
 Electronic               0.000              0.000              0.000
 Translational            0.889              2.981             40.409
 Rotational               0.889              2.981             30.086
 Vibrational            102.915             30.997             36.467
 Vibration     1          0.593              1.986              6.932
 Vibration     2          0.596              1.976              4.652
 Vibration     3          0.598              1.970              4.218
 Vibration     4          0.609              1.933              3.108
 Vibration     5          0.611              1.927              3.007
 Vibration     6          0.615              1.913              2.793
 Vibration     7          0.623              1.887              2.503
 Vibration     8          0.658              1.776              1.788
 Vibration     9          0.700              1.652              1.354
 Vibration    10          0.736              1.549              1.111
 Vibration    11          0.752              1.508              1.030
 Vibration    12          0.802              1.379              0.820
 Vibration    13          0.858              1.244              0.651
 Vibration    14          0.961              1.025              0.444
 Vibration    15          0.970              1.008              0.431

 Normal termination of Gaussian 09 at Tue Jan 28 14:58:11 2020.
