 Gaussian 09, Revision D.01,
 Gaussian 09:  ES64L-G09RevD.01 24-Apr-2013

 -----------------------------
 # b3lyp 6-31G(2df,p) opt Freq
 -----------------------------

 -----
 titel
 -----
 Symbolic Z-matrix:
 Charge =  0 Multiplicity = 1

 SCF Done:  E(RB3LYP) =  -423.159208966     A.U. after   13 cycles
 Optimization completed.
    -- Stationary point found.
 Normal termination of Gaussian 09 at Mon Jan 27 23:05:46 2020.

 ----------------------------------------------------------------------
 #N Geom=AllCheck Guess=TCheck SCRF=Check GenChk RB3LYP/6-31G(2df,p) Fr
 eq
 ----------------------------------------------------------------------

 Structure from the checkpoint file:  "/scratch/puck/g09_09eb4e17-c477-413c-910f-5ee406bfefaf/Gau-103138.chk"
 -----
 titel
 -----
 Charge =  0 Multiplicity = 1

                         Standard orientation:
 ---------------------------------------------------------------------
 Center     Atomic      Atomic             Coordinates (Angstroms)
 Number     Number       Type             X           Y           Z
 ---------------------------------------------------------------------
      1          8           0       -1.856042   -1.495514   -0.265625
      2          6           0       -0.749300   -0.904348    0.409936
      3          6           0       -1.104353    0.527986    0.784460
      4          6           0       -1.513201    1.411800   -0.368542
      5          6           0       -0.109866    1.487973    0.165996
      6          6           0        0.919994    0.692723   -0.599554
      7          8           0        2.142080    0.477126    0.145011
      8          6           0        1.876955   -0.933661    0.255868
      9          6           0        0.522001   -0.803954   -0.473423
     10          1           0       -1.651454   -2.424299   -0.414121
     11          1           0       -0.523544   -1.480499    1.320112
     12          1           0       -1.538820    0.712282    1.759613
     13          1           0       -1.688806    0.939251   -1.329246
     14          1           0       -2.178299    2.239858   -0.152050
     15          1           0        0.222301    2.379687    0.685707
     16          1           0        1.136016    1.092343   -1.597683
     17          1           0        2.633396   -1.532333   -0.267248
     18          1           0        1.825906   -1.265005    1.302113
     19          1           0        0.421611   -1.385299   -1.390737
 ---------------------------------------------------------------------

 SCF Done:  E(RB3LYP) =  -423.159208966     A.U. after    1 cycles

 The electronic state is 1-A.
 Alpha  occ. eigenvalues --  -19.13576 -19.12749 -10.23636 -10.23159 -10.22971
 Alpha  occ. eigenvalues --  -10.18958 -10.18774 -10.18748 -10.18387  -1.03573
 Alpha  occ. eigenvalues --   -1.01711  -0.87189  -0.75866  -0.69969  -0.67284
 Alpha  occ. eigenvalues --   -0.59825  -0.55894  -0.54463  -0.51734  -0.50958
 Alpha  occ. eigenvalues --   -0.48348  -0.45320  -0.43639  -0.42492  -0.39619
 Alpha  occ. eigenvalues --   -0.38309  -0.36927  -0.33801  -0.31649  -0.30710
 Alpha  occ. eigenvalues --   -0.29207  -0.27985  -0.26320  -0.24527
 Alpha virt. eigenvalues --    0.06217   0.08780   0.09822   0.10880   0.11523
 Alpha virt. eigenvalues --    0.12517   0.13715   0.15714   0.16807   0.17629
 Alpha virt. eigenvalues --    0.18856   0.19138   0.20127   0.21657   0.23362

 Mulliken charges:
               1
     1  O   -0.434213
     2  C    0.084622
     3  C   -0.029985
     4  C   -0.286633
     5  C   -0.064053
     6  C    0.126409
     7  O   -0.296281
     8  C   -0.083376
     9  C   -0.123760
    10  H    0.279404
    11  H    0.065166
    12  H    0.085109
    13  H    0.123601
    14  H    0.112696
    15  H    0.094089
    16  H    0.076518
    17  H    0.098567
    18  H    0.096774
    19  H    0.075348
 Sum of Mulliken charges =   0.00000

 Dipole moment (field-independent basis, Debye):
    X=             -0.3313    Y=             -1.5176    Z=             -0.1281  Tot=              1.5586
 Quadrupole moment (field-independent basis, Debye-Ang):
   XX=            -60.9924   YY=            -46.5761   ZZ=            -51.5086
   XY=             -3.6677   XZ=             -1.6109   YZ=              0.4887

  Exact polarizability:  77.523  -4.824  77.839   0.381  -1.389  65.476
 Approx polarizability: 108.187  -1.384 110.406   2.891  -2.599 101.381

                      1                      2                      3
                      A                      A                      A
 Frequencies --     65.8872               185.5934               266.6559
 Red. masses --      3.1917                 3.6866                 2.9530
 Frc consts  --      0.0082                 0.0748                 0.1237
 IR Inten    --      1.8368                 4.2886                 1.0595

                      4                      5                      6
                      A                      A                      A
 Frequencies --    288.2389               302.2456               361.4969
 Red. masses --      1.7816                 1.5465                 3.4796
 Frc consts  --      0.0872                 0.0832                 0.2679
 IR Inten    --     28.5034                63.8278                21.2932

                      7                      8                      9
                      A                      A                      A
 Frequencies --    440.2457               512.6895               644.3815
 Red. masses --      4.6183                 4.3002                 3.5785
 Frc consts  --      0.5274                 0.6660                 0.8755
 IR Inten    --      1.4244                 4.5973                 0.1343

                     10                     11                     12
                      A                      A                      A
 Frequencies --    698.7877               785.2946               828.3658
 Red. masses --      3.1810                 1.9560                 1.7132
 Frc consts  --      0.9152                 0.7107                 0.6926
 IR Inten    --     10.1501                 3.2509                 2.3656

                     13                     14                     15
                      A                      A                      A
 Frequencies --    846.5110               856.7986               892.9306
 Red. masses --      2.0600                 2.6356                 2.4674
 Frc consts  --      0.8697                 1.1400                 1.1591
 IR Inten    --      2.3367                 6.0474                19.6193

                     16                     17                     18
                      A                      A                      A
 Frequencies --    904.3646               966.3637               990.5491
 Red. masses --      2.0356                 2.5020                 2.6292
 Frc consts  --      0.9809                 1.3766                 1.5200
 IR Inten    --      6.3678                 0.9189                10.9137

                     19                     20                     21
                      A                      A                      A
 Frequencies --   1003.3278              1034.4556              1046.7635
 Red. masses --      2.6362                 5.5316                 1.8382
 Frc consts  --      1.5635                 3.4876                 1.1867
 IR Inten    --      7.2866               103.1155                 8.6656

                     22                     23                     24
                      A                      A                      A
 Frequencies --   1058.3242              1064.3446              1083.7109
 Red. masses --      2.4484                 1.8855                 2.1578
 Frc consts  --      1.6157                 1.2584                 1.4931
 IR Inten    --     30.3059                57.1393                 7.1696

                     25                     26                     27
                      A                      A                      A
 Frequencies --   1093.9680              1109.3641              1130.5904
 Red. masses --      1.3434                 1.2516                 2.0344
 Frc consts  --      0.9473                 0.9075                 1.5322
 IR Inten    --      0.2860                 4.1915                20.1097

                     28                     29                     30
                      A                      A                      A
 Frequencies --   1166.3266              1189.3639              1213.7583
 Red. masses --      1.1231                 1.5937                 1.7255
 Frc consts  --      0.9001                 1.3282                 1.4977
 IR Inten    --      1.6586                 5.7315                 3.1559

                     31                     32                     33
                      A                      A                      A
 Frequencies --   1239.2114              1269.1680              1291.6493
 Red. masses --      1.1936                 1.5080                 1.4591
 Frc consts  --      1.0800                 1.4311                 1.4343
 IR Inten    --     46.6778                 0.9582                 1.8497

                     34                     35                     36
                      A                      A                      A
 Frequencies --   1313.2269              1341.8878              1350.8066
 Red. masses --      1.2661                 1.4619                 1.7937
 Frc consts  --      1.2865                 1.5510                 1.9284
 IR Inten    --      1.0557                12.3678                22.5623

                     37                     38                     39
                      A                      A                      A
 Frequencies --   1365.6896              1393.3140              1428.3608
 Red. masses --      1.4948                 1.8322                 1.4825
 Frc consts  --      1.6427                 2.0957                 1.7820
 IR Inten    --     15.2923                 0.0542                10.4484

                     40                     41                     42
                      A                      A                      A
 Frequencies --   1491.6008              1525.5284              2979.4759
 Red. masses --      1.2530                 1.0999                 1.0839
 Frc consts  --      1.6425                 1.5082                 5.6689
 IR Inten    --      4.3045                 0.8254                38.6977

                     43                     44                     45
                      A                      A                      A
 Frequencies --   3000.8363              3033.0985              3041.9963
 Red. masses --      1.0560                 1.0862                 1.1096
 Frc consts  --      5.6025                 5.8874                 6.0498
 IR Inten    --    100.9417                43.7783                47.3798

                     46                     47                     48
                      A                      A                      A
 Frequencies --   3103.2732              3135.9091              3174.3372
 Red. masses --      1.0883                 1.0540                 1.0886
 Frc consts  --      6.1750                 6.1069                 6.4631
 IR Inten    --     28.0076                11.1614                11.3520

                     49                     50                     51
                      A                      A                      A
 Frequencies --   3183.2079              3220.9208              3814.4458
 Red. masses --      1.0945                 1.1156                 1.0662
 Frc consts  --      6.5345                 6.8191                 9.1399
 IR Inten    --     11.5527                 9.1977                15.7709

 - Thermochemistry -
 -------------------
 Temperature   298.150 Kelvin.  Pressure   1.00000 Atm.
 Atom     1 has atomic number  8 and mass  15.99491

 Molecular mass:   126.06808 amu.
 Principal axes and moments of inertia in atomic units:
                           1         2         3
     Eigenvalues --   671.701121046.165041473.32438
           X            0.99717  -0.07514  -0.00294
           Y            0.07512   0.99716  -0.00565
           Z            0.00336   0.00541   0.99998
 This molecule is an asymmetric top.
 Rotational symmetry number  1.
 Warning -- assumption of classical behavior for rotation
           may cause significant error
 Rotational temperatures (Kelvin)      0.12895     0.08279     0.05879
 Rotational constants (GHZ):           2.68682     1.72510     1.22494
 Zero-point vibrational energy     423057.2 (Joules/Mol)
                                  101.11310 (Kcal/Mol)
 Warning -- explicit consideration of   8 degrees of freedom as
           vibrations may cause significant error
 Vibrational temperatures:     94.80   267.03   383.66   414.71   434.86
          (Kelvin)            520.11   633.41   737.64   927.12  1005.40
                             1129.86  1191.83  1217.94  1232.74  1284.73
                             1301.18  1390.38  1425.18  1443.56  1488.35
                             1506.06  1522.69  1531.35  1559.22  1573.97
                             1596.13  1626.67  1678.08  1711.23  1746.33
                             1782.95  1826.05  1858.39  1889.44  1930.67
                             1943.51  1964.92  2004.67  2055.09  2146.08
                             2194.89  4286.80  4317.53  4363.95  4376.75
                             4464.91  4511.87  4567.16  4579.92  4634.18
                             5488.13

 Zero-point correction=                           0.161134 (Hartree/Particle)
 Thermal correction to Energy=                    0.168634
 Thermal correction to Enthalpy=                  0.169578
 Thermal correction to Gibbs Free Energy=         0.129008
 Sum of electronic and zero-point Energies=           -422.998075
 Sum of electronic and thermal Energies=              -422.990575
 Sum of electronic and thermal Enthalpies=            -422.989631
 Sum of electronic and thermal Free Energies=         -423.030201

                     E (Thermal)             CV                S
                      KCal/Mol        Cal/Mol-Kelvin    Cal/Mol-Kelvin
 Total                  105.819             29.821             85.387
 Electronic               0.000              0.000              0.000
 Translational            0.889              2.981             40.409
 Rotational               0.889              2.981             28.428
 Vibrational            104.042             23.860             16.550
 Vibration     1          0.597              1.971              4.273
 Vibration     2          0.632              1.860              2.271
 Vibration     3          0.672              1.734              1.618
 Vibration     4          0.685              1.696              1.484
 Vibration     5          0.694              1.669              1.404
 Vibration     6          0.736              1.552              1.116
 Vibration     7          0.800              1.382              0.826
 Vibration     8          0.868              1.222              0.627

 Normal termination of Gaussian 09 at Mon Jan 27 23:52:30 2020.
