 Gaussian 09, Revision D.01,
 Gaussian 09:  ES64L-G09RevD.01 24-Apr-2013

 -----------------------------
 # b3lyp 6-31G(2df,p) opt Freq
 -----------------------------

 -----
 titel
 -----
 Symbolic Z-matrix:
 Charge =  0 Multiplicity = 1

 SCF Done:  E(RB3LYP) =  -423.134765541     A.U. after   13 cycles
 Optimization completed.
    -- Stationary point found.
 Normal termination of Gaussian 09 at Tue Jan 28 13:31:46 2020.

 ----------------------------------------------------------------------
 #N Geom=AllCheck Guess=TCheck SCRF=Check GenChk RB3LYP/6-31G(2df,p) Fr
 eq
 ----------------------------------------------------------------------

 Structure from the checkpoint file:  "/scratch/puck/g09_5c21d3d7-952d-4b79-97ab-ab3caf0331aa/Gau-32463.chk"
 -----
 titel
 -----
 Charge =  0 Multiplicity = 1

                         Standard orientation:
 ---------------------------------------------------------------------
 Center     Atomic      Atomic             Coordinates (Angstroms)
 Number     Number       Type             X           Y           Z
 ---------------------------------------------------------------------
      1          6           0       -2.746126   -0.655590   -0.542023
      2          8           0       -1.382349   -0.757451   -0.197090
      3          6           0       -0.958596    0.215476    0.708876
      4          6           0       -0.617424    1.618357    0.039179
      5          6           0        0.782920    1.060631   -0.087994
      6          6           0        1.635056    0.586968   -0.987729
      7          6           0        2.170622   -0.737029   -0.465726
      8          8           0        1.351355   -1.072404    0.672838
      9          6           0        0.592023    0.061395    1.003360
     10          1           0       -3.394314   -0.741689    0.343881
     11          1           0       -2.978783    0.293847   -1.046903
     12          1           0       -2.967319   -1.479601   -1.224334
     13          1           0       -1.618858    0.260493    1.587748
     14          1           0       -1.142709    1.873329   -0.883030
     15          1           0       -0.719693    2.438047    0.756647
     16          1           0        1.818094    0.935964   -1.996072
     17          1           0        2.067884   -1.525762   -1.223344
     18          1           0        3.227889   -0.708732   -0.158294
     19          1           0        0.804923    0.391695    2.030065
 ---------------------------------------------------------------------

 SCF Done:  E(RB3LYP) =  -423.134765541     A.U. after    1 cycles

 The electronic state is 1-A.
 Alpha  occ. eigenvalues --  -19.14423 -19.13175 -10.23972 -10.22692 -10.22640
 Alpha  occ. eigenvalues --  -10.22401 -10.19680 -10.18378 -10.18082  -1.04423
 Alpha  occ. eigenvalues --   -1.02507  -0.84240  -0.75910  -0.69619  -0.67670
 Alpha  occ. eigenvalues --   -0.62356  -0.57415  -0.54006  -0.50060  -0.48792
 Alpha  occ. eigenvalues --   -0.46441  -0.45553  -0.43496  -0.42428  -0.41954
 Alpha  occ. eigenvalues --   -0.40359  -0.36299  -0.35729  -0.33769  -0.31568
 Alpha  occ. eigenvalues --   -0.30267  -0.26588  -0.24735  -0.22385
 Alpha virt. eigenvalues --    0.00961   0.08905   0.09772   0.11742   0.12545
 Alpha virt. eigenvalues --    0.14329   0.14432   0.15554   0.16196   0.16890
 Alpha virt. eigenvalues --    0.17359   0.17506   0.18895   0.19278   0.21179

 Mulliken charges:
               1
     1  C   -0.234248
     2  O   -0.226811
     3  C    0.077851
     4  C   -0.358099
     5  C    0.217785
     6  C   -0.224598
     7  C   -0.101594
     8  O   -0.273108
     9  C    0.088602
    10  H    0.107034
    11  H    0.105389
    12  H    0.130804
    13  H    0.063729
    14  H    0.117809
    15  H    0.113099
    16  H    0.102233
    17  H    0.114461
    18  H    0.102488
    19  H    0.077173
 Sum of Mulliken charges =   0.00000

 Dipole moment (field-independent basis, Debye):
    X=             -1.2486    Y=              1.6505    Z=             -0.6365  Tot=              2.1652
 Quadrupole moment (field-independent basis, Debye-Ang):
   XX=            -48.3273   YY=            -55.4337   ZZ=            -50.7255
   XY=             -0.1664   XZ=             -1.8578   YZ=              2.0533

  Exact polarizability:  92.298  -6.618  69.837  -9.064   3.719  74.631
 Approx polarizability: 122.108 -13.099 105.646 -18.756   7.788 117.497

                      1                      2                      3
                      A                      A                      A
 Frequencies --     76.7124               113.0512               169.3773
 Red. masses --      3.2369                 2.3953                 2.3505
 Frc consts  --      0.0112                 0.0180                 0.0397
 IR Inten    --      2.0712                 3.2501                 0.3105

                      4                      5                      6
                      A                      A                      A
 Frequencies --    196.6697               230.1699               307.9401
 Red. masses --      2.1170                 1.8352                 2.9088
 Frc consts  --      0.0482                 0.0573                 0.1625
 IR Inten    --      3.2210                 2.8636                 1.0514

                      7                      8                      9
                      A                      A                      A
 Frequencies --    349.2991               422.1907               544.5368
 Red. masses --      2.6450                 2.7146                 4.1647
 Frc consts  --      0.1901                 0.2851                 0.7276
 IR Inten    --      1.0390                 1.2611                 5.5929

                     10                     11                     12
                      A                      A                      A
 Frequencies --    671.0364               735.3446               757.0721
 Red. masses --      4.6772                 3.5503                 2.4565
 Frc consts  --      1.2409                 1.1311                 0.8296
 IR Inten    --      2.4556                 3.4405                 6.8303

                     13                     14                     15
                      A                      A                      A
 Frequencies --    786.3812               817.6990               853.4014
 Red. masses --      3.8894                 1.5975                 2.8075
 Frc consts  --      1.4171                 0.6293                 1.2047
 IR Inten    --      9.6871                27.6584                 3.8933

                     16                     17                     18
                      A                      A                      A
 Frequencies --    919.3451               950.5485               960.3391
 Red. masses --      2.2675                 3.2850                 2.4642
 Frc consts  --      1.1291                 1.7488                 1.3390
 IR Inten    --      2.2661                 6.5224                 2.1103

                     19                     20                     21
                      A                      A                      A
 Frequencies --    979.1005              1027.6494              1028.3569
 Red. masses --      3.3623                 2.1153                 1.8083
 Frc consts  --      1.8990                 1.3162                 1.1267
 IR Inten    --     32.1522                11.4463                 9.5103

                     22                     23                     24
                      A                      A                      A
 Frequencies --   1094.0671              1112.5464              1135.4290
 Red. masses --      2.2072                 2.4267                 3.2487
 Frc consts  --      1.5566                 1.7697                 2.4676
 IR Inten    --     33.7496                59.6326                66.4067

                     25                     26                     27
                      A                      A                      A
 Frequencies --   1154.6704              1182.4911              1184.2916
 Red. masses --      1.4886                 1.6925                 1.4054
 Frc consts  --      1.1694                 1.3943                 1.1613
 IR Inten    --      7.9719                33.7048                16.7013

                     28                     29                     30
                      A                      A                      A
 Frequencies --   1192.9639              1225.6368              1245.7805
 Red. masses --      1.0885                 1.8306                 1.5808
 Frc consts  --      0.9127                 1.6202                 1.4455
 IR Inten    --      2.8001                44.2609                22.2490

                     31                     32                     33
                      A                      A                      A
 Frequencies --   1251.5288              1303.1185              1345.3403
 Red. masses --      1.5104                 1.7256                 1.3917
 Frc consts  --      1.3939                 1.7265                 1.4840
 IR Inten    --      5.8378                 2.0425                 2.5172

                     34                     35                     36
                      A                      A                      A
 Frequencies --   1370.5531              1386.3012              1468.2036
 Red. masses --      1.3039                 1.4582                 1.1211
 Frc consts  --      1.4430                 1.6512                 1.4239
 IR Inten    --     53.7883                16.0582                 2.8058

                     37                     38                     39
                      A                      A                      A
 Frequencies --   1482.4945              1488.2578              1508.5836
 Red. masses --      1.1337                 1.0644                 1.0611
 Frc consts  --      1.4681                 1.3890                 1.4229
 IR Inten    --      1.4915                 4.2744                 6.3915

                     40                     41                     42
                      A                      A                      A
 Frequencies --   1514.3131              1730.2516              2975.6328
 Red. masses --      1.0897                 8.2737                 1.0444
 Frc consts  --      1.4723                14.5938                 5.4486
 IR Inten    --      1.3625                 3.6741                69.0451

                     43                     44                     45
                      A                      A                      A
 Frequencies --   2977.7511              2986.6740              3002.5534
 Red. masses --      1.0646                 1.0787                 1.0844
 Frc consts  --      5.5619                 5.6693                 5.7598
 IR Inten    --     60.8695                59.2537               101.8207

                     46                     47                     48
                      A                      A                      A
 Frequencies --   3024.4480              3024.9628              3059.6983
 Red. masses --      1.0948                 1.1026                 1.0610
 Frc consts  --      5.9004                 5.9443                 5.8520
 IR Inten    --     35.9865                49.4532                42.3370

                     49                     50                     51
                      A                      A                      A
 Frequencies --   3117.5872              3122.1956              3214.2688
 Red. masses --      1.0965                 1.1048                 1.0958
 Frc consts  --      6.2791                 6.3451                 6.6704
 IR Inten    --     28.9616                14.4244                 6.6489

 - Thermochemistry -
 -------------------
 Temperature   298.150 Kelvin.  Pressure   1.00000 Atm.
 Atom     1 has atomic number  6 and mass  12.00000

 Molecular mass:   126.06808 amu.
 Principal axes and moments of inertia in atomic units:
                           1         2         3
     Eigenvalues --   590.780161352.186931513.99088
           X            0.99995  -0.00785  -0.00609
           Y            0.00820   0.99816   0.06013
           Z            0.00560  -0.06018   0.99817
 This molecule is an asymmetric top.
 Rotational symmetry number  1.
 Warning -- assumption of classical behavior for rotation
           may cause significant error
 Rotational temperatures (Kelvin)      0.14661     0.06405     0.05721
 Rotational constants (GHZ):           3.05484     1.33468     1.19204
 Zero-point vibrational energy     417370.0 (Joules/Mol)
                                   99.75382 (Kcal/Mol)
 Warning -- explicit consideration of   9 degrees of freedom as
           vibrations may cause significant error
 Vibrational temperatures:    110.37   162.66   243.70   282.96   331.16
          (Kelvin)            443.06   502.56   607.44   783.47   965.47
                             1058.00  1089.26  1131.43  1176.49  1227.85
                             1322.73  1367.63  1381.71  1408.71  1478.56
                             1479.57  1574.12  1600.70  1633.63  1661.31
                             1701.34  1703.93  1716.41  1763.42  1792.40
                             1800.67  1874.89  1935.64  1971.92  1994.58
                             2112.41  2132.98  2141.27  2170.51  2178.76
                             2489.44  4281.27  4284.31  4297.15  4320.00
                             4351.50  4352.24  4402.22  4485.51  4492.14
                             4624.61

 Zero-point correction=                           0.158968 (Hartree/Particle)
 Thermal correction to Energy=                    0.167266
 Thermal correction to Enthalpy=                  0.168210
 Thermal correction to Gibbs Free Energy=         0.125771
 Sum of electronic and zero-point Energies=           -422.975798
 Sum of electronic and thermal Energies=              -422.967499
 Sum of electronic and thermal Enthalpies=            -422.966555
 Sum of electronic and thermal Free Energies=         -423.008994

                     E (Thermal)             CV                S
                      KCal/Mol        Cal/Mol-Kelvin    Cal/Mol-Kelvin
 Total                  104.961             31.000             89.321
 Electronic               0.000              0.000              0.000
 Translational            0.889              2.981             40.409
 Rotational               0.889              2.981             28.583
 Vibrational            103.184             25.038             20.330
 Vibration     1          0.599              1.965              3.973
 Vibration     2          0.607              1.939              3.216
 Vibration     3          0.625              1.880              2.442
 Vibration     4          0.636              1.845              2.164
 Vibration     5          0.652              1.795              1.878
 Vibration     6          0.698              1.659              1.373
 Vibration     7          0.727              1.577              1.169
 Vibration     8          0.785              1.422              0.885
 Vibration     9          0.900              1.152              0.556

 Optimization completed.
    -- Stationary point found.
 Normal termination of Gaussian 09 at Tue Jan 28 14:13:46 2020.
