 Gaussian 09, Revision D.01,
 Gaussian 09:  ES64L-G09RevD.01 24-Apr-2013

 -----------------------------
 # b3lyp 6-31G(2df,p) opt Freq
 -----------------------------

 -----
 titel
 -----
 Symbolic Z-matrix:
 Charge =  0 Multiplicity = 1

 SCF Done:  E(RB3LYP) =  -423.213481519     A.U. after   14 cycles
 Optimization completed.
    -- Stationary point found.
 Normal termination of Gaussian 09 at Mon Jan 27 11:12:47 2020.

 ----------------------------------------------------------------------
 #N Geom=AllCheck Guess=TCheck SCRF=Check GenChk RB3LYP/6-31G(2df,p) Fr
 eq
 ----------------------------------------------------------------------

 Structure from the checkpoint file:  "/scratch/puck/g09_19d95a19-be8b-45cf-97a1-3f72940d40d4/Gau-69653.chk"
 -----
 titel
 -----
 Charge =  0 Multiplicity = 1

                         Standard orientation:
 ---------------------------------------------------------------------
 Center     Atomic      Atomic             Coordinates (Angstroms)
 Number     Number       Type             X           Y           Z
 ---------------------------------------------------------------------
      1          6           0        0.798854    2.198402    0.092001
      2          6           0        1.138774    0.741136    0.033740
      3          6           0        2.344175    0.192885   -0.271970
      4          8           0        2.295809   -1.164906   -0.211827
      5          6           0        1.025572   -1.489445    0.143065
      6          6           0        0.261867   -0.376202    0.310638
      7          6           0       -1.192085   -0.325459    0.674665
      8          6           0       -2.111812   -0.136495   -0.544199
      9          8           0       -3.485452   -0.130403   -0.196132
     10          1           0        1.681539    2.815278   -0.098072
     11          1           0        0.039251    2.472714   -0.649347
     12          1           0        0.403986    2.480985    1.075140
     13          1           0        3.298581    0.617912   -0.537932
     14          1           0        0.820409   -2.542992    0.245292
     15          1           0       -1.490846   -1.246388    1.186347
     16          1           0       -1.372006    0.497526    1.380743
     17          1           0       -1.830169    0.776276   -1.092421
     18          1           0       -1.979441   -0.976596   -1.233331
     19          1           0       -3.646233    0.638821    0.359620
 ---------------------------------------------------------------------

 SCF Done:  E(RB3LYP) =  -423.213481519     A.U. after    1 cycles

 The electronic state is 1-A.
 Alpha  occ. eigenvalues --  -19.19717 -19.13434 -10.22697 -10.22102 -10.21986
 Alpha  occ. eigenvalues --  -10.18891 -10.18852 -10.18372 -10.18173  -1.10007
 Alpha  occ. eigenvalues --   -1.01548  -0.81959  -0.76610  -0.72207  -0.69707
 Alpha  occ. eigenvalues --   -0.63157  -0.56563  -0.55661  -0.50745  -0.49761
 Alpha  occ. eigenvalues --   -0.45679  -0.44336  -0.43510  -0.41698  -0.41006
 Alpha  occ. eigenvalues --   -0.40852  -0.39182  -0.37195  -0.36620  -0.34041
 Alpha  occ. eigenvalues --   -0.32292  -0.27575  -0.25060  -0.21770
 Alpha virt. eigenvalues --    0.02274   0.06316   0.07554   0.09732   0.12193
 Alpha virt. eigenvalues --    0.12964   0.13782   0.14163   0.16139   0.17149
 Alpha virt. eigenvalues --    0.17566   0.18386   0.20927   0.22422   0.24223

 Mulliken charges:
               1
     1  C   -0.511775
     2  C    0.161352
     3  C   -0.094797
     4  O   -0.146379
     5  C   -0.099158
     6  C    0.151683
     7  C   -0.341858
     8  C   -0.051617
     9  O   -0.413662
    10  H    0.127319
    11  H    0.129613
    12  H    0.128022
    13  H    0.131734
    14  H    0.133963
    15  H    0.113938
    16  H    0.091798
    17  H    0.091557
    18  H    0.117291
    19  H    0.280975
 Sum of Mulliken charges =   0.00000

 Dipole moment (field-independent basis, Debye):
    X=              0.3368    Y=              1.6294    Z=              0.6806  Tot=              1.7976
 Quadrupole moment (field-independent basis, Debye-Ang):
   XX=            -58.3694   YY=            -49.2337   ZZ=            -54.2237
   XY=             -1.4492   XZ=             -3.4922   YZ=              0.0768

  Exact polarizability:  93.527  -1.284  85.153  -6.955  -0.058  54.167
 Approx polarizability: 134.509  -6.812 131.772 -13.599   1.514  83.758

                      1                      2                      3
                      A                      A                      A
 Frequencies --     52.4586                88.5931               113.3804
 Red. masses --      2.6216                 2.4182                 2.2895
 Frc consts  --      0.0043                 0.0112                 0.0173
 IR Inten    --      1.5254                 2.2808                 1.3091

                      4                      5                      6
                      A                      A                      A
 Frequencies --    135.8177               232.2101               254.6681
 Red. masses --      1.3532                 2.5600                 2.9511
 Frc consts  --      0.0147                 0.0813                 0.1128
 IR Inten    --      0.2326                 2.2601                 0.9828

                      7                      8                      9
                      A                      A                      A
 Frequencies --    291.2332               352.5450               374.2052
 Red. masses --      1.1644                 3.6817                 4.8228
 Frc consts  --      0.0582                 0.2696                 0.3979
 IR Inten    --     81.3805                32.7285                 2.4146

                     10                     11                     12
                      A                      A                      A
 Frequencies --    404.3957               622.0959               636.2428
 Red. masses --      2.8689                 4.1832                 3.6652
 Frc consts  --      0.2764                 0.9538                 0.8742
 IR Inten    --      1.0368                 9.0295                 2.5316

                     13                     14                     15
                      A                      A                      A
 Frequencies --    672.9042               740.4524               762.0307
 Red. masses --      2.6328                 1.7673                 1.8846
 Frc consts  --      0.7024                 0.5709                 0.6448
 IR Inten    --      1.4910                 2.4806                12.4626

                     16                     17                     18
                      A                      A                      A
 Frequencies --    778.6934               790.1581               892.6931
 Red. masses --      1.2677                 1.7790                 4.2381
 Frc consts  --      0.4529                 0.6544                 1.9899
 IR Inten    --     15.6913                14.1643                21.1074

                     19                     20                     21
                      A                      A                      A
 Frequencies --   1008.9058              1013.1519              1041.2414
 Red. masses --      1.8961                 1.8888                 1.9381
 Frc consts  --      1.1371                 1.1423                 1.2380
 IR Inten    --     32.4639                 2.7798                20.9851

                     22                     23                     24
                      A                      A                      A
 Frequencies --   1065.9183              1075.3796              1088.6733
 Red. masses --      1.4852                 4.4922                 2.6864
 Frc consts  --      0.9942                 3.0608                 1.8759
 IR Inten    --      2.3669               103.1903                36.8150

                     25                     26                     27
                      A                      A                      A
 Frequencies --   1141.7779              1182.9991              1192.0398
 Red. masses --      1.4568                 3.5257                 3.6876
 Frc consts  --      1.1189                 2.9071                 3.0873
 IR Inten    --      4.8937                 9.3365                 3.0628

                     28                     29                     30
                      A                      A                      A
 Frequencies --   1258.2563              1286.8348              1311.3801
 Red. masses --      1.2696                 1.3636                 1.3000
 Frc consts  --      1.1843                 1.3304                 1.3171
 IR Inten    --     10.3389                 1.1690                11.7573

                     31                     32                     33
                      A                      A                      A
 Frequencies --   1322.8127              1389.9567              1399.9124
 Red. masses --      1.8104                 1.4690                 2.5453
 Frc consts  --      1.8665                 1.6721                 2.9389
 IR Inten    --      3.8031                10.3343                 3.3421

                     34                     35                     36
                      A                      A                      A
 Frequencies --   1411.5594              1420.9329              1480.4961
 Red. masses --      1.2863                 1.3002                 1.0712
 Frc consts  --      1.5100                 1.5467                 1.3834
 IR Inten    --     44.8074                 1.9443                 1.6175

                     37                     38                     39
                      A                      A                      A
 Frequencies --   1483.1396              1496.6491              1509.9544
 Red. masses --      1.0670                 1.0866                 1.0895
 Frc consts  --      1.3828                 1.4340                 1.4636
 IR Inten    --      7.7110                 4.3722                 1.5596

                     40                     41                     42
                      A                      A                      A
 Frequencies --   1581.7809              1651.7128              2981.3283
 Red. masses --      5.1184                 6.3312                 1.0703
 Frc consts  --      7.5454                10.1766                 5.6052
 IR Inten    --      7.3483                 0.4588                50.1210

                     43                     44                     45
                      A                      A                      A
 Frequencies --   3007.9019              3024.4921              3068.7154
 Red. masses --      1.0665                 1.0379                 1.0889
 Frc consts  --      5.6853                 5.5941                 6.0415
 IR Inten    --     28.1895                31.5765                13.4742

                     46                     47                     48
                      A                      A                      A
 Frequencies --   3072.0973              3087.3785              3108.8853
 Red. masses --      1.0998                 1.0983                 1.0987
 Frc consts  --      6.1153                 6.1682                 6.2564
 IR Inten    --     20.5688                39.1822                18.2344

                     49                     50                     51
                      A                      A                      A
 Frequencies --   3266.5748              3271.8390              3815.3557
 Red. masses --      1.0951                 1.1005                 1.0661
 Frc consts  --      6.8846                 6.9411                 9.1437
 IR Inten    --      1.4532                 0.2260                16.4052

 - Thermochemistry -
 -------------------
 Temperature   298.150 Kelvin.  Pressure   1.00000 Atm.
 Atom     1 has atomic number  6 and mass  12.00000

 Molecular mass:   126.06808 amu.
 Principal axes and moments of inertia in atomic units:
                           1         2         3
     Eigenvalues --   601.614671828.966732281.30037
           X            0.99989   0.01429  -0.00400
           Y           -0.01430   0.99989  -0.00287
           Z            0.00396   0.00293   0.99999
 This molecule is an asymmetric top.
 Rotational symmetry number  1.
 Warning -- assumption of classical behavior for rotation
           may cause significant error
 Rotational temperatures (Kelvin)      0.14397     0.04736     0.03797
 Rotational constants (GHZ):           2.99983     0.98675     0.79110
 Zero-point vibrational energy     416987.2 (Joules/Mol)
                                   99.66233 (Kcal/Mol)
 Warning -- explicit consideration of  10 degrees of freedom as
           vibrations may cause significant error
 Vibrational temperatures:     75.48   127.47   163.13   195.41   334.10
          (Kelvin)            366.41   419.02   507.23   538.40   581.83
                              895.06   915.41   968.16  1065.34  1096.39
                             1120.36  1136.86  1284.38  1451.59  1457.70
                             1498.11  1533.62  1547.23  1566.36  1642.76
                             1702.07  1715.08  1810.35  1851.47  1886.78
                             1903.23  1999.84  2014.16  2030.92  2044.40
                             2130.10  2133.90  2153.34  2172.48  2275.83
                             2376.44  4289.46  4327.69  4351.56  4415.19
                             4420.06  4442.04  4472.99  4699.87  4707.44
                             5489.44

 Zero-point correction=                           0.158822 (Hartree/Particle)
 Thermal correction to Energy=                    0.168205
 Thermal correction to Enthalpy=                  0.169149
 Thermal correction to Gibbs Free Energy=         0.123787
 Sum of electronic and zero-point Energies=           -423.054659
 Sum of electronic and thermal Energies=              -423.045277
 Sum of electronic and thermal Enthalpies=            -423.044332
 Sum of electronic and thermal Free Energies=         -423.089695

                     E (Thermal)             CV                S
                      KCal/Mol        Cal/Mol-Kelvin    Cal/Mol-Kelvin
 Total                  105.550             33.768             95.473
 Electronic               0.000              0.000              0.000
 Translational            0.889              2.981             40.409
 Rotational               0.889              2.981             29.308
 Vibrational            103.773             27.806             25.757
 Vibration     1          0.596              1.977              4.722
 Vibration     2          0.601              1.957              3.691
 Vibration     3          0.607              1.938              3.210
 Vibration     4          0.614              1.918              2.862
 Vibration     5          0.653              1.792              1.862
 Vibration     6          0.665              1.755              1.698
 Vibration     7          0.687              1.690              1.467
 Vibration     8          0.729              1.570              1.155
 Vibration     9          0.745              1.525              1.063
 Vibration    10          0.770              1.461              0.947

 Optimization completed.
    -- Stationary point found.
 Normal termination of Gaussian 09 at Mon Jan 27 11:49:11 2020.
