 Gaussian 09, Revision D.01,
 Gaussian 09:  ES64L-G09RevD.01 24-Apr-2013

 -----------------------------
 # b3lyp 6-31G(2df,p) opt Freq
 -----------------------------

 -----
 titel
 -----
 Symbolic Z-matrix:
 Charge =  0 Multiplicity = 1

 SCF Done:  E(RB3LYP) =  -423.160126202     A.U. after   14 cycles
 Optimization completed.
    -- Stationary point found.
 Normal termination of Gaussian 09 at Tue Jan 28 12:16:01 2020.

 ----------------------------------------------------------------------
 #N Geom=AllCheck Guess=TCheck SCRF=Check GenChk RB3LYP/6-31G(2df,p) Fr
 eq
 ----------------------------------------------------------------------

 Structure from the checkpoint file:  "/scratch/puck/g09_6a88db43-99bf-43f2-8789-899d26505b22/Gau-7527.chk"
 -----
 titel
 -----
 Charge =  0 Multiplicity = 1

                         Standard orientation:
 ---------------------------------------------------------------------
 Center     Atomic      Atomic             Coordinates (Angstroms)
 Number     Number       Type             X           Y           Z
 ---------------------------------------------------------------------
      1          6           0        3.701123    0.139238   -0.410355
      2          6           0        2.440984   -0.378557    0.287486
      3          6           0        1.170444    0.327401   -0.195196
      4          6           0       -0.098741   -0.205210    0.471119
      5          8           0       -0.276191   -1.551778    0.081636
      6          6           0       -1.309393    0.681125    0.131567
      7          8           0       -1.259865    1.890130    0.155328
      8          6           0       -2.546907   -0.024527   -0.176664
      9          6           0       -3.583079   -0.598283   -0.396902
     10          1           0        3.839948    1.212310   -0.237425
     11          1           0        4.595853   -0.375594   -0.046925
     12          1           0        3.645514   -0.015668   -1.493572
     13          1           0        2.336059   -1.455653    0.120493
     14          1           0        2.538368   -0.241796    1.372962
     15          1           0        1.224483    1.402662    0.001255
     16          1           0        1.061392    0.201898   -1.279935
     17          1           0        0.017311   -0.122586    1.568246
     18          1           0       -1.112514   -1.872372    0.436822
     19          1           0       -4.504558   -1.087132   -0.603961
 ---------------------------------------------------------------------

 SCF Done:  E(RB3LYP) =  -423.160126202     A.U. after    1 cycles

 The electronic state is 1-A.
 Alpha  occ. eigenvalues --  -19.14924 -19.14774 -10.29620 -10.24738 -10.21803
 Alpha  occ. eigenvalues --  -10.21071 -10.18284 -10.17825 -10.17127  -1.06093
 Alpha  occ. eigenvalues --   -1.03155  -0.79701  -0.78599  -0.73543  -0.67608
 Alpha  occ. eigenvalues --   -0.61949  -0.57947  -0.55043  -0.53601  -0.48822
 Alpha  occ. eigenvalues --   -0.46072  -0.44933  -0.43289  -0.40445  -0.39344
 Alpha  occ. eigenvalues --   -0.37877  -0.36382  -0.34261  -0.33538  -0.32478
 Alpha  occ. eigenvalues --   -0.30964  -0.30434  -0.29634  -0.25758
 Alpha virt. eigenvalues --   -0.06789   0.02298   0.08028   0.09804   0.10217
 Alpha virt. eigenvalues --    0.10431   0.12616   0.14252   0.15319   0.17126
 Alpha virt. eigenvalues --    0.17545   0.18388   0.19405   0.20844   0.22932

 Mulliken charges:
               1
     1  C   -0.383775
     2  C   -0.176735
     3  C   -0.159970
     4  C    0.001289
     5  O   -0.429420
     6  C    0.207276
     7  O   -0.284767
     8  C    0.242850
     9  C   -0.403626
    10  H    0.114877
    11  H    0.112216
    12  H    0.116146
    13  H    0.117600
    14  H    0.091693
    15  H    0.122029
    16  H    0.106075
    17  H    0.099932
    18  H    0.285412
    19  H    0.220898
 Sum of Mulliken charges =   0.00000

 Dipole moment (field-independent basis, Debye):
    X=             -1.1701    Y=             -2.0336    Z=              0.5801  Tot=              2.4169
 Quadrupole moment (field-independent basis, Debye-Ang):
   XX=            -43.8489   YY=            -58.7126   ZZ=            -52.3943
   XY=              8.0457   XZ=              0.8025   YZ=             -0.8978

  Exact polarizability: 108.218  11.528  73.545   4.737   1.674  58.200
 Approx polarizability: 138.427  26.341 125.892   9.736   6.349  89.221

                      1                      2                      3
                      A                      A                      A
 Frequencies --     18.2315                83.4007                86.9689
 Red. masses --      4.8660                 1.9257                 2.7986
 Frc consts  --      0.0010                 0.0079                 0.0125
 IR Inten    --      1.5398                 0.1554                 0.3157

                      4                      5                      6
                      A                      A                      A
 Frequencies --    128.8811               161.7462               232.5370
 Red. masses --      3.3894                 3.9880                 4.3831
 Frc consts  --      0.0332                 0.0615                 0.1396
 IR Inten    --      1.5723                 2.6700                 2.4775

                      7                      8                      9
                      A                      A                      A
 Frequencies --    245.7911               256.6453               273.3190
 Red. masses --      1.1150                 1.1675                 5.1271
 Frc consts  --      0.0397                 0.0453                 0.2257
 IR Inten    --     15.8262               112.8896                25.8552

                     10                     11                     12
                      A                      A                      A
 Frequencies --    339.0319               353.5053               446.7842
 Red. masses --      3.0553                 5.3493                 2.9581
 Frc consts  --      0.2069                 0.3939                 0.3479
 IR Inten    --      1.2794                 3.8245                 6.8963

                     13                     14                     15
                      A                      A                      A
 Frequencies --    490.0167               627.0758               654.2609
 Red. masses --      7.1315                 4.6530                 1.2923
 Frc consts  --      1.0089                 1.0780                 0.3259
 IR Inten    --      1.1530                18.7608                34.0695

                     16                     17                     18
                      A                      A                      A
 Frequencies --    690.6714               714.2324               749.6507
 Red. masses --      4.7654                 1.2804                 1.1690
 Frc consts  --      1.3393                 0.3848                 0.3871
 IR Inten    --      9.3651                31.6027                 0.6866

                     19                     20                     21
                      A                      A                      A
 Frequencies --    811.7280               860.6505               916.3599
 Red. masses --      5.3954                 1.4473                 1.8069
 Frc consts  --      2.0946                 0.6316                 0.8939
 IR Inten    --     26.4748                 4.3017                 0.9468

                     22                     23                     24
                      A                      A                      A
 Frequencies --    973.8799              1046.9199              1086.9566
 Red. masses --      2.1412                 2.6683                 2.1194
 Frc consts  --      1.1965                 1.7231                 1.4754
 IR Inten    --      0.1348                11.4173                47.9128

                     25                     26                     27
                      A                      A                      A
 Frequencies --   1111.7775              1138.4586              1168.1694
 Red. masses --      1.8639                 4.4892                 2.6109
 Frc consts  --      1.3574                 3.4281                 2.0992
 IR Inten    --      0.0878               167.4168                42.0835

                     28                     29                     30
                      A                      A                      A
 Frequencies --   1238.0276              1280.4657              1308.4687
 Red. masses --      1.3827                 1.2712                 1.2105
 Frc consts  --      1.2486                 1.2280                 1.2211
 IR Inten    --     10.1989                 0.5578                29.4676

                     31                     32                     33
                      A                      A                      A
 Frequencies --   1329.2036              1348.2813              1385.9483
 Red. masses --      1.1338                 1.3322                 1.4351
 Frc consts  --      1.1803                 1.4268                 1.6241
 IR Inten    --      2.3041                21.9448                 2.0481

                     34                     35                     36
                      A                      A                      A
 Frequencies --   1408.3315              1416.2096              1476.7997
 Red. masses --      1.5094                 1.3227                 1.0814
 Frc consts  --      1.7639                 1.5630                 1.3895
 IR Inten    --      4.9942                 3.2165                 1.2657

                     37                     38                     39
                      A                      A                      A
 Frequencies --   1494.0904              1499.9598              1510.6939
 Red. masses --      1.0545                 1.0401                 1.0835
 Frc consts  --      1.3870                 1.3787                 1.4569
 IR Inten    --      0.5910                 5.4949                 3.2543

                     40                     41                     42
                      A                      A                      A
 Frequencies --   1769.5601              2202.1966              2929.1839
 Red. masses --     13.0714                 5.9151                 1.0792
 Frc consts  --     24.1158                16.9014                 5.4555
 IR Inten    --    130.2504                67.1477                31.3386

                     43                     44                     45
                      A                      A                      A
 Frequencies --   3017.9121              3029.4621              3037.1326
 Red. masses --      1.0666                 1.0370                 1.0620
 Frc consts  --      5.7235                 5.6074                 5.7716
 IR Inten    --     12.8100                22.7116                38.5369

                     46                     47                     48
                      A                      A                      A
 Frequencies --   3067.7976              3092.1287              3102.3106
 Red. masses --      1.0929                 1.0999                 1.1016
 Frc consts  --      6.0602                 6.1962                 6.2465
 IR Inten    --      0.9693                 2.7643                41.9692

                     49                     50                     51
                      A                      A                      A
 Frequencies --   3104.6214              3490.2522              3804.4285
 Red. masses --      1.1004                 1.1615                 1.0659
 Frc consts  --      6.2494                 8.3363                 9.0893
 IR Inten    --     49.6915                57.1488                24.8595

 - Thermochemistry -
 -------------------
 Temperature   298.150 Kelvin.  Pressure   1.00000 Atm.
 Atom     1 has atomic number  6 and mass  12.00000

 Molecular mass:   126.06808 amu.
 Principal axes and moments of inertia in atomic units:
                           1         2         3
     Eigenvalues --   491.745832264.238542627.53516
           X            0.99988   0.01495  -0.00335
           Y           -0.01499   0.99980  -0.01350
           Z            0.00315   0.01355   0.99990
 This molecule is an asymmetric top.
 Rotational symmetry number  1.
 Warning -- assumption of classical behavior for rotation
           may cause significant error
 Rotational temperatures (Kelvin)      0.17614     0.03825     0.03296
 Rotational constants (GHZ):           3.67007     0.79706     0.68686
 Zero-point vibrational energy     406796.8 (Joules/Mol)
                                   97.22677 (Kcal/Mol)
 Warning -- explicit consideration of  13 degrees of freedom as
           vibrations may cause significant error
 Vibrational temperatures:     26.23   119.99   125.13   185.43   232.72
          (Kelvin)            334.57   353.64   369.25   393.24   487.79
                              508.61   642.82   705.02   902.22   941.33
                              993.72  1027.62  1078.58  1167.89  1238.28
                             1318.44  1401.19  1506.28  1563.89  1599.60
                             1637.99  1680.73  1781.24  1842.30  1882.59
                             1912.43  1939.87  1994.07  2026.27  2037.61
                             2124.78  2149.66  2158.10  2173.55  2546.00
                             3168.47  4214.44  4342.10  4358.71  4369.75
                             4413.87  4448.88  4463.53  4466.85  5021.69
                             5473.72

 Zero-point correction=                           0.154941 (Hartree/Particle)
 Thermal correction to Energy=                    0.165719
 Thermal correction to Enthalpy=                  0.166663
 Thermal correction to Gibbs Free Energy=         0.117618
 Sum of electronic and zero-point Energies=           -423.005185
 Sum of electronic and thermal Energies=              -422.994407
 Sum of electronic and thermal Enthalpies=            -422.993463
 Sum of electronic and thermal Free Energies=         -423.042508

                     E (Thermal)             CV                S
                      KCal/Mol        Cal/Mol-Kelvin    Cal/Mol-Kelvin
 Total                  103.990             37.637            103.223
 Electronic               0.000              0.000              0.000
 Translational            0.889              2.981             40.409
 Rotational               0.889              2.981             29.460
 Vibrational            102.213             31.675             33.354
 Vibration     1          0.593              1.986              6.818
 Vibration     2          0.600              1.961              3.809
 Vibration     3          0.601              1.958              3.727
 Vibration     4          0.611              1.924              2.963
 Vibration     5          0.622              1.889              2.529
 Vibration     6          0.653              1.791              1.859
 Vibration     7          0.660              1.770              1.761
 Vibration     8          0.666              1.752              1.684
 Vibration     9          0.676              1.723              1.575
 Vibration    10          0.719              1.598              1.217
 Vibration    11          0.730              1.568              1.151
 Vibration    12          0.806              1.368              0.806
 Vibration    13          0.846              1.272              0.684

 Optimization completed.
    -- Stationary point found.
 Normal termination of Gaussian 09 at Tue Jan 28 13:42:44 2020.
