 Gaussian 09, Revision D.01,
 Gaussian 09:  ES64L-G09RevD.01 24-Apr-2013

 -----------------------------
 # b3lyp 6-31G(2df,p) opt Freq
 -----------------------------

 -----
 titel
 -----
 Symbolic Z-matrix:
 Charge =  0 Multiplicity = 1

 SCF Done:  E(RB3LYP) =  -423.117613684     A.U. after   13 cycles
 Optimization completed.
    -- Stationary point found.
 Normal termination of Gaussian 09 at Tue Jan 28 03:15:06 2020.

 ----------------------------------------------------------------------
 #N Geom=AllCheck Guess=TCheck SCRF=Check GenChk RB3LYP/6-31G(2df,p) Fr
 eq
 ----------------------------------------------------------------------

 Structure from the checkpoint file:  "/scratch/puck/g09_a95a7f78-a53f-4622-923a-c0fb9d97b6fd/Gau-46355.chk"
 -----
 titel
 -----
 Charge =  0 Multiplicity = 1

                         Standard orientation:
 ---------------------------------------------------------------------
 Center     Atomic      Atomic             Coordinates (Angstroms)
 Number     Number       Type             X           Y           Z
 ---------------------------------------------------------------------
      1          6           0       -1.327917    1.879602    0.459069
      2          6           0       -0.797472    0.750257   -0.398906
      3          8           0       -1.841761   -0.160553   -0.867565
      4          6           0       -1.091306   -1.283682   -0.414935
      5          6           0       -0.932590   -1.267354    1.070340
      6          6           0       -0.010600   -0.421068    0.207889
      7          6           0        1.463073   -0.556385    0.214478
      8          6           0        2.368830    0.586600    0.406665
      9          8           0        2.176164    0.017128   -0.889316
     10          1           0       -0.515034    2.555570    0.745571
     11          1           0       -2.065082    2.460298   -0.104481
     12          1           0       -1.809164    1.507703    1.367410
     13          1           0       -0.256368    1.139826   -1.269104
     14          1           0       -1.046792   -2.161343   -1.049388
     15          1           0       -1.696397   -0.812839    1.694162
     16          1           0       -0.455553   -2.145006    1.497755
     17          1           0        1.829943   -1.539950    0.513308
     18          1           0        1.954553    1.584525    0.544378
     19          1           0        3.352556    0.430797    0.847842
 ---------------------------------------------------------------------

 SCF Done:  E(RB3LYP) =  -423.117613684     A.U. after    1 cycles

 The electronic state is 1-A.
 Alpha  occ. eigenvalues --  -19.15380 -19.13606 -10.24679 -10.24065 -10.23903
 Alpha  occ. eigenvalues --  -10.23779 -10.20457 -10.19537 -10.18012  -1.07377
 Alpha  occ. eigenvalues --   -1.05031  -0.84107  -0.75794  -0.69348  -0.65937
 Alpha  occ. eigenvalues --   -0.62937  -0.59950  -0.53783  -0.52765  -0.50632
 Alpha  occ. eigenvalues --   -0.47540  -0.44271  -0.43266  -0.42660  -0.40543
 Alpha  occ. eigenvalues --   -0.39674  -0.38156  -0.36477  -0.34374  -0.33314
 Alpha  occ. eigenvalues --   -0.31813  -0.27344  -0.26375  -0.23357
 Alpha virt. eigenvalues --    0.07015   0.09257   0.09392   0.10375   0.10782
 Alpha virt. eigenvalues --    0.12026   0.12307   0.14438   0.16145   0.16447
 Alpha virt. eigenvalues --    0.16977   0.18082   0.19529   0.19981   0.22277

 Mulliken charges:
               1
     1  C   -0.413007
     2  C    0.086465
     3  O   -0.306705
     4  C    0.059492
     5  C   -0.372293
     6  C    0.273873
     7  C   -0.043643
     8  C   -0.188229
     9  O   -0.235469
    10  H    0.118711
    11  H    0.132636
    12  H    0.120808
    13  H    0.100947
    14  H    0.109685
    15  H    0.117865
    16  H    0.116773
    17  H    0.090781
    18  H    0.114186
    19  H    0.117125
 Sum of Mulliken charges =   0.00000

 Dipole moment (field-independent basis, Debye):
    X=              0.8419    Y=             -0.0655    Z=              2.2884  Tot=              2.4392
 Quadrupole moment (field-independent basis, Debye-Ang):
   XX=            -57.3663   YY=            -47.9898   ZZ=            -55.3282
   XY=             -0.2095   XZ=              1.9162   YZ=             -0.0496

  Exact polarizability:  80.953   3.444  80.732   1.383  -1.106  64.279
 Approx polarizability: 111.866   8.452 114.391   2.488  -1.759 104.112

                      1                      2                      3
                      A                      A                      A
 Frequencies --     63.1641               140.7029               167.6168
 Red. masses --      3.4921                 2.9494                 3.7509
 Frc consts  --      0.0082                 0.0344                 0.0621
 IR Inten    --      2.4840                 0.1245                 3.3172

                      4                      5                      6
                      A                      A                      A
 Frequencies --    211.9157               221.8377               300.9660
 Red. masses --      1.2340                 2.4750                 2.6104
 Frc consts  --      0.0327                 0.0718                 0.1393
 IR Inten    --      0.4821                 1.3565                 2.1497

                      7                      8                      9
                      A                      A                      A
 Frequencies --    387.1120               448.5484               470.2475
 Red. masses --      3.6235                 2.6336                 3.1673
 Frc consts  --      0.3199                 0.3122                 0.4127
 IR Inten    --      1.7313                 2.0357                 8.9329

                     10                     11                     12
                      A                      A                      A
 Frequencies --    563.5557               642.2963               710.9087
 Red. masses --      3.2131                 2.5594                 3.3318
 Frc consts  --      0.6012                 0.6221                 0.9921
 IR Inten    --      6.2831                 2.4617                 4.4752

                     13                     14                     15
                      A                      A                      A
 Frequencies --    833.8425               840.8203               857.2748
 Red. masses --      3.1491                 3.5267                 2.1175
 Frc consts  --      1.2900                 1.4690                 0.9169
 IR Inten    --     21.4305                 5.0692                20.2609

                     16                     17                     18
                      A                      A                      A
 Frequencies --    870.6315               916.8102               935.8516
 Red. masses --      2.7161                 2.3008                 2.3354
 Frc consts  --      1.2130                 1.1394                 1.2051
 IR Inten    --     13.4108                16.4894                30.3350

                     19                     20                     21
                      A                      A                      A
 Frequencies --    998.4758              1009.1932              1017.9001
 Red. masses --      1.4160                 1.4596                 1.9475
 Frc consts  --      0.8318                 0.8759                 1.1889
 IR Inten    --      2.2207                 9.6493                14.6023

                     22                     23                     24
                      A                      A                      A
 Frequencies --   1047.5137              1082.4757              1088.8222
 Red. masses --      1.8878                 1.7138                 1.6821
 Frc consts  --      1.2205                 1.1831                 1.1749
 IR Inten    --     37.7319                17.0258                19.6353

                     25                     26                     27
                      A                      A                      A
 Frequencies --   1097.3784              1128.2518              1139.7931
 Red. masses --      1.2634                 2.5953                 2.4351
 Frc consts  --      0.8964                 1.9465                 1.8639
 IR Inten    --      1.8270                12.1946                 4.9785

                     28                     29                     30
                      A                      A                      A
 Frequencies --   1154.9067              1168.9342              1232.4378
 Red. masses --      1.3994                 1.3501                 1.8541
 Frc consts  --      1.0998                 1.0869                 1.6593
 IR Inten    --      0.3145                 1.7136                 9.7215

                     31                     32                     33
                      A                      A                      A
 Frequencies --   1253.2655              1276.4590              1316.5663
 Red. masses --      1.8496                 1.6895                 1.9669
 Frc consts  --      1.7117                 1.6219                 2.0087
 IR Inten    --      3.4952                 1.4092                11.4335

                     34                     35                     36
                      A                      A                      A
 Frequencies --   1370.0001              1392.3042              1410.6058
 Red. masses --      1.5068                 1.3991                 1.3927
 Frc consts  --      1.6663                 1.5980                 1.6327
 IR Inten    --      5.7630                 4.7740                21.3907

                     37                     38                     39
                      A                      A                      A
 Frequencies --   1452.2025              1483.3797              1486.6340
 Red. masses --      1.4568                 1.0660                 1.3595
 Frc consts  --      1.8101                 1.3820                 1.7702
 IR Inten    --     17.7245                 4.6688                 7.6446

                     40                     41                     42
                      A                      A                      A
 Frequencies --   1497.3795              1529.7023              3037.9522
 Red. masses --      1.2717                 1.4520                 1.0420
 Frc consts  --      1.6800                 2.0018                 5.6660
 IR Inten    --      3.3974                 7.2746                13.2983

                     43                     44                     45
                      A                      A                      A
 Frequencies --   3043.1543              3080.4999              3092.7571
 Red. masses --      1.0785                 1.0501                 1.0874
 Frc consts  --      5.8845                 5.8713                 6.1284
 IR Inten    --     19.2165                27.5088                20.3789

                     46                     47                     48
                      A                      A                      A
 Frequencies --   3106.2770              3116.6977              3122.2082
 Red. masses --      1.1001                 1.0578                 1.0968
 Frc consts  --      6.2542                 6.0538                 6.2993
 IR Inten    --     20.4144                 3.5928                32.2462

                     49                     50                     51
                      A                      A                      A
 Frequencies --   3166.7960              3181.5582              3205.5979
 Red. masses --      1.1194                 1.0948                 1.1153
 Frc consts  --      6.6145                 6.5294                 6.7521
 IR Inten    --     29.6147                17.3442                11.4028

 - Thermochemistry -
 -------------------
 Temperature   298.150 Kelvin.  Pressure   1.00000 Atm.
 Atom     1 has atomic number  6 and mass  12.00000

 Molecular mass:   126.06808 amu.
 Principal axes and moments of inertia in atomic units:
                           1         2         3
     Eigenvalues --   676.045301309.647421561.12658
           X            0.99985  -0.01728   0.00009
           Y            0.01728   0.99983   0.00694
           Z           -0.00021  -0.00694   0.99998
 This molecule is an asymmetric top.
 Rotational symmetry number  1.
 Warning -- assumption of classical behavior for rotation
           may cause significant error
 Rotational temperatures (Kelvin)      0.12812     0.06614     0.05548
 Rotational constants (GHZ):           2.66956     1.37804     1.15605
 Zero-point vibrational energy     414937.8 (Joules/Mol)
                                   99.17251 (Kcal/Mol)
 Warning -- explicit consideration of  10 degrees of freedom as
           vibrations may cause significant error
 Vibrational temperatures:     90.88   202.44   241.16   304.90   319.17
          (Kelvin)            433.02   556.97   645.36   676.58   810.83
                              924.12  1022.84  1199.71  1209.75  1233.43
                             1252.64  1319.08  1346.48  1436.58  1452.00
                             1464.53  1507.14  1557.44  1566.57  1578.88
                             1623.30  1639.91  1661.65  1681.83  1773.20
                             1803.17  1836.54  1894.24  1971.12  2003.21
                             2029.54  2089.39  2134.25  2138.93  2154.39
                             2200.90  4370.93  4378.41  4432.15  4449.78
                             4469.23  4484.23  4492.16  4556.31  4577.55
                             4612.13

 Zero-point correction=                           0.158041 (Hartree/Particle)
 Thermal correction to Energy=                    0.166461
 Thermal correction to Enthalpy=                  0.167405
 Thermal correction to Gibbs Free Energy=         0.124746
 Sum of electronic and zero-point Energies=           -422.959572
 Sum of electronic and thermal Energies=              -422.951152
 Sum of electronic and thermal Enthalpies=            -422.950208
 Sum of electronic and thermal Free Energies=         -422.992867

                     E (Thermal)             CV                S
                      KCal/Mol        Cal/Mol-Kelvin    Cal/Mol-Kelvin
 Total                  104.456             31.928             89.783
 Electronic               0.000              0.000              0.000
 Translational            0.889              2.981             40.409
 Rotational               0.889              2.981             28.715
 Vibrational            102.679             25.966             20.660
 Vibration     1          0.597              1.972              4.356
 Vibration     2          0.615              1.913              2.794
 Vibration     3          0.624              1.882              2.462
 Vibration     4          0.643              1.823              2.027
 Vibration     5          0.648              1.808              1.944
 Vibration     6          0.693              1.672              1.412
 Vibration     7          0.756              1.498              1.011
 Vibration     8          0.808              1.364              0.800
 Vibration     9          0.827              1.316              0.737
 Vibration    10          0.919              1.110              0.517

 Normal termination of Gaussian 09 at Tue Jan 28 05:10:40 2020.
