 Gaussian 09, Revision D.01,
 Gaussian 09:  ES64L-G09RevD.01 24-Apr-2013

 -----------------------------
 # b3lyp 6-31G(2df,p) opt Freq
 -----------------------------

 -----
 titel
 -----
 Symbolic Z-matrix:
 Charge =  0 Multiplicity = 1

 SCF Done:  E(RB3LYP) =  -423.111744351     A.U. after   14 cycles
 Optimization completed.
    -- Stationary point found.
 Normal termination of Gaussian 09 at Mon Jan 27 12:18:56 2020.

 ----------------------------------------------------------------------
 #N Geom=AllCheck Guess=TCheck SCRF=Check GenChk RB3LYP/6-31G(2df,p) Fr
 eq
 ----------------------------------------------------------------------

 Structure from the checkpoint file:  "/scratch/puck/g09_3b144196-2c93-4f3a-96b4-914a8b46b117/Gau-45296.chk"
 -----
 titel
 -----
 Charge =  0 Multiplicity = 1

                         Standard orientation:
 ---------------------------------------------------------------------
 Center     Atomic      Atomic             Coordinates (Angstroms)
 Number     Number       Type             X           Y           Z
 ---------------------------------------------------------------------
      1          6           0       -0.282431   -1.352172   -0.792960
      2          8           0       -1.604230   -1.260838   -0.225521
      3          6           0       -1.158161   -0.349154    0.797575
      4          6           0       -1.504070    1.117018    0.372680
      5          6           0       -0.408657    1.594322   -0.660318
      6          6           0        0.760625    0.915522    0.028589
      7          8           0        2.084355    0.428131   -0.352460
      8          6           0        1.838637   -0.692600    0.563673
      9          6           0        0.322409   -0.486516    0.332672
     10          1           0        0.083093   -2.387334   -0.775590
     11          1           0       -0.227063   -0.975642   -1.821554
     12          1           0       -1.528845   -0.621505    1.789284
     13          1           0       -2.512634    1.148135   -0.045515
     14          1           0       -1.483660    1.773396    1.250021
     15          1           0       -0.609482    1.203716   -1.660439
     16          1           0       -0.353378    2.683488   -0.716731
     17          1           0        0.899176    1.448073    0.987942
     18          1           0        2.276116   -1.623043    0.191745
     19          1           0        2.205578   -0.466151    1.573224
 ---------------------------------------------------------------------

 SCF Done:  E(RB3LYP) =  -423.111744351     A.U. after    1 cycles

 The electronic state is 1-A.
 Alpha  occ. eigenvalues --  -19.14163 -19.13343 -10.24374 -10.24333 -10.23185
 Alpha  occ. eigenvalues --  -10.22978 -10.19710 -10.19416 -10.19346  -1.04824
 Alpha  occ. eigenvalues --   -1.03293  -0.82457  -0.74630  -0.70441  -0.66257
 Alpha  occ. eigenvalues --   -0.65051  -0.58465  -0.53852  -0.51142  -0.49726
 Alpha  occ. eigenvalues --   -0.47071  -0.46161  -0.43227  -0.42159  -0.39290
 Alpha  occ. eigenvalues --   -0.38417  -0.37433  -0.35453  -0.35214  -0.33164
 Alpha  occ. eigenvalues --   -0.30806  -0.27473  -0.25230  -0.24834
 Alpha virt. eigenvalues --    0.06308   0.08086   0.08362   0.10681   0.11074
 Alpha virt. eigenvalues --    0.12124   0.13456   0.15039   0.15717   0.16881
 Alpha virt. eigenvalues --    0.17768   0.17886   0.19193   0.19997   0.20951

 Mulliken charges:
               1
     1  C   -0.108689
     2  O   -0.289611
     3  C   -0.007906
     4  C   -0.219095
     5  C   -0.314911
     6  C    0.185885
     7  O   -0.321534
     8  C   -0.223503
     9  C    0.262682
    10  H    0.100600
    11  H    0.109793
    12  H    0.081402
    13  H    0.120546
    14  H    0.105865
    15  H    0.122038
    16  H    0.105112
    17  H    0.070773
    18  H    0.113922
    19  H    0.106631
 Sum of Mulliken charges =   0.00000

 Dipole moment (field-independent basis, Debye):
    X=             -0.1660    Y=              0.4066    Z=              1.1853  Tot=              1.2641
 Quadrupole moment (field-independent basis, Debye-Ang):
   XX=            -59.6896   YY=            -52.0995   ZZ=            -51.2661
   XY=             -5.9060   XZ=              1.2155   YZ=              0.4052

  Exact polarizability:  78.883  -7.041  77.050   0.414   2.143  67.937
 Approx polarizability: 114.416  -5.923 109.754  -1.956   3.701 105.488

                      1                      2                      3
                      A                      A                      A
 Frequencies --    145.1383               232.6843               278.5567
 Red. masses --      3.3074                 3.9627                 2.4156
 Frc consts  --      0.0410                 0.1264                 0.1104
 IR Inten    --      3.6141                 6.6499                 1.0566

                      4                      5                      6
                      A                      A                      A
 Frequencies --    315.9310               400.6569               421.8773
 Red. masses --      2.4472                 2.2542                 2.7547
 Frc consts  --      0.1439                 0.2132                 0.2889
 IR Inten    --      0.4361                 2.3865                 4.7531

                      7                      8                      9
                      A                      A                      A
 Frequencies --    535.0045               547.4424               616.4099
 Red. masses --      2.8962                 5.1063                 2.5759
 Frc consts  --      0.4884                 0.9016                 0.5767
 IR Inten    --      1.2096                 4.7051                 0.4447

                     10                     11                     12
                      A                      A                      A
 Frequencies --    740.0162               791.4468               849.4486
 Red. masses --      3.7697                 2.5797                 2.2181
 Frc consts  --      1.2163                 0.9521                 0.9430
 IR Inten    --      5.9389                 2.1634                 2.8606

                     13                     14                     15
                      A                      A                      A
 Frequencies --    872.9497               884.7580               900.9477
 Red. masses --      2.7028                 2.5622                 3.3721
 Frc consts  --      1.2135                 1.1817                 1.6127
 IR Inten    --     17.1962                25.1822                19.1274

                     16                     17                     18
                      A                      A                      A
 Frequencies --    929.5330               933.4349               981.6266
 Red. masses --      2.6779                 2.0841                 2.8808
 Frc consts  --      1.3632                 1.0699                 1.6355
 IR Inten    --     20.5256                 1.6009                24.3191

                     19                     20                     21
                      A                      A                      A
 Frequencies --   1003.6921              1022.4169              1031.0495
 Red. masses --      2.2266                 4.2557                 1.8629
 Frc consts  --      1.3216                 2.6211                 1.1668
 IR Inten    --      5.0324                74.9978                 5.3278

                     22                     23                     24
                      A                      A                      A
 Frequencies --   1084.1211              1114.9782              1124.8579
 Red. masses --      2.4859                 2.0092                 1.5005
 Frc consts  --      1.7215                 1.4716                 1.1186
 IR Inten    --      8.5260                14.8116                 2.8460

                     25                     26                     27
                      A                      A                      A
 Frequencies --   1154.4200              1158.3472              1180.7159
 Red. masses --      1.3213                 1.3925                 1.7751
 Frc consts  --      1.0374                 1.1008                 1.4580
 IR Inten    --     15.1270                13.3050                 4.5877

                     28                     29                     30
                      A                      A                      A
 Frequencies --   1184.4354              1251.7875              1263.3382
 Red. masses --      1.8135                 1.6390                 1.6992
 Frc consts  --      1.4989                 1.5132                 1.5979
 IR Inten    --      5.1260                 0.1709                 1.7909

                     31                     32                     33
                      A                      A                      A
 Frequencies --   1273.5593              1288.3033              1300.5282
 Red. masses --      1.3565                 1.3979                 1.4310
 Frc consts  --      1.2963                 1.3670                 1.4261
 IR Inten    --      1.9675                 3.4864                 4.7742

                     34                     35                     36
                      A                      A                      A
 Frequencies --   1326.8219              1350.0653              1364.6458
 Red. masses --      1.3870                 2.1049                 1.5462
 Frc consts  --      1.4387                 2.2604                 1.6966
 IR Inten    --      1.6671                 3.3930                 2.6273

                     37                     38                     39
                      A                      A                      A
 Frequencies --   1451.3818              1471.0501              1498.7228
 Red. masses --      1.1398                 1.1028                 1.1040
 Frc consts  --      1.4147                 1.4060                 1.4610
 IR Inten    --      4.5589                 6.5126                 3.1702

                     40                     41                     42
                      A                      A                      A
 Frequencies --   1509.8595              1529.4621              2921.2520
 Red. masses --      1.1355                 1.0973                 1.0808
 Frc consts  --      1.5252                 1.5123                 5.4342
 IR Inten    --      1.4302                 1.3219                45.6750

                     43                     44                     45
                      A                      A                      A
 Frequencies --   3008.6101              3017.7731              3045.7802
 Red. masses --      1.0565                 1.0601                 1.0662
 Frc consts  --      5.6343                 5.6881                 5.8278
 IR Inten    --     58.9454                65.3810                16.6673

                     46                     47                     48
                      A                      A                      A
 Frequencies --   3053.1408              3075.4513              3078.5815
 Red. masses --      1.1077                 1.0604                 1.0867
 Frc consts  --      6.0835                 5.9094                 6.0682
 IR Inten    --     30.7357                44.4605                40.7250

                     49                     50                     51
                      A                      A                      A
 Frequencies --   3098.7783              3113.1076              3126.7939
 Red. masses --      1.1062                 1.0997                 1.1066
 Frc consts  --      6.2585                 6.2794                 6.3745
 IR Inten    --     31.7929                 8.8270                30.1254

 - Thermochemistry -
 -------------------
 Temperature   298.150 Kelvin.  Pressure   1.00000 Atm.
 Atom     1 has atomic number  6 and mass  12.00000

 Molecular mass:   126.06808 amu.
 Principal axes and moments of inertia in atomic units:
                           1         2         3
     Eigenvalues --   663.05872 980.831881318.50960
           X            0.99405  -0.10848   0.00988
           Y            0.10837   0.99405   0.01104
           Z           -0.01102  -0.00990   0.99989
 This molecule is an asymmetric top.
 Rotational symmetry number  1.
 Warning -- assumption of classical behavior for rotation
           may cause significant error
 Rotational temperatures (Kelvin)      0.13063     0.08831     0.06569
 Rotational constants (GHZ):           2.72184     1.84001     1.36877
 Zero-point vibrational energy     423811.1 (Joules/Mol)
                                  101.29330 (Kcal/Mol)
 Warning -- explicit consideration of   9 degrees of freedom as
           vibrations may cause significant error
 Vibrational temperatures:    208.82   334.78   400.78   454.55   576.46
          (Kelvin)            606.99   769.75   787.65   886.88  1064.72
                             1138.71  1222.17  1255.98  1272.97  1296.26
                             1337.39  1343.00  1412.34  1444.09  1471.03
                             1483.45  1559.81  1604.20  1618.42  1660.95
                             1666.60  1698.78  1704.14  1801.04  1817.66
                             1832.37  1853.58  1871.17  1909.00  1942.44
                             1963.42  2088.21  2116.51  2156.33  2172.35
                             2200.55  4203.02  4328.71  4341.90  4382.19
                             4392.78  4424.88  4429.39  4458.45  4479.06
                             4498.75

 Zero-point correction=                           0.161421 (Hartree/Particle)
 Thermal correction to Energy=                    0.168321
 Thermal correction to Enthalpy=                  0.169265
 Thermal correction to Gibbs Free Energy=         0.130372
 Sum of electronic and zero-point Energies=           -422.950323
 Sum of electronic and thermal Energies=              -422.943423
 Sum of electronic and thermal Enthalpies=            -422.942479
 Sum of electronic and thermal Free Energies=         -422.981372

                     E (Thermal)             CV                S
                      KCal/Mol        Cal/Mol-Kelvin    Cal/Mol-Kelvin
 Total                  105.623             28.455             81.857
 Electronic               0.000              0.000              0.000
 Translational            0.889              2.981             40.409
 Rotational               0.889              2.981             28.241
 Vibrational            103.845             22.494             13.207
 Vibration     1          0.617              1.908              2.735
 Vibration     2          0.653              1.791              1.858
 Vibration     3          0.679              1.713              1.543
 Vibration     4          0.703              1.643              1.331
 Vibration     5          0.766              1.469              0.960
 Vibration     6          0.784              1.423              0.886
 Vibration     7          0.890              1.173              0.576
 Vibration     8          0.903              1.145              0.549
 Vibration     9          0.976              0.997              0.422

 Optimization completed.
    -- Stationary point found.
 Normal termination of Gaussian 09 at Mon Jan 27 13:06:18 2020.
