 Gaussian 09, Revision D.01,
 Gaussian 09:  ES64L-G09RevD.01 24-Apr-2013

 -----------------------------
 # b3lyp 6-31G(2df,p) opt Freq
 -----------------------------

 -----
 titel
 -----
 Symbolic Z-matrix:
 Charge =  0 Multiplicity = 1

 SCF Done:  E(RB3LYP) =  -423.076324037     A.U. after   14 cycles
 Optimization completed.
    -- Stationary point found.
 Normal termination of Gaussian 09 at Tue Jan 28 14:10:52 2020.

 ----------------------------------------------------------------------
 #N Geom=AllCheck Guess=TCheck SCRF=Check GenChk RB3LYP/6-31G(2df,p) Fr
 eq
 ----------------------------------------------------------------------

 Structure from the checkpoint file:  "/scratch/puck/g09_df6c06df-6e83-45f0-9975-2249c72e4de6/Gau-144538.chk"
 -----
 titel
 -----
 Charge =  0 Multiplicity = 1

                         Standard orientation:
 ---------------------------------------------------------------------
 Center     Atomic      Atomic             Coordinates (Angstroms)
 Number     Number       Type             X           Y           Z
 ---------------------------------------------------------------------
      1          8           0        3.652465   -0.438599   -0.194398
      2          6           0        2.452114   -0.110301    0.485540
      3          6           0        1.339596    0.359221   -0.455885
      4          6           0        0.038189    0.672583    0.272912
      5          6           0       -1.253323    0.873650   -0.554055
      6          6           0       -1.511871   -0.663885   -0.675294
      7          8           0       -2.886233   -0.595276   -0.193929
      8          6           0       -2.157300    0.374660    0.614819
      9          6           0       -0.868587   -0.495012    0.740137
     10          1           0        3.969551    0.358110   -0.631712
     11          1           0        2.145862   -1.027889    0.999703
     12          1           0        2.627171    0.650176    1.264694
     13          1           0        1.681525    1.259852   -0.987260
     14          1           0        1.180655   -0.411282   -1.220014
     15          1           0        0.198028    1.441898    1.039144
     16          1           0       -1.502106    1.637209   -1.291676
     17          1           0       -1.279727   -1.359693   -1.480081
     18          1           0       -2.695899    0.940875    1.374163
     19          1           0       -0.687815   -1.283755    1.470605
 ---------------------------------------------------------------------

 SCF Done:  E(RB3LYP) =  -423.076324037     A.U. after    1 cycles

 The electronic state is 1-A.
 Alpha  occ. eigenvalues --  -19.13500 -19.12862 -10.24980 -10.24971 -10.22843
 Alpha  occ. eigenvalues --  -10.20357 -10.20352 -10.20135 -10.18567  -1.06201
 Alpha  occ. eigenvalues --   -1.01612  -0.87295  -0.76307  -0.65731  -0.65575
 Alpha  occ. eigenvalues --   -0.64598  -0.59500  -0.52907  -0.51254  -0.50583
 Alpha  occ. eigenvalues --   -0.47061  -0.45214  -0.44716  -0.41775  -0.40178
 Alpha  occ. eigenvalues --   -0.37582  -0.36789  -0.33920  -0.31564  -0.31018
 Alpha  occ. eigenvalues --   -0.30724  -0.30414  -0.26594  -0.23304
 Alpha virt. eigenvalues --    0.07152   0.07481   0.10234   0.10808   0.11677
 Alpha virt. eigenvalues --    0.12234   0.12742   0.13412   0.14535   0.15793
 Alpha virt. eigenvalues --    0.17482   0.18214   0.19417   0.19757   0.20686

 Mulliken charges:
               1
     1  O   -0.417191
     2  C   -0.051691
     3  C   -0.237878
     4  C   -0.035695
     5  C   -0.111625
     6  C    0.090404
     7  O   -0.328903
     8  C    0.085134
     9  C   -0.095236
    10  H    0.280172
    11  H    0.114564
    12  H    0.085313
    13  H    0.086514
    14  H    0.104829
    15  H    0.068710
    16  H    0.082115
    17  H    0.099545
    18  H    0.096304
    19  H    0.084615
 Sum of Mulliken charges =   0.00000

 Dipole moment (field-independent basis, Debye):
    X=              1.0834    Y=              2.0884    Z=              0.1441  Tot=              2.3571
 Quadrupole moment (field-independent basis, Debye-Ang):
   XX=            -64.6903   YY=            -52.1600   ZZ=            -50.7789
   XY=              2.6738   XZ=             -2.7514   YZ=             -0.2433

  Exact polarizability:  87.395   0.857  68.424  -1.828   0.092  68.939
 Approx polarizability: 113.940   1.838 108.665  -2.662   1.211 107.175

                      1                      2                      3
                      A                      A                      A
 Frequencies --     71.8362                95.5150               125.9463
 Red. masses --      4.2628                 2.0022                 4.1018
 Frc consts  --      0.0130                 0.0108                 0.0383
 IR Inten    --      1.8571                 2.1998                 1.9568

                      4                      5                      6
                      A                      A                      A
 Frequencies --    232.1128               292.0646               344.6229
 Red. masses --      2.9422                 1.1817                 3.9116
 Frc consts  --      0.0934                 0.0594                 0.2737
 IR Inten    --      2.7112                89.3140                 3.3995

                      7                      8                      9
                      A                      A                      A
 Frequencies --    357.2578               550.2151               578.4096
 Red. masses --      4.1835                 3.9430                 2.8864
 Frc consts  --      0.3146                 0.7033                 0.5690
 IR Inten    --     24.4045                 4.9783                 3.4261

                     10                     11                     12
                      A                      A                      A
 Frequencies --    742.7174               750.5893               795.5658
 Red. masses --      2.3015                 3.2120                 1.8348
 Frc consts  --      0.7480                 1.0662                 0.6842
 IR Inten    --      1.4362                 0.6260                 1.6132

                     13                     14                     15
                      A                      A                      A
 Frequencies --    797.9870               833.7458               853.5968
 Red. masses --      2.4778                 1.8381                 2.0087
 Frc consts  --      0.9296                 0.7528                 0.8623
 IR Inten    --      8.9555                 5.1794                 9.3426

                     16                     17                     18
                      A                      A                      A
 Frequencies --    886.9604               899.3332               933.4684
 Red. masses --      3.2408                 2.2993                 2.4331
 Frc consts  --      1.5022                 1.0957                 1.2491
 IR Inten    --     13.8586                24.7769                25.0856

                     19                     20                     21
                      A                      A                      A
 Frequencies --    967.4058              1028.3069              1031.6310
 Red. masses --      1.2900                 3.1379                 2.7800
 Frc consts  --      0.7113                 1.9549                 1.7432
 IR Inten    --      1.2314                 7.8979                27.2336

                     22                     23                     24
                      A                      A                      A
 Frequencies --   1056.2612              1080.0949              1102.9936
 Red. masses --      1.7769                 4.3437                 1.4576
 Frc consts  --      1.1680                 2.9856                 1.0448
 IR Inten    --      6.3095                97.2549                 0.1949

                     25                     26                     27
                      A                      A                      A
 Frequencies --   1107.2987              1134.7344              1150.1762
 Red. masses --      1.9826                 1.5632                 2.3443
 Frc consts  --      1.4323                 1.1859                 1.8272
 IR Inten    --      4.2255                 0.9929                 1.3583

                     28                     29                     30
                      A                      A                      A
 Frequencies --   1158.4637              1173.9290              1180.9533
 Red. masses --      1.7056                 1.5203                 1.4648
 Frc consts  --      1.3487                 1.2344                 1.2036
 IR Inten    --      6.8606                 0.3421                 2.0472

                     31                     32                     33
                      A                      A                      A
 Frequencies --   1186.6803              1238.0573              1279.8621
 Red. masses --      1.7083                 1.5790                 1.6050
 Frc consts  --      1.4173                 1.4260                 1.5490
 IR Inten    --     25.5303                 3.1900                15.1416

                     34                     35                     36
                      A                      A                      A
 Frequencies --   1293.5725              1324.9603              1337.8448
 Red. masses --      1.3768                 1.2366                 1.7980
 Frc consts  --      1.3574                 1.2791                 1.8961
 IR Inten    --      4.4688                 2.9543                11.8705

                     37                     38                     39
                      A                      A                      A
 Frequencies --   1397.0450              1412.3169              1425.3395
 Red. masses --      1.2658                 1.5023                 1.3404
 Frc consts  --      1.4555                 1.7655                 1.6044
 IR Inten    --     10.1790                 0.4997                45.7831

                     40                     41                     42
                      A                      A                      A
 Frequencies --   1482.6836              1512.8306              2967.9151
 Red. masses --      1.0859                 1.0918                 1.0713
 Frc consts  --      1.4065                 1.4722                 5.5598
 IR Inten    --      1.6276                 0.3092                51.0046

                     43                     44                     45
                      A                      A                      A
 Frequencies --   2999.6898              3022.2999              3055.6075
 Red. masses --      1.0663                 1.0827                 1.0889
 Frc consts  --      5.6529                 5.8271                 5.9902
 IR Inten    --     29.1196                31.1478                20.1816

                     46                     47                     48
                      A                      A                      A
 Frequencies --   3075.0320              3111.7098              3116.3568
 Red. masses --      1.0972                 1.0870                 1.0908
 Frc consts  --      6.1128                 6.2010                 6.2416
 IR Inten    --     48.6654                 5.8918                71.4413

                     49                     50                     51
                      A                      A                      A
 Frequencies --   3125.1306              3138.6723              3814.1773
 Red. masses --      1.0906                 1.1014                 1.0661
 Frc consts  --      6.2755                 6.3929                 9.1380
 IR Inten    --     72.9058                 3.4199                16.6875

 - Thermochemistry -
 -------------------
 Temperature   298.150 Kelvin.  Pressure   1.00000 Atm.
 Atom     1 has atomic number  8 and mass  15.99491

 Molecular mass:   126.06808 amu.
 Principal axes and moments of inertia in atomic units:
                           1         2         3
     Eigenvalues --   320.519572274.711102293.65802
           X            1.00000   0.00093  -0.00149
           Y           -0.00103   0.99768  -0.06804
           Z            0.00142   0.06804   0.99768
 This molecule is an asymmetric top.
 Rotational symmetry number  1.
 Rotational temperatures (Kelvin)      0.27023     0.03808     0.03776
 Rotational constants (GHZ):           5.63067     0.79339     0.78684
 Zero-point vibrational energy     416491.7 (Joules/Mol)
                                   99.54391 (Kcal/Mol)
 Warning -- explicit consideration of   9 degrees of freedom as
           vibrations may cause significant error
 Vibrational temperatures:    103.36   137.42   181.21   333.96   420.22
          (Kelvin)            495.83   514.01   791.64   832.20  1068.60
                             1079.93  1144.64  1148.12  1199.57  1228.13
                             1276.14  1293.94  1343.05  1391.88  1479.50
                             1484.29  1519.72  1554.01  1586.96  1593.15
                             1632.63  1654.84  1666.77  1689.02  1699.13
                             1707.37  1781.29  1841.43  1861.16  1906.32
                             1924.86  2010.03  2032.01  2050.74  2133.25
                             2176.62  4270.16  4315.88  4348.41  4396.33
                             4424.28  4477.05  4483.74  4496.36  4515.84
                             5487.74

 Zero-point correction=                           0.158633 (Hartree/Particle)
 Thermal correction to Energy=                    0.166769
 Thermal correction to Enthalpy=                  0.167713
 Thermal correction to Gibbs Free Energy=         0.125247
 Sum of electronic and zero-point Energies=           -422.917691
 Sum of electronic and thermal Energies=              -422.909555
 Sum of electronic and thermal Enthalpies=            -422.908611
 Sum of electronic and thermal Free Energies=         -422.951077

                     E (Thermal)             CV                S
                      KCal/Mol        Cal/Mol-Kelvin    Cal/Mol-Kelvin
 Total                  104.649             30.956             89.378
 Electronic               0.000              0.000              0.000
 Translational            0.889              2.981             40.409
 Rotational               0.889              2.981             28.905
 Vibrational            102.872             24.995             20.065
 Vibration     1          0.598              1.967              4.102
 Vibration     2          0.603              1.952              3.544
 Vibration     3          0.611              1.927              3.007
 Vibration     4          0.653              1.792              1.863
 Vibration     5          0.687              1.689              1.462
 Vibration     6          0.723              1.586              1.191
 Vibration     7          0.732              1.560              1.134
 Vibration     8          0.906              1.139              0.544
 Vibration     9          0.935              1.078              0.488

 Normal termination of Gaussian 09 at Tue Jan 28 14:55:24 2020.
