 Gaussian 09, Revision D.01,
 Gaussian 09:  ES64L-G09RevD.01 24-Apr-2013

 -----------------------------
 # b3lyp 6-31G(2df,p) opt Freq
 -----------------------------

 -----
 titel
 -----
 Symbolic Z-matrix:
 Charge =  0 Multiplicity = 1

 SCF Done:  E(RB3LYP) =  -423.204331174     A.U. after   14 cycles
 Optimization completed.
    -- Stationary point found.
 Normal termination of Gaussian 09 at Tue Jan 28 00:06:04 2020.

 ----------------------------------------------------------------------
 #N Geom=AllCheck Guess=TCheck SCRF=Check GenChk RB3LYP/6-31G(2df,p) Fr
 eq
 ----------------------------------------------------------------------

 Structure from the checkpoint file:  "/scratch/puck/g09_760eeb6c-948b-417a-8b8a-e3f7ac000af0/Gau-21133.chk"
 -----
 titel
 -----
 Charge =  0 Multiplicity = 1

                         Standard orientation:
 ---------------------------------------------------------------------
 Center     Atomic      Atomic             Coordinates (Angstroms)
 Number     Number       Type             X           Y           Z
 ---------------------------------------------------------------------
      1          8           0       -2.118502   -1.398535   -0.080573
      2          6           0       -0.939825   -0.687202   -0.355438
      3          6           0        0.222327   -0.753871    0.694198
      4          6           0        1.574221   -1.245625    0.164664
      5          6           0        2.073816   -0.093551   -0.731302
      6          6           0        1.624762    1.189541   -0.001505
      7          6           0        0.303108    0.823079    0.717639
      8          6           0       -1.001453    0.820931   -0.082665
      9          8           0       -1.907985    1.598772   -0.209811
     10          1           0       -2.846007   -0.766921   -0.144840
     11          1           0       -0.571148   -0.915806   -1.368601
     12          1           0       -0.111825   -1.224442    1.618944
     13          1           0        2.265270   -1.394855    1.002645
     14          1           0        1.496380   -2.198011   -0.369030
     15          1           0        3.154316   -0.121764   -0.895443
     16          1           0        1.603229   -0.152411   -1.719635
     17          1           0        2.363450    1.462018    0.759703
     18          1           0        1.520252    2.050061   -0.668187
     19          1           0        0.196245    1.340422    1.673971
 ---------------------------------------------------------------------

 SCF Done:  E(RB3LYP) =  -423.204331174     A.U. after    1 cycles

 The electronic state is 1-A.
 Alpha  occ. eigenvalues --  -19.14501 -19.14399 -10.26902 -10.23613 -10.19792
 Alpha  occ. eigenvalues --  -10.19649 -10.19605 -10.19053 -10.18943  -1.05520
 Alpha  occ. eigenvalues --   -1.02356  -0.86945  -0.77211  -0.72615  -0.65848
 Alpha  occ. eigenvalues --   -0.60767  -0.56746  -0.53911  -0.51219  -0.48662
 Alpha  occ. eigenvalues --   -0.46860  -0.45884  -0.43851  -0.42336  -0.39559
 Alpha  occ. eigenvalues --   -0.36833  -0.35477  -0.35129  -0.35021  -0.34162
 Alpha  occ. eigenvalues --   -0.33882  -0.32181  -0.27211  -0.24053
 Alpha virt. eigenvalues --   -0.03112   0.07872   0.08315   0.10053   0.12344
 Alpha virt. eigenvalues --    0.13881   0.14462   0.14988   0.15779   0.16816
 Alpha virt. eigenvalues --    0.17993   0.18928   0.19473   0.21222   0.22646

 Mulliken charges:
               1
     1  O   -0.446164
     2  C    0.043335
     3  C   -0.045911
     4  C   -0.221516
     5  C   -0.213239
     6  C   -0.226579
     7  C   -0.148134
     8  C    0.357192
     9  O   -0.317802
    10  H    0.296342
    11  H    0.090024
    12  H    0.088149
    13  H    0.102116
    14  H    0.106928
    15  H    0.102243
    16  H    0.107906
    17  H    0.111078
    18  H    0.114710
    19  H    0.099321
 Sum of Mulliken charges =   0.00000

 Dipole moment (field-independent basis, Debye):
    X=              2.4061    Y=             -0.3016    Z=              0.2487  Tot=              2.4376
 Quadrupole moment (field-independent basis, Debye-Ang):
   XX=            -53.9306   YY=            -59.1468   ZZ=            -51.2751
   XY=              1.6439   XZ=             -0.0883   YZ=              0.8292

  Exact polarizability:  86.787  -1.899  74.863   0.933   0.655  63.235
 Approx polarizability: 120.402  -6.619 112.221   3.413  -0.294  98.140

                      1                      2                      3
                      A                      A                      A
 Frequencies --     27.9906               158.2704               192.0891
 Red. masses --      4.5224                 2.3291                 2.5749
 Frc consts  --      0.0021                 0.0344                 0.0560
 IR Inten    --      6.5372                22.9383                32.7697

                      4                      5                      6
                      A                      A                      A
 Frequencies --    223.0904               229.0086               304.9744
 Red. masses --      3.0006                 1.8533                 2.0505
 Frc consts  --      0.0880                 0.0573                 0.1124
 IR Inten    --      7.3889                19.5308                 1.2580

                      7                      8                      9
                      A                      A                      A
 Frequencies --    357.8668               412.3860               569.2478
 Red. masses --      3.1180                 4.2569                 2.8264
 Frc consts  --      0.2353                 0.4265                 0.5396
 IR Inten    --      5.4168                 6.8980                 1.8767

                     10                     11                     12
                      A                      A                      A
 Frequencies --    592.7400               721.1877               747.1063
 Red. masses --      2.2133                 3.2216                 4.0901
 Frc consts  --      0.4582                 0.9872                 1.3451
 IR Inten    --      1.8268                 1.2074                 3.2013

                     13                     14                     15
                      A                      A                      A
 Frequencies --    790.9325               828.1315               854.1039
 Red. masses --      4.2120                 2.4042                 2.2049
 Frc consts  --      1.5525                 0.9714                 0.9477
 IR Inten    --      3.6670                 5.1771                 6.3015

                     16                     17                     18
                      A                      A                      A
 Frequencies --    855.8041               892.2139               941.0746
 Red. masses --      1.8663                 2.9550                 2.2469
 Frc consts  --      0.8053                 1.3860                 1.1724
 IR Inten    --      5.1221                 9.7407                12.6819

                     19                     20                     21
                      A                      A                      A
 Frequencies --    961.3961              1019.2201              1029.1865
 Red. masses --      1.8297                 2.0105                 1.7303
 Frc consts  --      0.9964                 1.2305                 1.0799
 IR Inten    --      3.4231                19.1950                 6.6145

                     22                     23                     24
                      A                      A                      A
 Frequencies --   1056.9424              1082.0223              1121.6823
 Red. masses --      1.6761                 1.9829                 1.8950
 Frc consts  --      1.1032                 1.3678                 1.4048
 IR Inten    --      7.2511                71.3179                10.1714

                     25                     26                     27
                      A                      A                      A
 Frequencies --   1153.7678              1163.3576              1182.9530
 Red. masses --      1.4367                 1.9065                 1.7034
 Frc consts  --      1.1269                 1.5202                 1.4044
 IR Inten    --     53.1446                 5.7718                12.0495

                     28                     29                     30
                      A                      A                      A
 Frequencies --   1201.4579              1248.9920              1256.4164
 Red. masses --      1.6649                 1.4833                 1.6105
 Frc consts  --      1.4160                 1.3633                 1.4978
 IR Inten    --      3.3506                 8.4058                 1.9272

                     31                     32                     33
                      A                      A                      A
 Frequencies --   1270.5591              1290.9585              1325.6135
 Red. masses --      1.3281                 1.4132                 1.4265
 Frc consts  --      1.2632                 1.3877                 1.4769
 IR Inten    --      0.6570                 0.1808                 0.2077

                     34                     35                     36
                      A                      A                      A
 Frequencies --   1347.2357              1348.7840              1372.0374
 Red. masses --      1.2958                 1.4074                 1.4913
 Frc consts  --      1.3858                 1.5085                 1.6541
 IR Inten    --      2.8030                 1.5798                31.1235

                     37                     38                     39
                      A                      A                      A
 Frequencies --   1375.6166              1484.7260              1492.2834
 Red. masses --      1.3821                 1.0904                 1.0798
 Frc consts  --      1.5409                 1.4162                 1.4168
 IR Inten    --     17.2690                 2.4978                 2.4382

                     40                     41                     42
                      A                      A                      A
 Frequencies --   1509.4412              1866.5470              2972.6795
 Red. masses --      1.0989                12.6448                 1.0812
 Frc consts  --      1.4752                25.9562                 5.6292
 IR Inten    --      2.5547               252.1120                31.8696

                     43                     44                     45
                      A                      A                      A
 Frequencies --   3036.6089              3042.8117              3046.9920
 Red. masses --      1.0643                 1.0666                 1.0619
 Frc consts  --      5.7822                 5.8186                 5.8086
 IR Inten    --     27.2329                21.8934                24.4350

                     46                     47                     48
                      A                      A                      A
 Frequencies --   3083.7449              3086.3190              3091.5320
 Red. masses --      1.0926                 1.0917                 1.0982
 Frc consts  --      6.1216                 6.1267                 6.1843
 IR Inten    --     34.4943                 3.0546                21.4490

                     49                     50                     51
                      A                      A                      A
 Frequencies --   3102.2112              3117.9005              3774.3990
 Red. masses --      1.1041                 1.0881                 1.0662
 Frc consts  --      6.2603                 6.2323                 8.9490
 IR Inten    --     38.6916                16.9903                33.9599

 - Thermochemistry -
 -------------------
 Temperature   298.150 Kelvin.  Pressure   1.00000 Atm.
 Atom     1 has atomic number  8 and mass  15.99491

 Molecular mass:   126.06808 amu.
 Principal axes and moments of inertia in atomic units:
                           1         2         3
     Eigenvalues --   674.825751206.177871635.06408
           X            0.99984   0.01654  -0.00636
           Y           -0.01648   0.99982   0.00938
           Z            0.00651  -0.00927   0.99994
 This molecule is an asymmetric top.
 Rotational symmetry number  1.
 Warning -- assumption of classical behavior for rotation
           may cause significant error
 Rotational temperatures (Kelvin)      0.12835     0.07181     0.05297
 Rotational constants (GHZ):           2.67438     1.49625     1.10377
 Zero-point vibrational energy     419976.7 (Joules/Mol)
                                  100.37683 (Kcal/Mol)
 Warning -- explicit consideration of  10 degrees of freedom as
           vibrations may cause significant error
 Vibrational temperatures:     40.27   227.72   276.37   320.98   329.49
          (Kelvin)            438.79   514.89   593.33   819.02   852.82
                             1037.63  1074.92  1137.97  1191.50  1228.86
                             1231.31  1283.70  1353.99  1383.23  1466.43
                             1480.77  1520.70  1556.79  1613.85  1660.01
                             1673.81  1702.00  1728.63  1797.02  1807.70
                             1828.05  1857.40  1907.26  1938.37  1940.60
                             1974.05  1979.20  2136.19  2147.06  2171.75
                             2685.54  4277.02  4369.00  4377.92  4383.94
                             4436.82  4440.52  4448.02  4463.38  4485.96
                             5430.51

 Zero-point correction=                           0.159961 (Hartree/Particle)
 Thermal correction to Energy=                    0.168282
 Thermal correction to Enthalpy=                  0.169226
 Thermal correction to Gibbs Free Energy=         0.126214
 Sum of electronic and zero-point Energies=           -423.044371
 Sum of electronic and thermal Energies=              -423.036049
 Sum of electronic and thermal Enthalpies=            -423.035105
 Sum of electronic and thermal Free Energies=         -423.078117

                     E (Thermal)             CV                S
                      KCal/Mol        Cal/Mol-Kelvin    Cal/Mol-Kelvin
 Total                  105.599             31.412             90.527
 Electronic               0.000              0.000              0.000
 Translational            0.889              2.981             40.409
 Rotational               0.889              2.981             28.678
 Vibrational            103.821             25.450             21.441
 Vibration     1          0.593              1.984              5.967
 Vibration     2          0.621              1.893              2.570
 Vibration     3          0.634              1.851              2.208
 Vibration     4          0.649              1.806              1.934
 Vibration     5          0.652              1.797              1.887
 Vibration     6          0.696              1.664              1.389
 Vibration     7          0.733              1.559              1.131
 Vibration     8          0.776              1.443              0.918
 Vibration     9          0.925              1.098              0.506
 Vibration    10          0.950              1.047              0.462

 Optimization completed.
    -- Stationary point found.
 Normal termination of Gaussian 09 at Tue Jan 28 00:56:55 2020.
