 Gaussian 09, Revision D.01,
 Gaussian 09:  ES64L-G09RevD.01 24-Apr-2013

 -----------------------------
 # b3lyp 6-31G(2df,p) opt Freq
 -----------------------------

 -----
 titel
 -----
 Symbolic Z-matrix:
 Charge =  0 Multiplicity = 1

 SCF Done:  E(RB3LYP) =  -423.149340730     A.U. after   14 cycles
 Optimization completed.
    -- Stationary point found.
 Normal termination of Gaussian 09 at Mon Jan 27 22:55:53 2020.

 ----------------------------------------------------------------------
 #N Geom=AllCheck Guess=TCheck SCRF=Check GenChk RB3LYP/6-31G(2df,p) Fr
 eq
 ----------------------------------------------------------------------

 Structure from the checkpoint file:  "/scratch/puck/g09_4454d12d-1a55-4b78-b392-4b8d46d42c3f/Gau-65262.chk"
 -----
 titel
 -----
 Charge =  0 Multiplicity = 1

                         Standard orientation:
 ---------------------------------------------------------------------
 Center     Atomic      Atomic             Coordinates (Angstroms)
 Number     Number       Type             X           Y           Z
 ---------------------------------------------------------------------
      1          6           0        3.551555   -0.345099   -0.053237
      2          6           0        2.152021    0.044384   -0.476588
      3          6           0        1.274298    0.718818    0.532024
      4          8           0        0.059945    1.182921   -0.065125
      5          6           0       -0.321369   -0.191546   -0.382874
      6          6           0       -1.561168   -0.606504    0.405014
      7          6           0       -2.770330    0.234031    0.049013
      8          8           0       -3.846424   -0.216378   -0.252164
      9          6           0        1.004387   -0.721801    0.157250
     10          1           0        3.587000   -0.600024    1.011672
     11          1           0        3.906820   -1.216856   -0.612581
     12          1           0        4.256273    0.475325   -0.222784
     13          1           0        2.042511    0.364325   -1.511609
     14          1           0        1.612247    1.199764    1.443380
     15          1           0       -0.486953   -0.312026   -1.461446
     16          1           0       -1.798031   -1.661029    0.230866
     17          1           0       -1.350247   -0.464890    1.473842
     18          1           0       -2.591826    1.329783    0.089194
     19          1           0        1.137677   -1.640411    0.714171
 ---------------------------------------------------------------------

 SCF Done:  E(RB3LYP) =  -423.149340730     A.U. after    1 cycles

 The electronic state is 1-A.
 Alpha  occ. eigenvalues --  -19.14737 -19.13714 -10.26893 -10.25341 -10.24608
 Alpha  occ. eigenvalues --  -10.20347 -10.20298 -10.19731 -10.19098  -1.06069
 Alpha  occ. eigenvalues --   -1.04327  -0.84961  -0.78595  -0.72120  -0.66729
 Alpha  occ. eigenvalues --   -0.59602  -0.57407  -0.54951  -0.51257  -0.49696
 Alpha  occ. eigenvalues --   -0.49060  -0.44361  -0.43156  -0.42586  -0.41920
 Alpha  occ. eigenvalues --   -0.39579  -0.38348  -0.37610  -0.36058  -0.34630
 Alpha  occ. eigenvalues --   -0.32758  -0.28149  -0.25100  -0.23900
 Alpha virt. eigenvalues --   -0.02200   0.07442   0.09514   0.10201   0.11660
 Alpha virt. eigenvalues --    0.12699   0.13252   0.13926   0.14885   0.15070
 Alpha virt. eigenvalues --    0.16162   0.17120   0.18404   0.20242   0.20898

 Mulliken charges:
               1
     1  C   -0.423666
     2  C   -0.045300
     3  C    0.093195
     4  O   -0.305352
     5  C    0.097996
     6  C   -0.293982
     7  C    0.152304
     8  O   -0.240970
     9  C   -0.139924
    10  H    0.117671
    11  H    0.126119
    12  H    0.126701
    13  H    0.093007
    14  H    0.105203
    15  H    0.093305
    16  H    0.119692
    17  H    0.124484
    18  H    0.099683
    19  H    0.099834
 Sum of Mulliken charges =   0.00000

 Dipole moment (field-independent basis, Debye):
    X=              3.5569    Y=             -0.8775    Z=              0.9748  Tot=              3.7910
 Quadrupole moment (field-independent basis, Debye-Ang):
   XX=            -64.4119   YY=            -54.2009   ZZ=            -50.9802
   XY=             -1.5236   XZ=             -1.4811   YZ=              0.3972

  Exact polarizability: 102.727   1.979  67.392   2.066   1.136  62.045
 Approx polarizability: 127.141   6.146 108.154   5.242   3.471  96.614

                      1                      2                      3
                      A                      A                      A
 Frequencies --     52.3446                75.7230               122.1587
 Red. masses --      5.1954                 4.0067                 2.9967
 Frc consts  --      0.0084                 0.0135                 0.0263
 IR Inten    --      4.9941                 2.5927                 2.5518

                      4                      5                      6
                      A                      A                      A
 Frequencies --    191.1533               227.5536               246.4427
 Red. masses --      1.3997                 1.6368                 2.9742
 Frc consts  --      0.0301                 0.0499                 0.1064
 IR Inten    --      0.4604                 0.7098                 2.3579

                      7                      8                      9
                      A                      A                      A
 Frequencies --    282.7810               342.0270               441.9628
 Red. masses --      2.7817                 3.9506                 3.6367
 Frc consts  --      0.1311                 0.2723                 0.4185
 IR Inten    --      2.0758                 0.5071                12.1136

                     10                     11                     12
                      A                      A                      A
 Frequencies --    492.8036               536.8816               779.2211
 Red. masses --      4.4496                 1.9668                 1.8051
 Frc consts  --      0.6367                 0.3340                 0.6458
 IR Inten    --      2.0070                10.9004                10.4100

                     13                     14                     15
                      A                      A                      A
 Frequencies --    796.2537               838.5807               860.0513
 Red. masses --      2.7328                 1.8752                 1.9529
 Frc consts  --      1.0209                 0.7769                 0.8511
 IR Inten    --      5.5837                 5.8832                 3.2668

                     16                     17                     18
                      A                      A                      A
 Frequencies --    871.4375               901.9215               955.3797
 Red. masses --      2.6355                 2.1983                 2.8874
 Frc consts  --      1.1792                 1.0536                 1.5528
 IR Inten    --      9.4539                15.3915                 6.3158

                     19                     20                     21
                      A                      A                      A
 Frequencies --   1016.4149              1020.2716              1035.7154
 Red. masses --      1.6423                 2.1559                 1.5005
 Frc consts  --      0.9996                 1.3222                 0.9483
 IR Inten    --     23.6524                64.9983                31.2042

                     22                     23                     24
                      A                      A                      A
 Frequencies --   1042.9570              1078.5290              1085.2734
 Red. masses --      1.9146                 2.0079                 2.5084
 Frc consts  --      1.2270                 1.3761                 1.7407
 IR Inten    --      8.8831                 0.5722                35.9730

                     25                     26                     27
                      A                      A                      A
 Frequencies --   1105.6792              1131.7137              1148.8201
 Red. masses --      2.3138                 2.0355                 1.8112
 Frc consts  --      1.6666                 1.5360                 1.4084
 IR Inten    --      1.9265                 4.3459                20.3591

                     28                     29                     30
                      A                      A                      A
 Frequencies --   1213.0314              1222.8627              1224.6299
 Red. masses --      1.5080                 1.4042                 1.6291
 Frc consts  --      1.3074                 1.2372                 1.4395
 IR Inten    --      5.7726                 0.1823                 1.0143

                     31                     32                     33
                      A                      A                      A
 Frequencies --   1270.1533              1279.6128              1324.4383
 Red. masses --      1.4401                 1.3725                 1.5321
 Frc consts  --      1.3688                 1.3241                 1.5835
 IR Inten    --      2.2706                 8.0473                 8.7392

                     34                     35                     36
                      A                      A                      A
 Frequencies --   1384.3842              1418.2605              1418.5796
 Red. masses --      1.4694                 1.3766                 1.4753
 Frc consts  --      1.6592                 1.6314                 1.7492
 IR Inten    --     36.9780                 1.5784                 2.0353

                     37                     38                     39
                      A                      A                      A
 Frequencies --   1425.2502              1450.1048              1493.7837
 Red. masses --      1.6027                 1.0962                 1.0466
 Frc consts  --      1.9182                 1.3581                 1.3760
 IR Inten    --      8.1113                 5.0822                 2.5116

                     40                     41                     42
                      A                      A                      A
 Frequencies --   1503.9149              1829.9780              2910.8629
 Red. masses --      1.0747                 9.8307                 1.0836
 Frc consts  --      1.4321                19.3967                 5.4096
 IR Inten    --      5.1862               195.1298                67.7015

                     43                     44                     45
                      A                      A                      A
 Frequencies --   3018.8931              3028.6272              3030.7365
 Red. masses --      1.0736                 1.0719                 1.0354
 Frc consts  --      5.7651                 5.7927                 5.6033
 IR Inten    --     13.6898                33.3986                29.8589

                     46                     47                     48
                      A                      A                      A
 Frequencies --   3093.9561              3095.7568              3099.6538
 Red. masses --      1.0992                 1.0997                 1.1016
 Frc consts  --      6.1992                 6.2097                 6.2359
 IR Inten    --     13.5245                14.2524                19.5260

                     49                     50                     51
                      A                      A                      A
 Frequencies --   3121.9729              3172.8253              3196.1078
 Red. masses --      1.0899                 1.0906                 1.0966
 Frc consts  --      6.2587                 6.4684                 6.6000
 IR Inten    --     25.5300                20.1211                 7.5591

 - Thermochemistry -
 -------------------
 Temperature   298.150 Kelvin.  Pressure   1.00000 Atm.
 Atom     1 has atomic number  6 and mass  12.00000

 Molecular mass:   126.06808 amu.
 Principal axes and moments of inertia in atomic units:
                           1         2         3
     Eigenvalues --   270.653822449.423472562.56888
           X            0.99998  -0.00646  -0.00221
           Y            0.00643   0.99987  -0.01459
           Z            0.00230   0.01458   0.99989
 This molecule is an asymmetric top.
 Rotational symmetry number  1.
 Rotational temperatures (Kelvin)      0.32002     0.03536     0.03380
 Rotational constants (GHZ):           6.66808     0.73680     0.70427
 Zero-point vibrational energy     412163.9 (Joules/Mol)
                                   98.50954 (Kcal/Mol)
 Warning -- explicit consideration of  11 degrees of freedom as
           vibrations may cause significant error
 Vibrational temperatures:     75.31   108.95   175.76   275.03   327.40
          (Kelvin)            354.58   406.86   492.10   635.89   709.03
                              772.45  1121.12  1145.63  1206.53  1237.42
                             1253.80  1297.66  1374.58  1462.39  1467.94
                             1490.16  1500.58  1551.76  1561.46  1590.82
                             1628.28  1652.89  1745.28  1759.42  1761.97
                             1827.46  1841.08  1905.57  1991.82  2040.56
                             2041.02  2050.61  2086.37  2149.22  2163.80
                             2632.93  4188.08  4343.51  4357.51  4360.55
                             4451.51  4454.10  4459.70  4491.82  4564.98
                             4598.48

 Zero-point correction=                           0.156985 (Hartree/Particle)
 Thermal correction to Energy=                    0.166050
 Thermal correction to Enthalpy=                  0.166994
 Thermal correction to Gibbs Free Energy=         0.122376
 Sum of electronic and zero-point Energies=           -422.992356
 Sum of electronic and thermal Energies=              -422.983291
 Sum of electronic and thermal Enthalpies=            -422.982346
 Sum of electronic and thermal Free Energies=         -423.026965

                     E (Thermal)             CV                S
                      KCal/Mol        Cal/Mol-Kelvin    Cal/Mol-Kelvin
 Total                  104.198             32.773             93.907
 Electronic               0.000              0.000              0.000
 Translational            0.889              2.981             40.409
 Rotational               0.889              2.981             28.920
 Vibrational            102.421             26.812             24.578
 Vibration     1          0.596              1.977              4.727
 Vibration     2          0.599              1.965              3.999
 Vibration     3          0.610              1.931              3.066
 Vibration     4          0.634              1.852              2.217
 Vibration     5          0.651              1.799              1.898
 Vibration     6          0.661              1.769              1.756
 Vibration     7          0.682              1.706              1.517
 Vibration     8          0.721              1.591              1.203
 Vibration     9          0.802              1.379              0.820
 Vibration    10          0.849              1.266              0.676
 Vibration    11          0.892              1.168              0.572

 Normal termination of Gaussian 09 at Mon Jan 27 23:33:18 2020.
