 Gaussian 09, Revision D.01,
 Gaussian 09:  ES64L-G09RevD.01 24-Apr-2013

 -----------------------------
 # b3lyp 6-31G(2df,p) opt Freq
 -----------------------------

 -----
 titel
 -----
 Symbolic Z-matrix:
 Charge =  0 Multiplicity = 1

 SCF Done:  E(RB3LYP) =  -423.198843395     A.U. after   14 cycles
 Optimization completed.
    -- Stationary point found.
 Normal termination of Gaussian 09 at Tue Jan 28 00:05:49 2020.

 ----------------------------------------------------------------------
 #N Geom=AllCheck Guess=TCheck SCRF=Check GenChk RB3LYP/6-31G(2df,p) Fr
 eq
 ----------------------------------------------------------------------

 Structure from the checkpoint file:  "/scratch/puck/g09_27f56a3c-fa3e-47d1-b2c9-b295a1184312/Gau-21134.chk"
 -----
 titel
 -----
 Charge =  0 Multiplicity = 1

                         Standard orientation:
 ---------------------------------------------------------------------
 Center     Atomic      Atomic             Coordinates (Angstroms)
 Number     Number       Type             X           Y           Z
 ---------------------------------------------------------------------
      1          6           0       -2.435674   -1.098622    0.021205
      2          6           0       -1.059454   -0.563675   -0.370737
      3          6           0        0.158209   -0.911640    0.548265
      4          6           0        1.450319   -1.349750   -0.154718
      5          6           0        2.028840   -0.018450   -0.665551
      6          8           0        1.684599    0.951248    0.323387
      7          6           0        0.416574    0.608143    0.841121
      8          6           0       -0.814689    0.928537   -0.063663
      9          8           0       -1.385396    1.935029   -0.366239
     10          1           0       -2.647941   -0.909600    1.078930
     11          1           0       -3.217250   -0.611015   -0.568584
     12          1           0       -2.500325   -2.178197   -0.146967
     13          1           0       -0.862875   -0.781157   -1.429062
     14          1           0       -0.101133   -1.529677    1.408424
     15          1           0        2.136753   -1.802189    0.567274
     16          1           0        1.279814   -2.068873   -0.960816
     17          1           0        3.116731   -0.015652   -0.765368
     18          1           0        1.594826    0.251901   -1.640887
     19          1           0        0.343023    0.986992    1.864342
 ---------------------------------------------------------------------

 SCF Done:  E(RB3LYP) =  -423.198843395     A.U. after    1 cycles

 The electronic state is 1-A.
 Alpha  occ. eigenvalues --  -19.15057 -19.14207 -10.26442 -10.23571 -10.23539
 Alpha  occ. eigenvalues --  -10.19926 -10.19854 -10.19510 -10.18960  -1.05437
 Alpha  occ. eigenvalues --   -1.04107  -0.84589  -0.76751  -0.73598  -0.65761
 Alpha  occ. eigenvalues --   -0.61402  -0.58339  -0.52105  -0.51474  -0.48843
 Alpha  occ. eigenvalues --   -0.45933  -0.45250  -0.42860  -0.42457  -0.41310
 Alpha  occ. eigenvalues --   -0.39073  -0.38510  -0.36907  -0.34610  -0.34431
 Alpha  occ. eigenvalues --   -0.32742  -0.31122  -0.28653  -0.22507
 Alpha virt. eigenvalues --   -0.03306   0.08008   0.09607   0.11297   0.12595
 Alpha virt. eigenvalues --    0.13226   0.14185   0.14909   0.15959   0.16675
 Alpha virt. eigenvalues --    0.17198   0.17313   0.19399   0.19731   0.21111

 Mulliken charges:
               1
     1  C   -0.410585
     2  C   -0.117559
     3  C   -0.063661
     4  C   -0.237638
     5  C   -0.092381
     6  O   -0.249782
     7  C   -0.010077
     8  C    0.379846
     9  O   -0.294218
    10  H    0.120706
    11  H    0.137955
    12  H    0.122129
    13  H    0.098615
    14  H    0.079308
    15  H    0.112021
    16  H    0.106262
    17  H    0.116823
    18  H    0.101137
    19  H    0.101099
 Sum of Mulliken charges =   0.00000

 Dipole moment (field-independent basis, Debye):
    X=              0.5093    Y=             -3.5240    Z=              0.1637  Tot=              3.5644
 Quadrupole moment (field-independent basis, Debye-Ang):
   XX=            -53.9540   YY=            -59.2093   ZZ=            -50.6006
   XY=              1.3184   XZ=             -2.4559   YZ=              1.2771

  Exact polarizability:  84.343  -1.626  74.741  -0.122   0.410  65.713
 Approx polarizability: 111.071  -5.155 114.584   2.293  -0.078 101.999

                      1                      2                      3
                      A                      A                      A
 Frequencies --     30.1986               155.1727               196.4160
 Red. masses --      4.1947                 3.6052                 1.9802
 Frc consts  --      0.0023                 0.0511                 0.0450
 IR Inten    --      0.9114                 2.3039                 0.9540

                      4                      5                      6
                      A                      A                      A
 Frequencies --    205.1958               233.1548               279.2708
 Red. masses --      1.2042                 3.7249                 2.7026
 Frc consts  --      0.0299                 0.1193                 0.1242
 IR Inten    --      0.3704                 3.0333                 2.7765

                      7                      8                      9
                      A                      A                      A
 Frequencies --    356.1172               420.3122               585.9197
 Red. masses --      2.9898                 3.8745                 4.3176
 Frc consts  --      0.2234                 0.4033                 0.8733
 IR Inten    --      2.7000                 2.3554                 0.5651

                     10                     11                     12
                      A                      A                      A
 Frequencies --    636.4868               725.2807               750.4693
 Red. masses --      2.5507                 3.3079                 4.2905
 Frc consts  --      0.6088                 1.0252                 1.4237
 IR Inten    --      1.9186                 7.4012                 3.3106

                     13                     14                     15
                      A                      A                      A
 Frequencies --    770.1956               846.7222               850.2179
 Red. masses --      3.2426                 2.9328                 2.0721
 Frc consts  --      1.1333                 1.2388                 0.8825
 IR Inten    --      0.9529                 1.3795                 1.7127

                     16                     17                     18
                      A                      A                      A
 Frequencies --    888.5279               932.0088               943.4790
 Red. masses --      1.9270                 2.3897                 2.2733
 Frc consts  --      0.8963                 1.2230                 1.1923
 IR Inten    --      5.8728                55.8069                17.5782

                     19                     20                     21
                      A                      A                      A
 Frequencies --    992.8909              1006.6990              1041.0606
 Red. masses --      2.0186                 1.6222                 1.6160
 Frc consts  --      1.1725                 0.9686                 1.0319
 IR Inten    --      9.7679                 1.3689                 1.8940

                     22                     23                     24
                      A                      A                      A
 Frequencies --   1073.3092              1101.9138              1127.8059
 Red. masses --      2.4337                 2.9353                 2.9050
 Frc consts  --      1.6518                 2.0999                 2.1770
 IR Inten    --     20.3905                25.9255                36.2127

                     25                     26                     27
                      A                      A                      A
 Frequencies --   1144.7946              1171.5963              1210.1421
 Red. masses --      2.9519                 1.5220                 1.4573
 Frc consts  --      2.2793                 1.2309                 1.2574
 IR Inten    --     27.0164                 1.5315                 4.1484

                     28                     29                     30
                      A                      A                      A
 Frequencies --   1221.8799              1235.5867              1256.7146
 Red. masses --      1.5022                 1.4209                 1.4576
 Frc consts  --      1.3214                 1.2781                 1.3563
 IR Inten    --      4.1984                 1.1622                 3.9511

                     31                     32                     33
                      A                      A                      A
 Frequencies --   1278.7776              1306.8898              1332.5845
 Red. masses --      1.3375                 1.3635                 1.4802
 Frc consts  --      1.2887                 1.3720                 1.5486
 IR Inten    --      0.8060                 2.4741                 2.7847

                     34                     35                     36
                      A                      A                      A
 Frequencies --   1346.6546              1384.6570              1405.8590
 Red. masses --      1.4844                 1.3542                 1.2077
 Frc consts  --      1.5860                 1.5297                 1.4063
 IR Inten    --      3.0881                 3.4156                 0.8797

                     37                     38                     39
                      A                      A                      A
 Frequencies --   1483.6544              1494.3077              1496.3310
 Red. masses --      1.0950                 1.0457                 1.0480
 Frc consts  --      1.4201                 1.3758                 1.3825
 IR Inten    --      2.6164                 6.8297                 2.4799

                     40                     41                     42
                      A                      A                      A
 Frequencies --   1518.7049              1889.0847              2983.3696
 Red. masses --      1.0919                12.7842                 1.0716
 Frc consts  --      1.4838                26.8798                 5.6193
 IR Inten    --      1.4458               210.6914                46.0061

                     43                     44                     45
                      A                      A                      A
 Frequencies --   3020.3794              3034.4133              3054.3741
 Red. masses --      1.0829                 1.0347                 1.0601
 Frc consts  --      5.8203                 5.6135                 5.8271
 IR Inten    --     12.6241                24.6062                21.5823

                     46                     47                     48
                      A                      A                      A
 Frequencies --   3076.3749              3098.4118              3101.5566
 Red. masses --      1.0869                 1.0957                 1.1003
 Frc consts  --      6.0605                 6.1975                 6.2360
 IR Inten    --     22.1134                18.1775                22.4613

                     49                     50                     51
                      A                      A                      A
 Frequencies --   3103.8735              3110.1734              3114.6742
 Red. masses --      1.0954                 1.0971                 1.1010
 Frc consts  --      6.2179                 6.2527                 6.2928
 IR Inten    --     23.1683                25.3700                24.3774

 - Thermochemistry -
 -------------------
 Temperature   298.150 Kelvin.  Pressure   1.00000 Atm.
 Atom     1 has atomic number  6 and mass  12.00000

 Molecular mass:   126.06808 amu.
 Principal axes and moments of inertia in atomic units:
                           1         2         3
     Eigenvalues --   688.919521164.307671590.47403
           X            0.99921   0.03675  -0.01534
           Y           -0.03663   0.99929   0.00843
           Z            0.01564  -0.00786   0.99985
 This molecule is an asymmetric top.
 Rotational symmetry number  1.
 Warning -- assumption of classical behavior for rotation
           may cause significant error
 Rotational temperatures (Kelvin)      0.12572     0.07439     0.05446
 Rotational constants (GHZ):           2.61967     1.55006     1.13472
 Zero-point vibrational energy     418840.4 (Joules/Mol)
                                  100.10526 (Kcal/Mol)
 Warning -- explicit consideration of   9 degrees of freedom as
           vibrations may cause significant error
 Vibrational temperatures:     43.45   223.26   282.60   295.23   335.46
          (Kelvin)            401.81   512.37   604.73   843.01   915.76
                             1043.52  1079.76  1108.14  1218.24  1223.27
                             1278.39  1340.95  1357.45  1428.55  1448.41
                             1497.85  1544.25  1585.41  1622.66  1647.10
                             1685.66  1741.12  1758.01  1777.73  1808.13
                             1839.87  1880.32  1917.29  1937.53  1992.21
                             2022.71  2134.65  2149.97  2152.88  2185.07
                             2717.97  4292.40  4345.65  4365.84  4394.56
                             4426.21  4457.92  4462.44  4465.78  4474.84
                             4481.32

 Zero-point correction=                           0.159528 (Hartree/Particle)
 Thermal correction to Energy=                    0.167824
 Thermal correction to Enthalpy=                  0.168768
 Thermal correction to Gibbs Free Energy=         0.125823
 Sum of electronic and zero-point Energies=           -423.039316
 Sum of electronic and thermal Energies=              -423.031019
 Sum of electronic and thermal Enthalpies=            -423.030075
 Sum of electronic and thermal Free Energies=         -423.073021

                     E (Thermal)             CV                S
                      KCal/Mol        Cal/Mol-Kelvin    Cal/Mol-Kelvin
 Total                  105.311             31.051             90.387
 Electronic               0.000              0.000              0.000
 Translational            0.889              2.981             40.409
 Rotational               0.889              2.981             28.636
 Vibrational            103.534             25.089             21.343
 Vibration     1          0.594              1.984              5.816
 Vibration     2          0.620              1.897              2.608
 Vibration     3          0.636              1.845              2.166
 Vibration     4          0.640              1.832              2.086
 Vibration     5          0.654              1.790              1.855
 Vibration     6          0.680              1.712              1.538
 Vibration     7          0.732              1.563              1.139
 Vibration     8          0.783              1.426              0.891
 Vibration     9          0.943              1.062              0.475

 Optimization completed.
    -- Stationary point found.
 Normal termination of Gaussian 09 at Tue Jan 28 00:55:04 2020.
