 Gaussian 09, Revision D.01,
 Gaussian 09:  ES64L-G09RevD.01 24-Apr-2013

 -----------------------------
 # b3lyp 6-31G(2df,p) opt Freq
 -----------------------------

 -----
 titel
 -----
 Symbolic Z-matrix:
 Charge =  0 Multiplicity = 1

 SCF Done:  E(RB3LYP) =  -423.126900388     A.U. after   13 cycles
 Optimization completed.
    -- Stationary point found.
 Normal termination of Gaussian 09 at Tue Jan 28 03:46:13 2020.

 ----------------------------------------------------------------------
 #N Geom=AllCheck Guess=TCheck SCRF=Check GenChk RB3LYP/6-31G(2df,p) Fr
 eq
 ----------------------------------------------------------------------

 Structure from the checkpoint file:  "/scratch/puck/g09_183cea7e-ef30-49aa-bb7d-9262076290a5/Gau-116583.chk"
 -----
 titel
 -----
 Charge =  0 Multiplicity = 1

                         Standard orientation:
 ---------------------------------------------------------------------
 Center     Atomic      Atomic             Coordinates (Angstroms)
 Number     Number       Type             X           Y           Z
 ---------------------------------------------------------------------
      1          6           0       -2.472954   -0.829789   -0.101880
      2          6           0       -1.340485   -0.070341    0.566359
      3          8           0       -1.221344    1.302544    0.069772
      4          6           0       -0.042630    1.008170   -0.723458
      5          6           0        1.279025    1.503633   -0.082033
      6          6           0        1.360735    0.169553    0.713484
      7          6           0        1.957565   -1.066860   -0.009866
      8          8           0        0.637712   -1.536129   -0.422970
      9          6           0        0.062357   -0.338043    0.048407
     10          1           0       -2.510424   -1.859099    0.269700
     11          1           0       -3.428586   -0.345196    0.119058
     12          1           0       -2.341862   -0.860056   -1.187415
     13          1           0       -1.455685   -0.078145    1.657859
     14          1           0       -0.214289    1.136255   -1.795443
     15          1           0        2.098041    1.671278   -0.788502
     16          1           0        1.149562    2.396594    0.533466
     17          1           0        1.503968    0.201163    1.793571
     18          1           0        2.596804   -0.847324   -0.873642
     19          1           0        2.449856   -1.804721    0.630857
 ---------------------------------------------------------------------

 SCF Done:  E(RB3LYP) =  -423.126900388     A.U. after    1 cycles

 The electronic state is 1-A.
 Alpha  occ. eigenvalues --  -19.14444 -19.13547 -10.24027 -10.23688 -10.23456
 Alpha  occ. eigenvalues --  -10.22667 -10.19520 -10.18784 -10.17598  -1.05818
 Alpha  occ. eigenvalues --   -1.02845  -0.81616  -0.75515  -0.70779  -0.66894
 Alpha  occ. eigenvalues --   -0.61924  -0.59418  -0.51731  -0.50750  -0.49908
 Alpha  occ. eigenvalues --   -0.47488  -0.45116  -0.42631  -0.40917  -0.40305
 Alpha  occ. eigenvalues --   -0.39126  -0.37593  -0.35373  -0.34369  -0.33379
 Alpha  occ. eigenvalues --   -0.30255  -0.28878  -0.24666  -0.23906
 Alpha virt. eigenvalues --    0.06152   0.08214   0.09988   0.10602   0.12554
 Alpha virt. eigenvalues --    0.13004   0.13680   0.15293   0.15788   0.16752
 Alpha virt. eigenvalues --    0.17493   0.18071   0.18755   0.20109   0.22056

 Mulliken charges:
               1
     1  C   -0.398161
     2  C    0.036666
     3  O   -0.314652
     4  C    0.039465
     5  C   -0.264277
     6  C   -0.143491
     7  C   -0.109608
     8  O   -0.328922
     9  C    0.429710
    10  H    0.124994
    11  H    0.125818
    12  H    0.125114
    13  H    0.079086
    14  H    0.077885
    15  H    0.101216
    16  H    0.117072
    17  H    0.080788
    18  H    0.106704
    19  H    0.114595
 Sum of Mulliken charges =   0.00000

 Dipole moment (field-independent basis, Debye):
    X=              1.3736    Y=             -0.1546    Z=              0.5649  Tot=              1.4933
 Quadrupole moment (field-independent basis, Debye-Ang):
   XX=            -49.8841   YY=            -57.6130   ZZ=            -51.3638
   XY=              2.5583   XZ=             -0.0901   YZ=             -2.2028

  Exact polarizability:  86.189   1.783  72.676  -1.216  -2.773  66.082
 Approx polarizability: 112.295  -0.221 108.108  -2.446  -2.833 101.248

                      1                      2                      3
                      A                      A                      A
 Frequencies --    122.2507               153.0592               197.9042
 Red. masses --      2.8903                 3.0695                 2.1698
 Frc consts  --      0.0255                 0.0424                 0.0501
 IR Inten    --      1.0251                 2.4508                 2.3979

                      4                      5                      6
                      A                      A                      A
 Frequencies --    221.6451               339.3855               368.5707
 Red. masses --      1.1800                 3.6941                 2.0778
 Frc consts  --      0.0342                 0.2507                 0.1663
 IR Inten    --      0.3625                 3.1038                 1.0241

                      7                      8                      9
                      A                      A                      A
 Frequencies --    402.0980               464.7855               518.8337
 Red. masses --      3.3907                 2.5569                 4.6119
 Frc consts  --      0.3230                 0.3254                 0.7315
 IR Inten    --      1.8610                 4.4465                 1.4742

                     10                     11                     12
                      A                      A                      A
 Frequencies --    706.2935               740.7945               800.6751
 Red. masses --      3.4628                 2.5335                 2.3608
 Frc consts  --      1.0178                 0.8191                 0.8917
 IR Inten    --      9.7078                 0.2358                 2.7396

                     13                     14                     15
                      A                      A                      A
 Frequencies --    830.1348               866.0149               879.6746
 Red. masses --      2.6547                 3.0248                 1.9969
 Frc consts  --      1.0779                 1.3366                 0.9104
 IR Inten    --      0.8756                20.8739                 4.0326

                     16                     17                     18
                      A                      A                      A
 Frequencies --    930.6766               959.1584               965.8399
 Red. masses --      1.9503                 3.5021                 2.7673
 Frc consts  --      0.9953                 1.8983                 1.5209
 IR Inten    --      6.3190                21.3503                61.5541

                     19                     20                     21
                      A                      A                      A
 Frequencies --    986.5996              1019.5789              1036.5400
 Red. masses --      2.7411                 2.4468                 2.5418
 Frc consts  --      1.5720                 1.4986                 1.6090
 IR Inten    --     40.5430                28.2028                38.1885

                     22                     23                     24
                      A                      A                      A
 Frequencies --   1078.0921              1086.5915              1104.7812
 Red. masses --      2.1071                 1.9642                 1.9775
 Frc consts  --      1.4429                 1.3664                 1.4221
 IR Inten    --      2.9615                 2.4235                10.2336

                     25                     26                     27
                      A                      A                      A
 Frequencies --   1129.9136              1148.3968              1153.1219
 Red. masses --      2.5886                 1.8416                 1.3456
 Frc consts  --      1.9472                 1.4309                 1.0542
 IR Inten    --     20.7919                 7.2711                 4.1143

                     28                     29                     30
                      A                      A                      A
 Frequencies --   1191.0762              1230.9057              1252.8696
 Red. masses --      1.3320                 1.7870                 1.6517
 Frc consts  --      1.1133                 1.5952                 1.5276
 IR Inten    --      1.2824                46.3475                 2.2364

                     31                     32                     33
                      A                      A                      A
 Frequencies --   1268.1188              1298.1086              1308.5160
 Red. masses --      1.9882                 1.4399                 1.4802
 Frc consts  --      1.8838                 1.4296                 1.4933
 IR Inten    --      3.9540                20.9653                16.2954

                     34                     35                     36
                      A                      A                      A
 Frequencies --   1341.8234              1350.6900              1392.1485
 Red. masses --      1.5385                 1.6363                 1.8630
 Frc consts  --      1.6320                 1.7588                 2.1274
 IR Inten    --      0.4674                20.4452                15.0087

                     37                     38                     39
                      A                      A                      A
 Frequencies --   1403.5866              1461.5856              1486.0483
 Red. masses --      1.2922                 1.1064                 1.0700
 Frc consts  --      1.4999                 1.3926                 1.3922
 IR Inten    --      8.9290                 4.0189                 5.7769

                     40                     41                     42
                      A                      A                      A
 Frequencies --   1490.5459              1516.0669              3023.5578
 Red. masses --      1.0515                 1.1233                 1.0838
 Frc consts  --      1.3764                 1.5212                 5.8375
 IR Inten    --      4.1782                 1.1510                56.0604

                     43                     44                     45
                      A                      A                      A
 Frequencies --   3025.6590              3038.9679              3051.8654
 Red. masses --      1.0590                 1.0349                 1.0619
 Frc consts  --      5.7120                 5.6311                 5.8271
 IR Inten    --     54.2580                14.2896                29.3446

                     46                     47                     48
                      A                      A                      A
 Frequencies --   3074.4602              3082.2292              3107.9038
 Red. masses --      1.0879                 1.1079                 1.0940
 Frc consts  --      6.0589                 6.2011                 6.2261
 IR Inten    --     40.4125                32.2274                19.9731

                     49                     50                     51
                      A                      A                      A
 Frequencies --   3112.8570              3119.4476              3119.8695
 Red. masses --      1.1011                 1.1026                 1.1014
 Frc consts  --      6.2865                 6.3215                 6.3166
 IR Inten    --     17.3073                 6.9375                46.7925

 - Thermochemistry -
 -------------------
 Temperature   298.150 Kelvin.  Pressure   1.00000 Atm.
 Atom     1 has atomic number  6 and mass  12.00000

 Molecular mass:   126.06808 amu.
 Principal axes and moments of inertia in atomic units:
                           1         2         3
     Eigenvalues --   635.531531045.469921450.76136
           X            0.99779   0.06646   0.00210
           Y           -0.06643   0.99768  -0.01522
           Z           -0.00310   0.01505   0.99988
 This molecule is an asymmetric top.
 Rotational symmetry number  1.
 Warning -- assumption of classical behavior for rotation
           may cause significant error
 Rotational temperatures (Kelvin)      0.13629     0.08285     0.05970
 Rotational constants (GHZ):           2.83974     1.72625     1.24400
 Zero-point vibrational energy     418455.6 (Joules/Mol)
                                  100.01329 (Kcal/Mol)
 Warning -- explicit consideration of   9 degrees of freedom as
           vibrations may cause significant error
 Vibrational temperatures:    175.89   220.22   284.74   318.90   488.30
          (Kelvin)            530.29   578.53   668.72   746.48  1016.20
                             1065.84  1151.99  1194.38  1246.00  1265.65
                             1339.03  1380.01  1389.63  1419.49  1466.94
                             1491.35  1551.13  1563.36  1589.53  1625.69
                             1652.28  1659.08  1713.69  1771.00  1802.60
                             1824.54  1867.69  1882.66  1930.58  1943.34
                             2002.99  2019.45  2102.89  2138.09  2144.56
                             2181.28  4350.22  4353.24  4372.39  4390.95
                             4423.46  4434.63  4471.57  4478.70  4488.18
                             4488.79

 Zero-point correction=                           0.159381 (Hartree/Particle)
 Thermal correction to Energy=                    0.167109
 Thermal correction to Enthalpy=                  0.168054
 Thermal correction to Gibbs Free Energy=         0.127320
 Sum of electronic and zero-point Energies=           -422.967519
 Sum of electronic and thermal Energies=              -422.959791
 Sum of electronic and thermal Enthalpies=            -422.958847
 Sum of electronic and thermal Free Energies=         -422.999581

                     E (Thermal)             CV                S
                      KCal/Mol        Cal/Mol-Kelvin    Cal/Mol-Kelvin
 Total                  104.863             30.272             85.732
 Electronic               0.000              0.000              0.000
 Translational            0.889              2.981             40.409
 Rotational               0.889              2.981             28.357
 Vibrational            103.085             24.311             16.966
 Vibration     1          0.610              1.931              3.064
 Vibration     2          0.619              1.899              2.634
 Vibration     3          0.637              1.843              2.152
 Vibration     4          0.648              1.808              1.946
 Vibration     5          0.719              1.597              1.215
 Vibration     6          0.741              1.537              1.086
 Vibration     7          0.768              1.466              0.955
 Vibration     8          0.822              1.328              0.752
 Vibration     9          0.874              1.208              0.613

 Normal termination of Gaussian 09 at Tue Jan 28 04:29:37 2020.
