 Gaussian 09, Revision D.01,
 Gaussian 09:  ES64L-G09RevD.01 24-Apr-2013

 -----------------------------
 # b3lyp 6-31G(2df,p) opt Freq
 -----------------------------

 -----
 titel
 -----
 Symbolic Z-matrix:
 Charge =  0 Multiplicity = 1

 SCF Done:  E(RB3LYP) =  -423.203260432     A.U. after   14 cycles
 Optimization completed.
    -- Stationary point found.
 Normal termination of Gaussian 09 at Tue Jan 28 02:53:16 2020.

 ----------------------------------------------------------------------
 #N Geom=AllCheck Guess=TCheck SCRF=Check GenChk RB3LYP/6-31G(2df,p) Fr
 eq
 ----------------------------------------------------------------------

 Structure from the checkpoint file:  "/scratch/puck/g09_59c949c5-a89b-4afe-9c12-927c370d43d2/Gau-105042.chk"
 -----
 titel
 -----
 Charge =  0 Multiplicity = 1

                         Standard orientation:
 ---------------------------------------------------------------------
 Center     Atomic      Atomic             Coordinates (Angstroms)
 Number     Number       Type             X           Y           Z
 ---------------------------------------------------------------------
      1          6           0       -2.917434   -0.207127   -0.039323
      2          6           0       -1.471984    0.057197   -0.408050
      3          8           0       -0.692372   -1.171273   -0.462121
      4          6           0        0.184740   -0.717733    0.597817
      5          6           0       -0.544725    0.642237    0.684294
      6          6           0        0.457399    1.720283    0.219553
      7          6           0        1.513178    0.971069   -0.618164
      8          6           0        1.576516   -0.419744    0.018023
      9          8           0        2.534420   -1.143911    0.082374
     10          1           0       -2.987634   -0.715978    0.927095
     11          1           0       -3.474435    0.734683    0.020384
     12          1           0       -3.393256   -0.839396   -0.795192
     13          1           0       -1.416159    0.588929   -1.368501
     14          1           0        0.214702   -1.407386    1.445321
     15          1           0       -1.045088    0.892912    1.620346
     16          1           0       -0.035106    2.526049   -0.332976
     17          1           0        0.935684    2.174632    1.094217
     18          1           0        1.180918    0.849632   -1.657003
     19          1           0        2.497848    1.440313   -0.640615
 ---------------------------------------------------------------------

 SCF Done:  E(RB3LYP) =  -423.203260432     A.U. after    1 cycles

 The electronic state is 1-A.
 Alpha  occ. eigenvalues --  -19.14352 -19.13508 -10.26655 -10.24322 -10.23707
 Alpha  occ. eigenvalues --  -10.20196 -10.20048 -10.19434 -10.18462  -1.05271
 Alpha  occ. eigenvalues --   -1.03737  -0.82883  -0.76673  -0.71573  -0.68676
 Alpha  occ. eigenvalues --   -0.62883  -0.56642  -0.52897  -0.50260  -0.48842
 Alpha  occ. eigenvalues --   -0.46428  -0.45059  -0.42716  -0.41909  -0.40960
 Alpha  occ. eigenvalues --   -0.39120  -0.38872  -0.38120  -0.35243  -0.34935
 Alpha  occ. eigenvalues --   -0.32717  -0.30407  -0.27750  -0.23000
 Alpha virt. eigenvalues --   -0.02883   0.08137   0.09354   0.10435   0.10753
 Alpha virt. eigenvalues --    0.13263   0.14350   0.15027   0.16172   0.16337
 Alpha virt. eigenvalues --    0.16890   0.17507   0.18761   0.19962   0.22232

 Mulliken charges:
               1
     1  C   -0.408337
     2  C    0.161317
     3  O   -0.314977
     4  C    0.025046
     5  C   -0.096224
     6  C   -0.245396
     7  C   -0.327818
     8  C    0.406750
     9  O   -0.307609
    10  H    0.123254
    11  H    0.117320
    12  H    0.131693
    13  H    0.075960
    14  H    0.090377
    15  H    0.081462
    16  H    0.108214
    17  H    0.112312
    18  H    0.139824
    19  H    0.126835
 Sum of Mulliken charges =   0.00000

 Dipole moment (field-independent basis, Debye):
    X=             -2.3096    Y=              3.1120    Z=              0.6210  Tot=              3.9248
 Quadrupole moment (field-independent basis, Debye-Ang):
   XX=            -57.7739   YY=            -55.9047   ZZ=            -51.0072
   XY=              3.8391   XZ=             -0.3672   YZ=             -1.4904

  Exact polarizability:  89.158  -1.766  72.310   0.639  -3.072  63.729
 Approx polarizability: 118.202  -8.644 108.811   3.979  -3.399  99.108

                      1                      2                      3
                      A                      A                      A
 Frequencies --     72.3239               122.8439               193.1373
 Red. masses --      4.7118                 3.2838                 2.9016
 Frc consts  --      0.0145                 0.0292                 0.0638
 IR Inten    --      1.1251                 2.1663                 1.3504

                      4                      5                      6
                      A                      A                      A
 Frequencies --    233.5663               273.1631               309.4656
 Red. masses --      1.1068                 2.1331                 2.8743
 Frc consts  --      0.0356                 0.0938                 0.1622
 IR Inten    --      0.3775                 0.6526                 3.1132

                      7                      8                      9
                      A                      A                      A
 Frequencies --    417.6548               450.5282               524.9985
 Red. masses --      4.1969                 3.7613                 2.4015
 Frc consts  --      0.4313                 0.4498                 0.3900
 IR Inten    --      6.5505                 2.7223                 4.6078

                     10                     11                     12
                      A                      A                      A
 Frequencies --    606.4011               678.4702               767.5297
 Red. masses --      3.2329                 4.2514                 2.6762
 Frc consts  --      0.7004                 1.1530                 0.9289
 IR Inten    --      1.7487                 7.2458                 7.2267

                     13                     14                     15
                      A                      A                      A
 Frequencies --    792.0179               819.5268               874.4026
 Red. masses --      2.7465                 3.1062                 2.1481
 Frc consts  --      1.0151                 1.2291                 0.9677
 IR Inten    --      1.3368                 2.2834                12.1155

                     16                     17                     18
                      A                      A                      A
 Frequencies --    876.8219               909.7839               952.0428
 Red. masses --      1.9236                 2.1077                 2.2881
 Frc consts  --      0.8714                 1.0279                 1.2219
 IR Inten    --      3.4847                 9.6348                 3.1740

                     19                     20                     21
                      A                      A                      A
 Frequencies --    996.8519              1012.7773              1041.3423
 Red. masses --      3.2617                 1.8359                 2.1366
 Frc consts  --      1.9097                 1.1095                 1.3651
 IR Inten    --     48.2250                15.8318                14.7286

                     22                     23                     24
                      A                      A                      A
 Frequencies --   1079.1327              1090.4285              1118.4012
 Red. masses --      2.0154                 1.7351                 1.7503
 Frc consts  --      1.3828                 1.2155                 1.2899
 IR Inten    --     34.3305                 5.4140                 6.4290

                     25                     26                     27
                      A                      A                      A
 Frequencies --   1171.0145              1175.9426              1182.8413
 Red. masses --      2.6360                 2.0232                 1.7670
 Frc consts  --      2.1297                 1.6484                 1.4566
 IR Inten    --     31.2882                 6.0341                 1.2380

                     28                     29                     30
                      A                      A                      A
 Frequencies --   1242.0355              1259.7620              1280.1285
 Red. masses --      1.5041                 1.6160                 1.2528
 Frc consts  --      1.3671                 1.5110                 1.2096
 IR Inten    --      0.7714                 3.2168                 0.9163

                     31                     32                     33
                      A                      A                      A
 Frequencies --   1290.4973              1307.6286              1325.5494
 Red. masses --      1.4710                 1.3866                 1.5513
 Frc consts  --      1.4434                 1.3969                 1.6060
 IR Inten    --      4.0800                 0.3143                 2.7947

                     34                     35                     36
                      A                      A                      A
 Frequencies --   1351.0408              1395.0819              1407.4956
 Red. masses --      1.3990                 1.3773                 1.3934
 Frc consts  --      1.5045                 1.5794                 1.6263
 IR Inten    --      9.1406                 4.4120                14.2131

                     37                     38                     39
                      A                      A                      A
 Frequencies --   1457.1529              1482.9373              1492.9010
 Red. masses --      1.0832                 1.0554                 1.0500
 Frc consts  --      1.3551                 1.3674                 1.3789
 IR Inten    --      9.3156                 3.5167                 4.2844

                     40                     41                     42
                      A                      A                      A
 Frequencies --   1493.9724              1851.9435              3000.4171
 Red. masses --      1.0908                12.2867                 1.0847
 Frc consts  --      1.4345                24.8279                 5.7534
 IR Inten    --      2.5555               203.6638                40.5689

                     43                     44                     45
                      A                      A                      A
 Frequencies --   3032.8813              3040.3267              3043.9930
 Red. masses --      1.0352                 1.0689                 1.0603
 Frc consts  --      5.6105                 5.8216                 5.7886
 IR Inten    --     14.6885                 3.2395                31.5873

                     46                     47                     48
                      A                      A                      A
 Frequencies --   3079.2130              3087.1538              3104.5735
 Red. masses --      1.0879                 1.1024                 1.0892
 Frc consts  --      6.0775                 6.1902                 6.1853
 IR Inten    --     31.2764                14.1709                22.8408

                     49                     50                     51
                      A                      A                      A
 Frequencies --   3105.2583              3114.6275              3125.2174
 Red. masses --      1.1004                 1.1019                 1.0959
 Frc consts  --      6.2518                 6.2979                 6.3066
 IR Inten    --     20.8305                27.5314                12.2067

 - Thermochemistry -
 -------------------
 Temperature   298.150 Kelvin.  Pressure   1.00000 Atm.
 Atom     1 has atomic number  6 and mass  12.00000

 Molecular mass:   126.06808 amu.
 Principal axes and moments of inertia in atomic units:
                           1         2         3
     Eigenvalues --   554.192651356.252381673.39640
           X            0.99956   0.02863  -0.00723
           Y           -0.02880   0.99928  -0.02449
           Z            0.00653   0.02469   0.99967
 This molecule is an asymmetric top.
 Rotational symmetry number  1.
 Warning -- assumption of classical behavior for rotation
           may cause significant error
 Rotational temperatures (Kelvin)      0.15629     0.06386     0.05176
 Rotational constants (GHZ):           3.25652     1.33068     1.07849
 Zero-point vibrational energy     419382.0 (Joules/Mol)
                                  100.23471 (Kcal/Mol)
 Warning -- explicit consideration of  10 degrees of freedom as
           vibrations may cause significant error
 Vibrational temperatures:    104.06   176.74   277.88   336.05   393.02
          (Kelvin)            445.25   600.91   648.21   755.35   872.47
                              976.17  1104.30  1139.54  1179.11  1258.07
                             1261.55  1308.97  1369.78  1434.25  1457.16
                             1498.26  1552.63  1568.88  1609.13  1684.83
                             1691.92  1701.84  1787.01  1812.51  1841.82
                             1856.74  1881.38  1907.17  1943.84  2007.21
                             2025.07  2096.52  2133.61  2147.95  2149.49
                             2664.53  4316.93  4363.63  4374.35  4379.62
                             4430.30  4441.72  4466.78  4467.77  4481.25
                             4496.49

 Zero-point correction=                           0.159734 (Hartree/Particle)
 Thermal correction to Energy=                    0.167843
 Thermal correction to Enthalpy=                  0.168787
 Thermal correction to Gibbs Free Energy=         0.126831
 Sum of electronic and zero-point Energies=           -423.043526
 Sum of electronic and thermal Energies=              -423.035418
 Sum of electronic and thermal Enthalpies=            -423.034473
 Sum of electronic and thermal Free Energies=         -423.076429

                     E (Thermal)             CV                S
                      KCal/Mol        Cal/Mol-Kelvin    Cal/Mol-Kelvin
 Total                  105.323             30.937             88.303
 Electronic               0.000              0.000              0.000
 Translational            0.889              2.981             40.409
 Rotational               0.889              2.981             28.621
 Vibrational            103.545             24.975             19.273
 Vibration     1          0.598              1.967              4.089
 Vibration     2          0.610              1.930              3.055
 Vibration     3          0.635              1.849              2.198
 Vibration     4          0.654              1.790              1.851
 Vibration     5          0.676              1.723              1.576
 Vibration     6          0.699              1.656              1.365
 Vibration     7          0.781              1.432              0.900
 Vibration     8          0.809              1.360              0.794
 Vibration     9          0.880              1.195              0.598
 Vibration    10          0.965              1.018              0.439

 Optimization completed.
    -- Stationary point found.
 Normal termination of Gaussian 09 at Tue Jan 28 03:45:58 2020.
