 Gaussian 09, Revision D.01,
 Gaussian 09:  ES64L-G09RevD.01 24-Apr-2013

 -----------------------------
 # b3lyp 6-31G(2df,p) opt Freq
 -----------------------------

 -----
 titel
 -----
 Symbolic Z-matrix:
 Charge =  0 Multiplicity = 1

 SCF Done:  E(RB3LYP) =  -423.086562056     A.U. after   13 cycles
 Optimization completed.
    -- Stationary point found.
 Normal termination of Gaussian 09 at Mon Jan 27 16:24:29 2020.

 ----------------------------------------------------------------------
 #N Geom=AllCheck Guess=TCheck SCRF=Check GenChk RB3LYP/6-31G(2df,p) Fr
 eq
 ----------------------------------------------------------------------

 Structure from the checkpoint file:  "/scratch/puck/g09_a720b3d6-e601-4fa3-a471-09a25aba9a94/Gau-37107.chk"
 -----
 titel
 -----
 Charge =  0 Multiplicity = 1

                         Standard orientation:
 ---------------------------------------------------------------------
 Center     Atomic      Atomic             Coordinates (Angstroms)
 Number     Number       Type             X           Y           Z
 ---------------------------------------------------------------------
      1          8           0       -1.796555    1.474551    0.090491
      2          6           0       -1.148961    0.235432   -0.098149
      3          6           0       -1.656880   -0.931896    0.704053
      4          6           0       -2.009728   -0.799646   -0.763878
      5          6           0        0.288368    0.408085   -0.516370
      6          6           0        1.316684   -0.756453   -0.496349
      7          6           0        2.469856    0.276169   -0.513527
      8          6           0        1.409971    0.702880    0.528746
      9          8           0        1.344622   -0.705294    0.986517
     10          1           0       -1.508653    1.825984    0.940251
     11          1           0       -0.952831   -1.691121    1.016167
     12          1           0       -2.444779   -0.711710    1.416117
     13          1           0       -1.545758   -1.478232   -1.471717
     14          1           0       -3.018782   -0.494657   -1.015426
     15          1           0        0.329379    1.043036   -1.407936
     16          1           0        1.262598   -1.741031   -0.962741
     17          1           0        3.406501   -0.084172   -0.088224
     18          1           0        2.605052    0.893271   -1.404884
     19          1           0        1.466868    1.477153    1.295181
 ---------------------------------------------------------------------

 SCF Done:  E(RB3LYP) =  -423.086562056     A.U. after    1 cycles

 The electronic state is 1-A.
 Alpha  occ. eigenvalues --  -19.13845 -19.13293 -10.25257 -10.25143 -10.23563
 Alpha  occ. eigenvalues --  -10.19953 -10.19634 -10.17938 -10.17626  -1.05766
 Alpha  occ. eigenvalues --   -1.02318  -0.84108  -0.79493  -0.69297  -0.65417
 Alpha  occ. eigenvalues --   -0.60413  -0.58764  -0.53907  -0.52616  -0.50123
 Alpha  occ. eigenvalues --   -0.46815  -0.44960  -0.43864  -0.40666  -0.40013
 Alpha  occ. eigenvalues --   -0.36244  -0.36029  -0.34804  -0.33073  -0.32471
 Alpha  occ. eigenvalues --   -0.31038  -0.27711  -0.25607  -0.23601
 Alpha virt. eigenvalues --    0.07423   0.08945   0.10312   0.11032   0.11811
 Alpha virt. eigenvalues --    0.12696   0.13493   0.14013   0.14614   0.16351
 Alpha virt. eigenvalues --    0.17312   0.18073   0.18605   0.21216   0.22518

 Mulliken charges:
               1
     1  O   -0.464023
     2  C    0.372530
     3  C   -0.322507
     4  C   -0.300948
     5  C   -0.036228
     6  C    0.018626
     7  C   -0.221528
     8  C    0.032373
     9  O   -0.309343
    10  H    0.280325
    11  H    0.132866
    12  H    0.109085
    13  H    0.108004
    14  H    0.121268
    15  H    0.082257
    16  H    0.095640
    17  H    0.110753
    18  H    0.099211
    19  H    0.091639
 Sum of Mulliken charges =   0.00000

 Dipole moment (field-independent basis, Debye):
    X=              0.9472    Y=              0.5671    Z=             -0.4522  Tot=              1.1930
 Quadrupole moment (field-independent basis, Debye-Ang):
   XX=            -54.5050   YY=            -52.6375   ZZ=            -52.2295
   XY=              2.8312   XZ=             -3.8271   YZ=              4.9356

  Exact polarizability:  84.958   2.708  70.982  -0.778   2.550  69.112
 Approx polarizability: 107.795   1.025 111.972   1.279   1.864 111.375

                      1                      2                      3
                      A                      A                      A
 Frequencies --     45.6127               156.1940               207.0611
 Red. masses --      3.8023                 3.2716                 4.1689
 Frc consts  --      0.0047                 0.0470                 0.1053
 IR Inten    --      2.8901                 0.1546                 4.9351

                      4                      5                      6
                      A                      A                      A
 Frequencies --    291.5300               320.3905               341.1088
 Red. masses --      1.4764                 1.8951                 2.6402
 Frc consts  --      0.0739                 0.1146                 0.1810
 IR Inten    --     52.2116                15.3536                22.9549

                      7                      8                      9
                      A                      A                      A
 Frequencies --    419.0879               480.5280               500.8778
 Red. masses --      3.9650                 2.8666                 2.9661
 Frc consts  --      0.4103                 0.3900                 0.4384
 IR Inten    --     14.7454                 7.1152                 5.5901

                     10                     11                     12
                      A                      A                      A
 Frequencies --    621.7221               755.7213               764.0731
 Red. masses --      2.8896                 3.2128                 1.6449
 Frc consts  --      0.6581                 1.0811                 0.5658
 IR Inten    --      8.9722                 6.6767                 6.3083

                     13                     14                     15
                      A                      A                      A
 Frequencies --    781.7914               800.7767               867.7854
 Red. masses --      2.6592                 2.0319                 2.5564
 Frc consts  --      0.9576                 0.7677                 1.1343
 IR Inten    --      4.3501                 5.8875                 5.2925

                     16                     17                     18
                      A                      A                      A
 Frequencies --    883.3554               903.1623               917.5379
 Red. masses --      2.5200                 2.0172                 2.6587
 Frc consts  --      1.1585                 0.9695                 1.3188
 IR Inten    --     18.3454                 3.2193                19.6838

                     19                     20                     21
                      A                      A                      A
 Frequencies --    926.9359               961.0780               977.2577
 Red. masses --      1.6204                 2.7922                 2.3785
 Frc consts  --      0.8203                 1.5196                 1.3383
 IR Inten    --     13.3620                16.8853                 3.7580

                     22                     23                     24
                      A                      A                      A
 Frequencies --   1014.2641              1036.1667              1047.9323
 Red. masses --      2.1906                 1.0476                 1.3551
 Frc consts  --      1.3277                 0.6627                 0.8768
 IR Inten    --      3.6246                 1.6486                20.1784

                     25                     26                     27
                      A                      A                      A
 Frequencies --   1072.5948              1074.7653              1121.0453
 Red. masses --      1.7700                 1.7098                 1.4387
 Frc consts  --      1.1997                 1.1637                 1.0653
 IR Inten    --      3.4413                 2.1907                10.7245

                     28                     29                     30
                      A                      A                      A
 Frequencies --   1132.0857              1144.5490              1188.1724
 Red. masses --      1.5079                 3.1158                 1.2772
 Frc consts  --      1.1386                 2.4048                 1.0624
 IR Inten    --      0.2875                 2.1414                 0.2435

                     31                     32                     33
                      A                      A                      A
 Frequencies --   1193.1354              1209.1353              1233.6571
 Red. masses --      1.3319                 1.4813                 1.8189
 Frc consts  --      1.1171                 1.2760                 1.6310
 IR Inten    --      2.4547                 6.5265                85.9642

                     34                     35                     36
                      A                      A                      A
 Frequencies --   1263.8179              1282.5210              1319.3291
 Red. masses --      1.9817                 1.5291                 1.6671
 Frc consts  --      1.8649                 1.4819                 1.7097
 IR Inten    --     30.5614                 4.1373                15.1870

                     37                     38                     39
                      A                      A                      A
 Frequencies --   1369.5847              1405.7851              1457.5744
 Red. masses --      1.6701                 2.0562                 1.0928
 Frc consts  --      1.8457                 2.3941                 1.3679
 IR Inten    --     10.5865                13.6510                 2.4521

                     40                     41                     42
                      A                      A                      A
 Frequencies --   1488.2845              1501.7673              3051.4574
 Red. masses --      1.1759                 1.4821                 1.0818
 Frc consts  --      1.5346                 1.9694                 5.9351
 IR Inten    --      0.5331                12.9423                17.9915

                     43                     44                     45
                      A                      A                      A
 Frequencies --   3069.8546              3105.8465              3113.2763
 Red. masses --      1.0577                 1.0897                 1.0963
 Frc consts  --      5.8729                 6.1932                 6.2605
 IR Inten    --     47.5933                82.5699                 2.4590

                     46                     47                     48
                      A                      A                      A
 Frequencies --   3135.6608              3147.6495              3155.5165
 Red. masses --      1.0537                 1.0574                 1.1101
 Frc consts  --      6.1040                 6.1723                 6.5127
 IR Inten    --     12.8796                 6.9301                22.3505

                     49                     50                     51
                      A                      A                      A
 Frequencies --   3224.2739              3248.3311              3795.4808
 Red. masses --      1.1173                 1.1144                 1.0661
 Frc consts  --      6.8438                 6.9284                 9.0488
 IR Inten    --      3.6178                 6.2214                12.9050

 - Thermochemistry -
 -------------------
 Temperature   298.150 Kelvin.  Pressure   1.00000 Atm.
 Atom     1 has atomic number  8 and mass  15.99491

 Molecular mass:   126.06808 amu.
 Principal axes and moments of inertia in atomic units:
                           1         2         3
     Eigenvalues --   530.397081411.065391548.68087
           X            0.99952   0.02804  -0.01325
           Y           -0.02715   0.99763   0.06322
           Z            0.01499  -0.06283   0.99791
 This molecule is an asymmetric top.
 Rotational symmetry number  1.
 Warning -- assumption of classical behavior for rotation
           may cause significant error
 Rotational temperatures (Kelvin)      0.16330     0.06138     0.05593
 Rotational constants (GHZ):           3.40262     1.27899     1.16534
 Zero-point vibrational energy     415864.4 (Joules/Mol)
                                   99.39398 (Kcal/Mol)
 Warning -- explicit consideration of   9 degrees of freedom as
           vibrations may cause significant error
 Vibrational temperatures:     65.63   224.73   297.91   419.45   460.97
          (Kelvin)            490.78   602.97   691.37   720.65   894.52
                             1087.31  1099.33  1124.82  1152.14  1248.55
                             1270.95  1299.45  1320.13  1333.65  1382.78
                             1406.05  1459.30  1490.81  1507.74  1543.22
                             1546.35  1612.93  1628.82  1646.75  1709.51
                             1716.65  1739.67  1774.96  1818.35  1845.26
                             1898.22  1970.52  2022.61  2097.12  2141.31
                             2160.71  4390.36  4416.83  4468.61  4479.30
                             4511.51  4528.76  4540.08  4639.01  4673.62
                             5460.84

 Zero-point correction=                           0.158394 (Hartree/Particle)
 Thermal correction to Energy=                    0.166402
 Thermal correction to Enthalpy=                  0.167346
 Thermal correction to Gibbs Free Energy=         0.125550
 Sum of electronic and zero-point Energies=           -422.928168
 Sum of electronic and thermal Energies=              -422.920160
 Sum of electronic and thermal Enthalpies=            -422.919216
 Sum of electronic and thermal Free Energies=         -422.961012

                     E (Thermal)             CV                S
                      KCal/Mol        Cal/Mol-Kelvin    Cal/Mol-Kelvin
 Total                  104.419             31.763             87.967
 Electronic               0.000              0.000              0.000
 Translational            0.889              2.981             40.409
 Rotational               0.889              2.981             28.540
 Vibrational            102.641             25.801             19.018
 Vibration     1          0.595              1.979              4.999
 Vibration     2          0.620              1.896              2.595
 Vibration     3          0.641              1.830              2.069
 Vibration     4          0.687              1.690              1.465
 Vibration     5          0.706              1.635              1.308
 Vibration     6          0.721              1.593              1.207
 Vibration     7          0.782              1.429              0.895
 Vibration     8          0.837              1.293              0.709
 Vibration     9          0.856              1.248              0.656

 Normal termination of Gaussian 09 at Mon Jan 27 17:19:13 2020.
