 Gaussian 09, Revision D.01,
 Gaussian 09:  ES64L-G09RevD.01 24-Apr-2013

 -----------------------------
 # b3lyp 6-31G(2df,p) opt Freq
 -----------------------------

 -----
 titel
 -----
 Symbolic Z-matrix:
 Charge =  0 Multiplicity = 1

 SCF Done:  E(RB3LYP) =  -423.189767004     A.U. after   14 cycles
 Optimization completed.
    -- Stationary point found.
 Normal termination of Gaussian 09 at Mon Jan 27 13:07:16 2020.

 ----------------------------------------------------------------------
 #N Geom=AllCheck Guess=TCheck SCRF=Check GenChk RB3LYP/6-31G(2df,p) Fr
 eq
 ----------------------------------------------------------------------

 Structure from the checkpoint file:  "/scratch/puck/g09_76c0d6db-f974-4f8d-a6b4-9800d1483147/Gau-156005.chk"
 -----
 titel
 -----
 Charge =  0 Multiplicity = 1

                         Standard orientation:
 ---------------------------------------------------------------------
 Center     Atomic      Atomic             Coordinates (Angstroms)
 Number     Number       Type             X           Y           Z
 ---------------------------------------------------------------------
      1          8           0        2.847936   -0.072382   -0.204898
      2          6           0        1.662845   -0.014973    0.034031
      3          6           0        0.977856    1.331210    0.256875
      4          6           0       -0.425505    1.503506   -0.358179
      5          6           0       -1.489190    0.734036    0.399371
      6          6           0       -2.519863   -0.093616   -0.342878
      7          6           0       -1.400461   -0.772164    0.380468
      8          8           0       -0.408555   -1.348182   -0.414795
      9          6           0        0.878838   -1.331191    0.177923
     10          1           0        0.909197    1.475795    1.345556
     11          1           0        1.673745    2.087748   -0.116304
     12          1           0       -0.676911    2.569671   -0.358436
     13          1           0       -0.406161    1.191314   -1.406700
     14          1           0       -1.805509    1.187468    1.335480
     15          1           0       -3.520257   -0.177801    0.066091
     16          1           0       -2.468888   -0.097321   -1.426313
     17          1           0       -1.618814   -1.329777    1.292206
     18          1           0        0.818819   -1.577195    1.251768
     19          1           0        1.472613   -2.106245   -0.311467
 ---------------------------------------------------------------------

 SCF Done:  E(RB3LYP) =  -423.189767004     A.U. after    1 cycles

 The electronic state is 1-A.
 Alpha  occ. eigenvalues --  -19.15689 -19.12995 -10.26896 -10.24057 -10.23815
 Alpha  occ. eigenvalues --  -10.19760 -10.19649 -10.19420 -10.19180  -1.05430
 Alpha  occ. eigenvalues --   -1.03788  -0.86369  -0.78808  -0.71448  -0.67181
 Alpha  occ. eigenvalues --   -0.60576  -0.57178  -0.55313  -0.50454  -0.49823
 Alpha  occ. eigenvalues --   -0.47641  -0.46098  -0.42891  -0.42427  -0.41277
 Alpha  occ. eigenvalues --   -0.39875  -0.37902  -0.36799  -0.34832  -0.33995
 Alpha  occ. eigenvalues --   -0.32584  -0.28665  -0.26398  -0.23398
 Alpha virt. eigenvalues --   -0.01851   0.07863   0.10618   0.10739   0.12473
 Alpha virt. eigenvalues --    0.12821   0.13760   0.14888   0.15835   0.16533
 Alpha virt. eigenvalues --    0.17145   0.18437   0.19585   0.20588   0.21668

 Mulliken charges:
               1
     1  O   -0.295400
     2  C    0.369585
     3  C   -0.291840
     4  C   -0.238219
     5  C   -0.037693
     6  C   -0.337158
     7  C    0.117589
     8  O   -0.240462
     9  C   -0.172546
    10  H    0.119658
    11  H    0.122110
    12  H    0.107662
    13  H    0.115547
    14  H    0.087522
    15  H    0.116975
    16  H    0.128362
    17  H    0.086359
    18  H    0.108142
    19  H    0.133808
 Sum of Mulliken charges =   0.00000

 Dipole moment (field-independent basis, Debye):
    X=             -2.5368    Y=              0.8585    Z=              1.4948  Tot=              3.0670
 Quadrupole moment (field-independent basis, Debye-Ang):
   XX=            -61.3528   YY=            -52.2604   ZZ=            -51.2110
   XY=             -0.6280   XZ=              0.3019   YZ=             -1.4673

  Exact polarizability:  90.857  -0.726  74.270  -1.179  -0.884  61.942
 Approx polarizability: 125.560  -1.536 104.739  -3.125   1.279  98.852

                      1                      2                      3
                      A                      A                      A
 Frequencies --     51.4730               173.9516               246.2081
 Red. masses --      4.4810                 2.1864                 2.5024
 Frc consts  --      0.0070                 0.0390                 0.0894
 IR Inten    --      3.6090                 0.6980                 3.3780

                      4                      5                      6
                      A                      A                      A
 Frequencies --    270.4578               314.1130               367.9709
 Red. masses --      4.8587                 3.7349                 4.1981
 Frc consts  --      0.2094                 0.2171                 0.3349
 IR Inten    --      5.9569                 0.4999                 3.5944

                      7                      8                      9
                      A                      A                      A
 Frequencies --    391.4590               472.9264               499.9226
 Red. masses --      2.2135                 2.3085                 3.7195
 Frc consts  --      0.1998                 0.3042                 0.5477
 IR Inten    --      2.5434                 1.6530                12.6918

                     10                     11                     12
                      A                      A                      A
 Frequencies --    603.8365               653.6049               756.5476
 Red. masses --      2.2764                 4.0405                 2.7036
 Frc consts  --      0.4890                 1.0170                 0.9117
 IR Inten    --      0.9444                 1.0332                21.6007

                     13                     14                     15
                      A                      A                      A
 Frequencies --    767.7902               805.6781               847.6515
 Red. masses --      2.1184                 2.4492                 1.5674
 Frc consts  --      0.7358                 0.9367                 0.6635
 IR Inten    --      0.0994                12.4065                 3.6837

                     16                     17                     18
                      A                      A                      A
 Frequencies --    864.3210               928.9154               967.8513
 Red. masses --      1.8068                 1.7394                 2.0937
 Frc consts  --      0.7953                 0.8843                 1.1555
 IR Inten    --      5.1554                 3.6112                 2.4005

                     19                     20                     21
                      A                      A                      A
 Frequencies --    985.2973              1042.5830              1059.7576
 Red. masses --      2.7270                 1.6573                 1.5809
 Frc consts  --      1.5598                 1.0614                 1.0461
 IR Inten    --      4.7480                 4.9211                18.3675

                     22                     23                     24
                      A                      A                      A
 Frequencies --   1079.3252              1099.9648              1123.1855
 Red. masses --      2.5860                 2.3530                 1.3820
 Frc consts  --      1.7749                 1.6774                 1.0272
 IR Inten    --      2.6133                29.8995                11.4555

                     25                     26                     27
                      A                      A                      A
 Frequencies --   1131.9008              1172.7680              1187.4767
 Red. masses --      1.7934                 1.9145                 2.4769
 Frc consts  --      1.3538                 1.5515                 2.0579
 IR Inten    --     22.8275                20.7010                24.9753

                     28                     29                     30
                      A                      A                      A
 Frequencies --   1230.6065              1236.5380              1274.6029
 Red. masses --      1.5255                 1.5644                 1.4099
 Frc consts  --      1.3612                 1.4093                 1.3496
 IR Inten    --     21.3489                 7.0137                 7.4861

                     31                     32                     33
                      A                      A                      A
 Frequencies --   1304.9799              1337.7260              1344.5100
 Red. masses --      1.4125                 1.3158                 1.3880
 Frc consts  --      1.4172                 1.3873                 1.4783
 IR Inten    --     30.6962                 2.0117                12.2349

                     34                     35                     36
                      A                      A                      A
 Frequencies --   1368.6933              1396.0850              1416.6147
 Red. masses --      1.3226                 1.4289                 1.5639
 Frc consts  --      1.4598                 1.6409                 1.8491
 IR Inten    --     16.6278                10.1097                 4.9736

                     37                     38                     39
                      A                      A                      A
 Frequencies --   1459.6466              1467.5588              1479.1240
 Red. masses --      1.0871                 1.0882                 1.2767
 Frc consts  --      1.3646                 1.3809                 1.6457
 IR Inten    --      6.6694                 3.3019                 4.2854

                     40                     41                     42
                      A                      A                      A
 Frequencies --   1492.4139              1798.7168              2968.5686
 Red. masses --      1.2366                11.4880                 1.0692
 Frc consts  --      1.6228                21.8988                 5.5513
 IR Inten    --     15.1468               167.3335                27.8277

                     43                     44                     45
                      A                      A                      A
 Frequencies --   3008.6458              3044.7323              3085.6237
 Red. masses --      1.0679                 1.0618                 1.1009
 Frc consts  --      5.6953                 5.7997                 6.1757
 IR Inten    --     11.1161                25.6393                12.3952

                     46                     47                     48
                      A                      A                      A
 Frequencies --   3090.5631              3094.1749              3112.6660
 Red. masses --      1.0871                 1.0930                 1.0924
 Frc consts  --      6.1179                 6.1656                 6.2357
 IR Inten    --     33.3965                16.2058                14.6466

                     49                     50                     51
                      A                      A                      A
 Frequencies --   3136.8421              3140.0439              3226.6533
 Red. masses --      1.0643                 1.0799                 1.1168
 Frc consts  --      6.1703                 6.2734                 6.8505
 IR Inten    --     15.9837                14.6538                 7.4154

 - Thermochemistry -
 -------------------
 Temperature   298.150 Kelvin.  Pressure   1.00000 Atm.
 Atom     1 has atomic number  8 and mass  15.99491

 Molecular mass:   126.06808 amu.
 Principal axes and moments of inertia in atomic units:
                           1         2         3
     Eigenvalues --   570.334351316.395431727.31808
           X            0.99998  -0.00487   0.00348
           Y            0.00493   0.99982  -0.01842
           Z           -0.00339   0.01844   0.99982
 This molecule is an asymmetric top.
 Rotational symmetry number  1.
 Warning -- assumption of classical behavior for rotation
           may cause significant error
 Rotational temperatures (Kelvin)      0.15186     0.06580     0.05014
 Rotational constants (GHZ):           3.16436     1.37097     1.04482
 Zero-point vibrational energy     420985.4 (Joules/Mol)
                                  100.61793 (Kcal/Mol)
 Warning -- explicit consideration of  10 degrees of freedom as
           vibrations may cause significant error
 Vibrational temperatures:     74.06   250.28   354.24   389.13   451.94
          (Kelvin)            529.43   563.22   680.43   719.28   868.79
                              940.39  1088.50  1104.68  1159.19  1219.58
                             1243.56  1336.50  1392.52  1417.62  1500.04
                             1524.75  1552.91  1582.60  1616.01  1628.55
                             1687.35  1708.51  1770.57  1779.10  1833.87
                             1877.57  1924.69  1934.45  1969.24  2008.65
                             2038.19  2100.10  2111.49  2128.13  2147.25
                             2587.95  4271.10  4328.76  4380.69  4439.52
                             4446.63  4451.82  4478.43  4513.21  4517.82
                             4642.43

 Zero-point correction=                           0.160345 (Hartree/Particle)
 Thermal correction to Energy=                    0.168209
 Thermal correction to Enthalpy=                  0.169153
 Thermal correction to Gibbs Free Energy=         0.127674
 Sum of electronic and zero-point Energies=           -423.029422
 Sum of electronic and thermal Energies=              -423.021558
 Sum of electronic and thermal Enthalpies=            -423.020614
 Sum of electronic and thermal Free Energies=         -423.062093

                     E (Thermal)             CV                S
                      KCal/Mol        Cal/Mol-Kelvin    Cal/Mol-Kelvin
 Total                  105.553             30.745             87.300
 Electronic               0.000              0.000              0.000
 Translational            0.889              2.981             40.409
 Rotational               0.889              2.981             28.652
 Vibrational            103.775             24.783             18.240
 Vibration     1          0.596              1.977              4.760
 Vibration     2          0.627              1.875              2.392
 Vibration     3          0.661              1.769              1.758
 Vibration     4          0.674              1.728              1.593
 Vibration     5          0.702              1.647              1.341
 Vibration     6          0.741              1.538              1.088
 Vibration     7          0.759              1.488              0.995
 Vibration     8          0.830              1.310              0.729
 Vibration     9          0.855              1.250              0.658
 Vibration    10          0.962              1.024              0.443

 Optimization completed.
    -- Stationary point found.
 Normal termination of Gaussian 09 at Mon Jan 27 13:50:26 2020.
