 Gaussian 09, Revision D.01,
 Gaussian 09:  ES64L-G09RevD.01 24-Apr-2013

 -----------------------------
 # b3lyp 6-31G(2df,p) opt Freq
 -----------------------------

 -----
 titel
 -----
 Symbolic Z-matrix:
 Charge =  0 Multiplicity = 1

 SCF Done:  E(RB3LYP) =  -423.119398423     A.U. after   13 cycles
 Optimization completed.
    -- Stationary point found.
 Normal termination of Gaussian 09 at Tue Jan 28 09:49:23 2020.

 ----------------------------------------------------------------------
 #N Geom=AllCheck Guess=TCheck SCRF=Check GenChk RB3LYP/6-31G(2df,p) Fr
 eq
 ----------------------------------------------------------------------

 Structure from the checkpoint file:  "/scratch/puck/g09_f4b354c5-cf89-41c2-9f8e-50c90aa164df/Gau-18736.chk"
 -----
 titel
 -----
 Charge =  0 Multiplicity = 1

                         Standard orientation:
 ---------------------------------------------------------------------
 Center     Atomic      Atomic             Coordinates (Angstroms)
 Number     Number       Type             X           Y           Z
 ---------------------------------------------------------------------
      1          8           0       -2.394294    0.834029    0.262455
      2          6           0       -1.770503   -0.135385   -0.572828
      3          6           0       -0.400510   -0.511869   -0.103070
      4          8           0       -0.267722   -1.498713    0.937331
      5          6           0        0.416736   -1.725617   -0.298559
      6          6           0        1.728832   -0.921023   -0.258102
      7          6           0        0.860511    0.342655   -0.035380
      8          6           0        1.105963    1.527844    0.844518
      9          6           0        1.058897    1.692226   -0.660609
     10          1           0       -1.989751    1.688100    0.084061
     11          1           0       -2.407501   -1.024096   -0.543430
     12          1           0       -1.720411    0.211033   -1.615963
     13          1           0        0.199383   -2.646295   -0.828466
     14          1           0        2.415691   -1.200967    0.544749
     15          1           0        2.258314   -0.910183   -1.215020
     16          1           0        0.276480    1.901631    1.435508
     17          1           0        2.072043    1.609262    1.331652
     18          1           0        0.202618    2.195106   -1.101295
     19          1           0        1.989711    1.880896   -1.185906
 ---------------------------------------------------------------------

 SCF Done:  E(RB3LYP) =  -423.119398423     A.U. after    1 cycles

 The electronic state is 1-A.
 Alpha  occ. eigenvalues --  -19.14542 -19.14119 -10.23661 -10.23629 -10.23595
 Alpha  occ. eigenvalues --  -10.20414 -10.19506 -10.19147 -10.18879  -1.07400
 Alpha  occ. eigenvalues --   -1.02026  -0.86714  -0.76817  -0.72606  -0.62638
 Alpha  occ. eigenvalues --   -0.61180  -0.60391  -0.53014  -0.51818  -0.49946
 Alpha  occ. eigenvalues --   -0.49118  -0.45364  -0.43808  -0.42160  -0.39560
 Alpha  occ. eigenvalues --   -0.38733  -0.37238  -0.35851  -0.33645  -0.31238
 Alpha  occ. eigenvalues --   -0.29313  -0.27908  -0.26696  -0.24962
 Alpha virt. eigenvalues --    0.04154   0.08956   0.10390   0.10510   0.12175
 Alpha virt. eigenvalues --    0.13125   0.13700   0.14320   0.14705   0.15602
 Alpha virt. eigenvalues --    0.17314   0.18722   0.19858   0.21030   0.22185

 Mulliken charges:
               1
     1  O   -0.409510
     2  C   -0.212900
     3  C    0.352504
     4  O   -0.284766
     5  C   -0.054723
     6  C   -0.347870
     7  C    0.323603
     8  C   -0.316940
     9  C   -0.342726
    10  H    0.288282
    11  H    0.126733
    12  H    0.097239
    13  H    0.103981
    14  H    0.113244
    15  H    0.107424
    16  H    0.119712
    17  H    0.118024
    18  H    0.101426
    19  H    0.117263
 Sum of Mulliken charges =   0.00000

 Dipole moment (field-independent basis, Debye):
    X=              1.5533    Y=              0.9766    Z=             -2.4714  Tot=              3.0781
 Quadrupole moment (field-independent basis, Debye-Ang):
   XX=            -55.1126   YY=            -50.4384   ZZ=            -54.4568
   XY=             -0.8403   XZ=              2.6258   YZ=              2.5977

  Exact polarizability:  78.398  -0.665  82.522  -0.132   2.016  64.756
 Approx polarizability: 107.037  -2.665 117.630  -4.385  -0.056 103.785

                      1                      2                      3
                      A                      A                      A
 Frequencies --     66.8790               115.8319               171.9212
 Red. masses --      3.5814                 3.6914                 3.7928
 Frc consts  --      0.0094                 0.0292                 0.0660
 IR Inten    --      4.3143                 0.7316                 5.1362

                      4                      5                      6
                      A                      A                      A
 Frequencies --    199.0687               262.3401               281.8960
 Red. masses --      1.7315                 1.2716                 2.7234
 Frc consts  --      0.0404                 0.0516                 0.1275
 IR Inten    --     25.2745                76.6785                 5.8063

                      7                      8                      9
                      A                      A                      A
 Frequencies --    348.7096               390.5154               477.5008
 Red. masses --      2.2093                 3.0122                 2.6756
 Frc consts  --      0.1583                 0.2706                 0.3594
 IR Inten    --      9.0633                 2.6090                 5.5554

                     10                     11                     12
                      A                      A                      A
 Frequencies --    498.0737               587.4929               710.7095
 Red. masses --      4.9488                 3.8288                 3.0452
 Frc consts  --      0.7233                 0.7786                 0.9062
 IR Inten    --      7.3696                 6.6805                10.8549

                     13                     14                     15
                      A                      A                      A
 Frequencies --    764.6323               776.5037               848.7490
 Red. masses --      3.6305                 1.1517                 2.1482
 Frc consts  --      1.2506                 0.4092                 0.9118
 IR Inten    --      7.1594                 1.4812                 3.1667

                     16                     17                     18
                      A                      A                      A
 Frequencies --    876.7165               893.2690               932.8993
 Red. masses --      2.0610                 2.1357                 1.6409
 Frc consts  --      0.9334                 1.0041                 0.8414
 IR Inten    --     12.6462                 3.3880                 7.8597

                     19                     20                     21
                      A                      A                      A
 Frequencies --    951.6135               975.6906               989.2164
 Red. masses --      2.0129                 2.7573                 2.0134
 Frc consts  --      1.0740                 1.5465                 1.1608
 IR Inten    --      7.0857                21.5998                18.5923

                     22                     23                     24
                      A                      A                      A
 Frequencies --   1017.7288              1046.0997              1053.0389
 Red. masses --      1.9615                 4.6253                 1.4209
 Frc consts  --      1.1970                 2.9822                 0.9283
 IR Inten    --      8.1363                73.1285                 3.2366

                     25                     26                     27
                      A                      A                      A
 Frequencies --   1071.1974              1078.9623              1128.1389
 Red. masses --      1.8426                 1.7794                 2.1708
 Frc consts  --      1.2457                 1.2205                 1.6278
 IR Inten    --      5.5916                 9.7439                 8.6651

                     28                     29                     30
                      A                      A                      A
 Frequencies --   1162.8820              1184.2897              1202.1707
 Red. masses --      1.3734                 1.2900                 1.5419
 Frc consts  --      1.0942                 1.0660                 1.3129
 IR Inten    --      3.2920                 0.0201                10.7514

                     31                     32                     33
                      A                      A                      A
 Frequencies --   1231.6759              1253.0633              1280.6611
 Red. masses --      1.3342                 1.5102                 2.4082
 Frc consts  --      1.1925                 1.3971                 2.3270
 IR Inten    --      7.9320                12.1029                 9.7781

                     34                     35                     36
                      A                      A                      A
 Frequencies --   1374.6509              1389.9226              1400.4916
 Red. masses --      1.5238                 1.8043                 1.3830
 Frc consts  --      1.6966                 2.0537                 1.5982
 IR Inten    --     11.1985                 4.8433                21.8401

                     37                     38                     39
                      A                      A                      A
 Frequencies --   1454.5185              1465.7907              1478.2767
 Red. masses --      2.0924                 1.0882                 1.3133
 Frc consts  --      2.6081                 1.3775                 1.6909
 IR Inten    --     15.4810                 0.9759                 2.0185

                     40                     41                     42
                      A                      A                      A
 Frequencies --   1480.9423              1507.9851              2994.8023
 Red. masses --      1.1794                 1.6442                 1.0687
 Frc consts  --      1.5240                 2.2029                 5.6471
 IR Inten    --      5.3409                 0.5807                41.0625

                     43                     44                     45
                      A                      A                      A
 Frequencies --   3056.2753              3093.0108              3113.3338
 Red. masses --      1.0573                 1.0941                 1.1085
 Frc consts  --      5.8186                 6.1671                 6.3304
 IR Inten    --     31.1683                15.9363                16.3691

                     46                     47                     48
                      A                      A                      A
 Frequencies --   3117.3709              3131.1069              3181.1558
 Red. masses --      1.0540                 1.0555                 1.0939
 Frc consts  --      6.0351                 6.0969                 6.5224
 IR Inten    --     19.5011                11.2390                22.2947

                     49                     50                     51
                      A                      A                      A
 Frequencies --   3195.8077              3217.1784              3829.5944
 Red. masses --      1.1163                 1.1157                 1.0666
 Frc consts  --      6.7174                 6.8039                 9.2160
 IR Inten    --      5.1934                12.8092                15.6466

 - Thermochemistry -
 -------------------
 Temperature   298.150 Kelvin.  Pressure   1.00000 Atm.
 Atom     1 has atomic number  8 and mass  15.99491

 Molecular mass:   126.06808 amu.
 Principal axes and moments of inertia in atomic units:
                           1         2         3
     Eigenvalues --   838.026371022.344991527.30504
           X            0.99956   0.02560   0.01464
           Y           -0.02592   0.99942   0.02210
           Z           -0.01407  -0.02247   0.99965
 This molecule is an asymmetric top.
 Rotational symmetry number  1.
 Warning -- assumption of classical behavior for rotation
           may cause significant error
 Rotational temperatures (Kelvin)      0.10335     0.08472     0.05671
 Rotational constants (GHZ):           2.15356     1.76530     1.18165
 Zero-point vibrational energy     414579.9 (Joules/Mol)
                                   99.08698 (Kcal/Mol)
 Warning -- explicit consideration of  11 degrees of freedom as
           vibrations may cause significant error
 Vibrational temperatures:     96.22   166.66   247.36   286.42   377.45
          (Kelvin)            405.58   501.71   561.86   687.02   716.62
                              845.27  1022.55  1100.13  1117.21  1221.16
                             1261.40  1285.21  1342.23  1369.16  1403.80
                             1423.26  1464.28  1505.10  1515.09  1541.21
                             1552.38  1623.14  1673.13  1703.93  1729.65
                             1772.10  1802.88  1842.58  1977.81  1999.79
                             2014.99  2092.73  2108.94  2126.91  2130.74
                             2169.65  4308.85  4397.29  4450.15  4479.39
                             4485.20  4504.96  4576.97  4598.05  4628.80
                             5509.93

 Zero-point correction=                           0.157905 (Hartree/Particle)
 Thermal correction to Energy=                    0.166590
 Thermal correction to Enthalpy=                  0.167534
 Thermal correction to Gibbs Free Energy=         0.124449
 Sum of electronic and zero-point Energies=           -422.961493
 Sum of electronic and thermal Energies=              -422.952809
 Sum of electronic and thermal Enthalpies=            -422.951865
 Sum of electronic and thermal Free Energies=         -422.994949

                     E (Thermal)             CV                S
                      KCal/Mol        Cal/Mol-Kelvin    Cal/Mol-Kelvin
 Total                  104.537             32.999             90.679
 Electronic               0.000              0.000              0.000
 Translational            0.889              2.981             40.409
 Rotational               0.889              2.981             28.661
 Vibrational            102.759             27.037             21.609
 Vibration     1          0.598              1.970              4.243
 Vibration     2          0.608              1.936              3.169
 Vibration     3          0.626              1.877              2.414
 Vibration     4          0.637              1.841              2.142
 Vibration     5          0.670              1.742              1.646
 Vibration     6          0.681              1.707              1.522
 Vibration     7          0.726              1.578              1.172
 Vibration     8          0.758              1.490              0.998
 Vibration     9          0.834              1.300              0.717
 Vibration    10          0.854              1.254              0.663
 Vibration    11          0.945              1.058              0.472

 Optimization completed.
    -- Stationary point found.
 Normal termination of Gaussian 09 at Tue Jan 28 10:32:56 2020.
