 Gaussian 09, Revision D.01,
 Gaussian 09:  ES64L-G09RevD.01 24-Apr-2013

 -----------------------------
 # b3lyp 6-31G(2df,p) opt Freq
 -----------------------------

 -----
 titel
 -----
 Symbolic Z-matrix:
 Charge =  0 Multiplicity = 1

 SCF Done:  E(RB3LYP) =  -423.179590449     A.U. after   14 cycles
 Optimization completed.
    -- Stationary point found.
 Normal termination of Gaussian 09 at Mon Jan 27 16:18:37 2020.

 ----------------------------------------------------------------------
 #N Geom=AllCheck Guess=TCheck SCRF=Check GenChk RB3LYP/6-31G(2df,p) Fr
 eq
 ----------------------------------------------------------------------

 Structure from the checkpoint file:  "/scratch/puck/g09_25a4818f-7f46-49a0-b285-d0a39e61905c/Gau-83517.chk"
 -----
 titel
 -----
 Charge =  0 Multiplicity = 1

                         Standard orientation:
 ---------------------------------------------------------------------
 Center     Atomic      Atomic             Coordinates (Angstroms)
 Number     Number       Type             X           Y           Z
 ---------------------------------------------------------------------
      1          6           0        0.840062   -1.369413    1.250286
      2          6           0        0.484265   -0.652371   -0.054653
      3          8           0        0.098635   -1.629656   -0.996262
      4          6           0        1.674292    0.246667   -0.518911
      5          6           0        1.289454    1.626934   -0.046888
      6          6           0        0.011978    1.699796    0.333809
      7          6           0       -0.646765    0.383857    0.164005
      8          6           0       -1.995798    0.005397    0.586159
      9          8           0       -1.739150    0.307461   -0.793514
     10          1           0        1.647323   -2.084171    1.065446
     11          1           0        1.172274   -0.657673    2.012210
     12          1           0       -0.020720   -1.922052    1.635710
     13          1           0       -0.645124   -1.247892   -1.486126
     14          1           0        2.632390   -0.092794   -0.110370
     15          1           0        1.765092    0.210796   -1.611383
     16          1           0        1.985237    2.459060   -0.042984
     17          1           0       -0.512335    2.584166    0.674374
     18          1           0       -2.215159   -1.040918    0.794189
     19          1           0       -2.629796    0.723827    1.104297
 ---------------------------------------------------------------------

 SCF Done:  E(RB3LYP) =  -423.179590449     A.U. after    1 cycles

 The electronic state is 1-A.
 Alpha  occ. eigenvalues --  -19.16029 -19.12497 -10.24417 -10.23974 -10.23871
 Alpha  occ. eigenvalues --  -10.19663 -10.18913 -10.18393 -10.17347  -1.07604
 Alpha  occ. eigenvalues --   -1.01035  -0.84220  -0.74263  -0.70241  -0.66507
 Alpha  occ. eigenvalues --   -0.64721  -0.56379  -0.55398  -0.52635  -0.48521
 Alpha  occ. eigenvalues --   -0.45864  -0.45057  -0.43099  -0.41572  -0.38992
 Alpha  occ. eigenvalues --   -0.38250  -0.37416  -0.36821  -0.35561  -0.33324
 Alpha  occ. eigenvalues --   -0.31567  -0.27914  -0.26000  -0.25073
 Alpha virt. eigenvalues --   -0.00142   0.09235   0.09613   0.11155   0.12225
 Alpha virt. eigenvalues --    0.12508   0.14078   0.15682   0.16018   0.16805
 Alpha virt. eigenvalues --    0.17523   0.18704   0.20177   0.21304   0.22121

 Mulliken charges:
               1
     1  C   -0.411205
     2  C    0.322654
     3  O   -0.487435
     4  C   -0.322914
     5  C   -0.072256
     6  C   -0.150866
     7  C    0.347732
     8  C   -0.248697
     9  O   -0.296540
    10  H    0.125326
    11  H    0.115836
    12  H    0.114864
    13  H    0.289300
    14  H    0.105455
    15  H    0.120837
    16  H    0.103413
    17  H    0.104305
    18  H    0.122228
    19  H    0.117963
 Sum of Mulliken charges =   0.00000

 Dipole moment (field-independent basis, Debye):
    X=              0.2783    Y=              1.3067    Z=              1.6447  Tot=              2.1190
 Quadrupole moment (field-independent basis, Debye-Ang):
   XX=            -50.5113   YY=            -54.4666   ZZ=            -53.8163
   XY=              2.1104   XZ=             -2.6327   YZ=             -0.5498

  Exact polarizability:  90.916   2.335  75.517  -6.607   1.085  62.156
 Approx polarizability: 139.486   2.983 105.319  -8.458   3.762  98.437

                      1                      2                      3
                      A                      A                      A
 Frequencies --     88.2988               219.5207               247.5403
 Red. masses --      3.3930                 2.6316                 1.2550
 Frc consts  --      0.0156                 0.0747                 0.0453
 IR Inten    --      1.3877                 0.3583                 0.3988

                      4                      5                      6
                      A                      A                      A
 Frequencies --    256.1392               288.8029               331.6088
 Red. masses --      2.3365                 3.2599                 2.7472
 Frc consts  --      0.0903                 0.1602                 0.1780
 IR Inten    --      1.2576                 9.3277                10.8480

                      7                      8                      9
                      A                      A                      A
 Frequencies --    358.8220               427.2157               470.2642
 Red. masses --      2.6898                 2.9356                 1.4109
 Frc consts  --      0.2040                 0.3157                 0.1838
 IR Inten    --     15.1364                 1.5491                43.2379

                     10                     11                     12
                      A                      A                      A
 Frequencies --    486.8923               545.4568               585.2510
 Red. masses --      1.9971                 4.2183                 3.1294
 Frc consts  --      0.2789                 0.7395                 0.6315
 IR Inten    --      5.6150                 7.8441                22.7809

                     13                     14                     15
                      A                      A                      A
 Frequencies --    641.6113               726.5783               768.1799
 Red. masses --      4.6639                 1.8901                 3.2773
 Frc consts  --      1.1312                 0.5879                 1.1395
 IR Inten    --      5.0247                 8.9875                16.6226

                     16                     17                     18
                      A                      A                      A
 Frequencies --    827.9525               887.2108               914.6069
 Red. masses --      3.3307                 2.1187                 1.7286
 Frc consts  --      1.3452                 0.9826                 0.8520
 IR Inten    --     22.0969                 4.8770                 2.0832

                     19                     20                     21
                      A                      A                      A
 Frequencies --    941.8258               962.4868               973.9644
 Red. masses --      2.0750                 1.8903                 1.4027
 Frc consts  --      1.0844                 1.0318                 0.7840
 IR Inten    --      0.3908                12.8228                 4.4445

                     22                     23                     24
                      A                      A                      A
 Frequencies --    981.7177               989.8777              1083.8956
 Red. masses --      1.8062                 3.5283                 1.6297
 Frc consts  --      1.0256                 2.0370                 1.1281
 IR Inten    --     16.7136                54.0769                 9.0706

                     25                     26                     27
                      A                      A                      A
 Frequencies --   1109.1094              1124.3151              1154.0852
 Red. masses --      1.4288                 1.2601                 1.4087
 Frc consts  --      1.0356                 0.9385                 1.1055
 IR Inten    --     10.0790                 0.2820                 0.8308

                     28                     29                     30
                      A                      A                      A
 Frequencies --   1179.2958              1182.6621              1224.1414
 Red. masses --      1.4805                 2.1736                 1.8991
 Frc consts  --      1.2131                 1.7912                 1.6767
 IR Inten    --      0.6265                 9.1355                80.4553

                     31                     32                     33
                      A                      A                      A
 Frequencies --   1246.5250              1313.7948              1341.5665
 Red. masses --      2.2887                 1.8870                 2.0112
 Frc consts  --      2.0953                 1.9190                 2.1327
 IR Inten    --      4.7741                 5.4546                 3.5019

                     34                     35                     36
                      A                      A                      A
 Frequencies --   1398.0756              1420.3173              1433.7504
 Red. masses --      1.2661                 1.5898                 2.0505
 Frc consts  --      1.4581                 1.8895                 2.4834
 IR Inten    --     21.9876                40.4632                38.8356

                     37                     38                     39
                      A                      A                      A
 Frequencies --   1476.5355              1486.9827              1496.8943
 Red. masses --      1.0857                 1.0737                 1.0670
 Frc consts  --      1.3946                 1.3988                 1.4086
 IR Inten    --      4.6633                 2.3987                 0.4608

                     40                     41                     42
                      A                      A                      A
 Frequencies --   1522.9978              1669.7351              3033.2839
 Red. masses --      1.4205                 6.3661                 1.0596
 Frc consts  --      1.9413                10.4573                 5.7442
 IR Inten    --      2.5446                 4.1780                22.3265

                     43                     44                     45
                      A                      A                      A
 Frequencies --   3041.4132              3069.8431              3082.9369
 Red. masses --      1.0351                 1.1020                 1.0507
 Frc consts  --      5.6413                 6.1189                 5.8839
 IR Inten    --     12.5605                17.8149                25.5002

                     46                     47                     48
                      A                      A                      A
 Frequencies --   3115.9337              3120.8488              3169.7663
 Red. masses --      1.1019                 1.1020                 1.1190
 Frc consts  --      6.3036                 6.3238                 6.6244
 IR Inten    --     18.1285                22.6624                16.5590

                     49                     50                     51
                      A                      A                      A
 Frequencies --   3187.0896              3215.7920              3711.6009
 Red. masses --      1.0868                 1.1028                 1.0649
 Frc consts  --      6.5039                 6.7195                 8.6437
 IR Inten    --      6.5603                14.7232                58.8477

 - Thermochemistry -
 -------------------
 Temperature   298.150 Kelvin.  Pressure   1.00000 Atm.
 Atom     1 has atomic number  6 and mass  12.00000

 Molecular mass:   126.06808 amu.
 Principal axes and moments of inertia in atomic units:
                           1         2         3
     Eigenvalues --   834.92199 948.479501293.79625
           X            0.99955   0.01822  -0.02400
           Y           -0.01910   0.99914  -0.03692
           Z            0.02330   0.03736   0.99903
 This molecule is an asymmetric top.
 Rotational symmetry number  1.
 Warning -- assumption of classical behavior for rotation
           may cause significant error
 Rotational temperatures (Kelvin)      0.10374     0.09132     0.06695
 Rotational constants (GHZ):           2.16157     1.90277     1.39492
 Zero-point vibrational energy     415911.7 (Joules/Mol)
                                   99.40529 (Kcal/Mol)
 Warning -- explicit consideration of  12 degrees of freedom as
           vibrations may cause significant error
 Vibrational temperatures:    127.04   315.84   356.15   368.53   415.52
          (Kelvin)            477.11   516.26   614.67   676.60   700.53
                              784.79   842.04   923.13  1045.38  1105.24
                             1191.24  1276.50  1315.91  1355.08  1384.80
                             1401.32  1412.47  1424.21  1559.48  1595.76
                             1617.64  1660.47  1696.74  1701.58  1761.26
                             1793.47  1890.26  1930.21  2011.52  2043.52
                             2062.84  2124.40  2139.43  2153.69  2191.25
                             2402.37  4364.21  4375.91  4416.81  4435.65
                             4483.13  4490.20  4560.58  4585.51  4626.80
                             5340.16

 Zero-point correction=                           0.158412 (Hartree/Particle)
 Thermal correction to Energy=                    0.166731
 Thermal correction to Enthalpy=                  0.167675
 Thermal correction to Gibbs Free Energy=         0.126081
 Sum of electronic and zero-point Energies=           -423.021178
 Sum of electronic and thermal Energies=              -423.012859
 Sum of electronic and thermal Enthalpies=            -423.011915
 Sum of electronic and thermal Free Energies=         -423.053510

                     E (Thermal)             CV                S
                      KCal/Mol        Cal/Mol-Kelvin    Cal/Mol-Kelvin
 Total                  104.625             33.204             87.543
 Electronic               0.000              0.000              0.000
 Translational            0.889              2.981             40.409
 Rotational               0.889              2.981             28.418
 Vibrational            102.848             27.243             18.717
 Vibration     1          0.601              1.957              3.697
 Vibration     2          0.647              1.811              1.963
 Vibration     3          0.661              1.767              1.748
 Vibration     4          0.666              1.752              1.688
 Vibration     5          0.685              1.695              1.481
 Vibration     6          0.714              1.612              1.252
 Vibration     7          0.734              1.557              1.127
 Vibration     8          0.789              1.411              0.868
 Vibration     9          0.827              1.316              0.737
 Vibration    10          0.843              1.279              0.692
 Vibration    11          0.901              1.150              0.554
 Vibration    12          0.942              1.063              0.476

 Optimization completed.
    -- Stationary point found.
 Normal termination of Gaussian 09 at Mon Jan 27 17:04:40 2020.
