 Gaussian 09, Revision D.01,
 Gaussian 09:  ES64L-G09RevD.01 24-Apr-2013

 -----------------------------
 # b3lyp 6-31G(2df,p) opt Freq
 -----------------------------

 -----
 titel
 -----
 Symbolic Z-matrix:
 Charge =  0 Multiplicity = 1

 SCF Done:  E(RB3LYP) =  -423.168441063     A.U. after   13 cycles
 Optimization completed.
    -- Stationary point found.
 Normal termination of Gaussian 09 at Mon Jan 27 11:25:31 2020.

 ----------------------------------------------------------------------
 #N Geom=AllCheck Guess=TCheck SCRF=Check GenChk RB3LYP/6-31G(2df,p) Fr
 eq
 ----------------------------------------------------------------------

 Structure from the checkpoint file:  "/scratch/puck/g09_0d342b80-93fa-42fc-b413-9a20bec1333c/Gau-22655.chk"
 -----
 titel
 -----
 Charge =  0 Multiplicity = 1

                         Standard orientation:
 ---------------------------------------------------------------------
 Center     Atomic      Atomic             Coordinates (Angstroms)
 Number     Number       Type             X           Y           Z
 ---------------------------------------------------------------------
      1          6           0        0.769835   -0.853239    1.107704
      2          6           0        1.385860    0.477831    0.652174
      3          8           0        1.958603    0.086135   -0.639019
      4          6           0        0.572757    0.007717   -1.057854
      5          6           0        0.239293    1.193719   -0.118828
      6          6           0       -1.187445    1.253004    0.441218
      7          6           0       -2.016795    0.123043   -0.185993
      8          8           0       -1.407428   -1.156582   -0.082417
      9          6           0        0.007829   -1.175146   -0.222236
     10          1           0        1.550825   -1.581059    1.336300
     11          1           0        0.083481   -0.785561    1.954510
     12          1           0        2.080984    1.003477    1.306624
     13          1           0        0.423994    0.012073   -2.137230
     14          1           0        0.599056    2.133924   -0.538317
     15          1           0       -1.186372    1.165189    1.533369
     16          1           0       -1.664585    2.208763    0.202156
     17          1           0       -2.995367    0.031153    0.294605
     18          1           0       -2.193111    0.368015   -1.246277
     19          1           0        0.263690   -2.153976   -0.631368
 ---------------------------------------------------------------------

 SCF Done:  E(RB3LYP) =  -423.168441063     A.U. after    1 cycles

 The electronic state is 1-A.
 Alpha  occ. eigenvalues --  -19.13658 -19.13472 -10.23734 -10.23407 -10.23080
 Alpha  occ. eigenvalues --  -10.23060 -10.19587 -10.18980 -10.17837  -1.05464
 Alpha  occ. eigenvalues --   -1.02458  -0.80034  -0.77427  -0.70938  -0.67705
 Alpha  occ. eigenvalues --   -0.63470  -0.56388  -0.53223  -0.52711  -0.48827
 Alpha  occ. eigenvalues --   -0.47582  -0.45038  -0.43182  -0.40853  -0.39548
 Alpha  occ. eigenvalues --   -0.39327  -0.36998  -0.35957  -0.34757  -0.32433
 Alpha  occ. eigenvalues --   -0.31288  -0.29598  -0.25595  -0.23522
 Alpha virt. eigenvalues --    0.08073   0.08963   0.09904   0.11650   0.13622
 Alpha virt. eigenvalues --    0.13937   0.14702   0.15510   0.16097   0.16989
 Alpha virt. eigenvalues --    0.17623   0.18067   0.19518   0.21123   0.22140

 Mulliken charges:
               1
     1  C   -0.248231
     2  C    0.060701
     3  O   -0.300433
     4  C    0.027372
     5  C   -0.008380
     6  C   -0.275782
     7  C   -0.056471
     8  O   -0.278117
     9  C    0.116462
    10  H    0.108839
    11  H    0.104892
    12  H    0.079442
    13  H    0.083011
    14  H    0.085694
    15  H    0.109319
    16  H    0.104359
    17  H    0.107598
    18  H    0.092128
    19  H    0.087596
 Sum of Mulliken charges =   0.00000

 Dipole moment (field-independent basis, Debye):
    X=             -0.9360    Y=              1.4592    Z=              0.6146  Tot=              1.8393
 Quadrupole moment (field-independent basis, Debye-Ang):
   XX=            -57.1427   YY=            -52.9288   ZZ=            -51.1542
   XY=             -3.0233   XZ=              2.6026   YZ=              0.3583

  Exact polarizability:  77.752  -2.961  71.021   2.454  -0.320  69.077
 Approx polarizability: 110.974  -2.136 104.219   0.825   0.213 106.422

                      1                      2                      3
                      A                      A                      A
 Frequencies --    195.5709               244.6587               345.8558
 Red. masses --      2.8465                 2.2071                 2.6916
 Frc consts  --      0.0641                 0.0778                 0.1897
 IR Inten    --      2.7746                 0.7317                 1.4184

                      4                      5                      6
                      A                      A                      A
 Frequencies --    399.6402               459.3154               499.7178
 Red. masses --      3.4789                 3.8189                 3.2923
 Frc consts  --      0.3274                 0.4747                 0.4844
 IR Inten    --      4.5378                 0.6717                 5.7967

                      7                      8                      9
                      A                      A                      A
 Frequencies --    541.8978               632.3752               752.8852
 Red. masses --      5.1918                 2.5252                 3.4725
 Frc consts  --      0.8983                 0.5950                 1.1597
 IR Inten    --      2.7914                 1.6034                 2.3926

                     10                     11                     12
                      A                      A                      A
 Frequencies --    761.4332               812.9018               848.4308
 Red. masses --      2.6351                 2.7849                 2.8593
 Frc consts  --      0.9001                 1.0843                 1.2127
 IR Inten    --      1.6716                 9.0515                12.1910

                     13                     14                     15
                      A                      A                      A
 Frequencies --    865.0016               888.8613               919.3074
 Red. masses --      2.6791                 2.6780                 3.4745
 Frc consts  --      1.1810                 1.2466                 1.7300
 IR Inten    --     16.0140                 5.2943                20.7342

                     16                     17                     18
                      A                      A                      A
 Frequencies --    959.7770               964.4788               976.5345
 Red. masses --      2.5050                 1.8218                 2.8084
 Frc consts  --      1.3596                 0.9985                 1.5779
 IR Inten    --     18.5796                 7.0540                23.1418

                     19                     20                     21
                      A                      A                      A
 Frequencies --    990.2803              1020.7527              1037.7397
 Red. masses --      2.0667                 2.0658                 2.0941
 Frc consts  --      1.1941                 1.2682                 1.3287
 IR Inten    --      8.5691                 3.5225                 0.9174

                     22                     23                     24
                      A                      A                      A
 Frequencies --   1095.7407              1109.6807              1113.8923
 Red. masses --      1.7318                 1.8862                 2.5452
 Frc consts  --      1.2251                 1.3685                 1.8606
 IR Inten    --      0.7881                30.7491                35.5405

                     25                     26                     27
                      A                      A                      A
 Frequencies --   1153.0647              1167.0265              1191.0236
 Red. masses --      2.0185                 1.7350                 1.8084
 Frc consts  --      1.5812                 1.3922                 1.5114
 IR Inten    --     39.7334                 1.4488                35.1731

                     28                     29                     30
                      A                      A                      A
 Frequencies --   1219.8642              1246.4540              1267.7542
 Red. masses --      1.3134                 1.3643                 1.3424
 Frc consts  --      1.1515                 1.2488                 1.2712
 IR Inten    --      1.7926                 9.6857                 2.1889

                     31                     32                     33
                      A                      A                      A
 Frequencies --   1278.7667              1298.4076              1310.7425
 Red. masses --      1.3006                 1.4488                 1.5195
 Frc consts  --      1.2531                 1.4391                 1.5382
 IR Inten    --      8.8676                 9.0235                 3.9272

                     34                     35                     36
                      A                      A                      A
 Frequencies --   1325.3432              1353.5893              1356.9488
 Red. masses --      1.4671                 1.4497                 1.4600
 Frc consts  --      1.5183                 1.5649                 1.5839
 IR Inten    --      8.1994                 1.5514                 2.9905

                     37                     38                     39
                      A                      A                      A
 Frequencies --   1379.4341              1415.4254              1476.3374
 Red. masses --      1.4469                 1.3036                 1.1009
 Frc consts  --      1.6222                 1.5387                 1.4138
 IR Inten    --      4.9901                 6.8487                 3.6919

                     40                     41                     42
                      A                      A                      A
 Frequencies --   1493.5516              1516.4605              2966.4288
 Red. masses --      1.0880                 1.0875                 1.0724
 Frc consts  --      1.4299                 1.4734                 5.5602
 IR Inten    --      6.3419                 0.3777                60.4120

                     43                     44                     45
                      A                      A                      A
 Frequencies --   3040.4783              3073.6130              3077.1258
 Red. masses --      1.0611                 1.0613                 1.0901
 Frc consts  --      5.7795                 5.9072                 6.0816
 IR Inten    --     19.5360                12.4918                48.1427

                     46                     47                     48
                      A                      A                      A
 Frequencies --   3082.6424              3095.7976              3107.3894
 Red. masses --      1.1011                 1.0883                 1.0876
 Frc consts  --      6.1649                 6.1452                 6.1874
 IR Inten    --     21.9420                26.9523                21.6481

                     49                     50                     51
                      A                      A                      A
 Frequencies --   3122.6149              3127.4737              3130.0405
 Red. masses --      1.0888                 1.1041                 1.0967
 Frc consts  --      6.2550                 6.3625                 6.3306
 IR Inten    --     73.4133                16.1057                23.1349

 - Thermochemistry -
 -------------------
 Temperature   298.150 Kelvin.  Pressure   1.00000 Atm.
 Atom     1 has atomic number  6 and mass  12.00000

 Molecular mass:   126.06808 amu.
 Principal axes and moments of inertia in atomic units:
                           1         2         3
     Eigenvalues --   590.10438 997.678561158.96776
           X            0.99857  -0.04952   0.02031
           Y            0.04973   0.99872  -0.00971
           Z           -0.01980   0.01071   0.99975
 This molecule is an asymmetric top.
 Rotational symmetry number  1.
 Warning -- assumption of classical behavior for rotation
           may cause significant error
 Rotational temperatures (Kelvin)      0.14678     0.08682     0.07473
 Rotational constants (GHZ):           3.05834     1.80894     1.55720
 Zero-point vibrational energy     428924.2 (Joules/Mol)
                                  102.51535 (Kcal/Mol)
 Warning -- explicit consideration of   7 degrees of freedom as
           vibrations may cause significant error
 Vibrational temperatures:    281.38   352.01   497.61   574.99   660.85
          (Kelvin)            718.98   779.67   909.85  1083.23  1095.53
                             1169.58  1220.70  1244.54  1278.87  1322.68
                             1380.90  1387.67  1405.01  1424.79  1468.63
                             1493.07  1576.52  1596.58  1602.64  1659.00
                             1679.09  1713.62  1755.11  1793.37  1824.01
                             1839.86  1868.12  1885.86  1906.87  1947.51
                             1952.34  1984.70  2036.48  2124.12  2148.88
                             2181.85  4268.02  4374.56  4422.24  4427.29
                             4435.23  4454.16  4470.83  4492.74  4499.73
                             4503.42

 Zero-point correction=                           0.163369 (Hartree/Particle)
 Thermal correction to Energy=                    0.169742
 Thermal correction to Enthalpy=                  0.170686
 Thermal correction to Gibbs Free Energy=         0.132947
 Sum of electronic and zero-point Energies=           -423.005072
 Sum of electronic and thermal Energies=              -422.998699
 Sum of electronic and thermal Enthalpies=            -422.997755
 Sum of electronic and thermal Free Energies=         -423.035494

                     E (Thermal)             CV                S
                      KCal/Mol        Cal/Mol-Kelvin    Cal/Mol-Kelvin
 Total                  106.515             27.173             79.429
 Electronic               0.000              0.000              0.000
 Translational            0.889              2.981             40.409
 Rotational               0.889              2.981             28.014
 Vibrational            104.737             21.211             11.006
 Vibration     1          0.636              1.846              2.174
 Vibration     2          0.660              1.772              1.769
 Vibration     3          0.724              1.584              1.185
 Vibration     4          0.766              1.471              0.964
 Vibration     5          0.817              1.340              0.768
 Vibration     6          0.855              1.251              0.659
 Vibration     7          0.897              1.157              0.561

 Optimization completed.
    -- Stationary point found.
 Normal termination of Gaussian 09 at Mon Jan 27 13:02:27 2020.
