 Gaussian 09, Revision D.01,
 Gaussian 09:  ES64L-G09RevD.01 24-Apr-2013

 -----------------------------
 # b3lyp 6-31G(2df,p) opt Freq
 -----------------------------

 -----
 titel
 -----
 Symbolic Z-matrix:
 Charge =  0 Multiplicity = 1

 SCF Done:  E(RB3LYP) =  -423.095309588     A.U. after   14 cycles
 Optimization completed.
    -- Stationary point found.
 Normal termination of Gaussian 09 at Tue Jan 28 09:23:25 2020.

 ----------------------------------------------------------------------
 #N Geom=AllCheck Guess=TCheck SCRF=Check GenChk RB3LYP/6-31G(2df,p) Fr
 eq
 ----------------------------------------------------------------------

 Structure from the checkpoint file:  "/scratch/puck/g09_0e836bf5-bdb4-41b3-b8b9-8b776001df7d/Gau-130994.chk"
 -----
 titel
 -----
 Charge =  0 Multiplicity = 1

                         Standard orientation:
 ---------------------------------------------------------------------
 Center     Atomic      Atomic             Coordinates (Angstroms)
 Number     Number       Type             X           Y           Z
 ---------------------------------------------------------------------
      1          6           0        2.918991   -0.579563   -0.007275
      2          8           0        1.827602   -0.172878   -0.820707
      3          6           0        0.701227    0.135182   -0.096658
      4          6           0        0.494166    1.419861    0.657758
      5          6           0       -0.423403    1.057876   -0.498785
      6          6           0       -1.447437   -0.062229   -0.098589
      7          6           0       -2.789772   -0.286294   -0.709284
      8          8           0       -1.248020   -0.397535    1.290285
      9          6           0       -0.362363   -0.952017    0.304767
     10          1           0        2.675776   -1.476759    0.578871
     11          1           0        3.748629   -0.807751   -0.679761
     12          1           0        3.218523    0.218478    0.685083
     13          1           0        0.123789    1.433302    1.674980
     14          1           0        1.217764    2.188781    0.404074
     15          1           0       -0.512283    1.664942   -1.389782
     16          1           0       -3.207298   -1.237828   -0.369911
     17          1           0       -3.483525    0.514785   -0.429467
     18          1           0       -2.718124   -0.301978   -1.801749
     19          1           0       -0.248357   -2.029555    0.259429
 ---------------------------------------------------------------------

 SCF Done:  E(RB3LYP) =  -423.095309588     A.U. after    1 cycles

 The electronic state is 1-A.
 Alpha  occ. eigenvalues --  -19.15255 -19.14846 -10.24239 -10.23926 -10.23152
 Alpha  occ. eigenvalues --  -10.22737 -10.18970 -10.18712 -10.18467  -1.07565
 Alpha  occ. eigenvalues --   -1.04414  -0.86152  -0.74794  -0.69903  -0.67973
 Alpha  occ. eigenvalues --   -0.61788  -0.55704  -0.54101  -0.52000  -0.49221
 Alpha  occ. eigenvalues --   -0.45464  -0.45213  -0.44156  -0.42249  -0.41027
 Alpha  occ. eigenvalues --   -0.39523  -0.38157  -0.36401  -0.33978  -0.33125
 Alpha  occ. eigenvalues --   -0.31479  -0.26763  -0.24497  -0.22656
 Alpha virt. eigenvalues --    0.06863   0.09753   0.10335   0.11297   0.12285
 Alpha virt. eigenvalues --    0.13929   0.14699   0.14965   0.15282   0.15818
 Alpha virt. eigenvalues --    0.17315   0.17927   0.18355   0.19796   0.20658

 Mulliken charges:
               1
     1  C   -0.256845
     2  O   -0.275559
     3  C    0.417387
     4  C   -0.351156
     5  C   -0.239606
     6  C    0.427356
     7  C   -0.502946
     8  O   -0.281244
     9  C   -0.145061
    10  H    0.113150
    11  H    0.127699
    12  H    0.116364
    13  H    0.133399
    14  H    0.114572
    15  H    0.101584
    16  H    0.134774
    17  H    0.132061
    18  H    0.129265
    19  H    0.104805
 Sum of Mulliken charges =   0.00000

 Dipole moment (field-independent basis, Debye):
    X=              0.4731    Y=             -0.2624    Z=             -0.7496  Tot=              0.9244
 Quadrupole moment (field-independent basis, Debye-Ang):
   XX=            -48.4861   YY=            -50.6227   ZZ=            -56.4963
   XY=             -0.6956   XZ=              4.8982   YZ=             -0.1103

  Exact polarizability:  91.726  -1.133  72.066   3.867  -0.718  63.628
 Approx polarizability: 116.735  -5.427 106.939   2.036  -2.453 104.049

                      1                      2                      3
                      A                      A                      A
 Frequencies --     86.6930               133.5153               163.9919
 Red. masses --      2.8065                 3.0022                 1.1039
 Frc consts  --      0.0124                 0.0315                 0.0175
 IR Inten    --      2.5412                 2.6941                 0.0897

                      4                      5                      6
                      A                      A                      A
 Frequencies --    200.0123               239.6342               284.1307
 Red. masses --      1.0596                 2.6830                 2.7213
 Frc consts  --      0.0250                 0.0908                 0.1294
 IR Inten    --      0.2328                 0.7651                 1.1589

                      7                      8                      9
                      A                      A                      A
 Frequencies --    364.2565               395.1025               429.2832
 Red. masses --      4.5922                 3.4309                 2.8802
 Frc consts  --      0.3590                 0.3156                 0.3127
 IR Inten    --     12.0695                 2.9286                 1.3695

                     10                     11                     12
                      A                      A                      A
 Frequencies --    468.4321               538.5513               608.2610
 Red. masses --      3.2870                 4.0304                 3.2243
 Frc consts  --      0.4250                 0.6887                 0.7028
 IR Inten    --      3.4545                 7.5370                 7.2608

                     13                     14                     15
                      A                      A                      A
 Frequencies --    670.6981               760.6168               816.9319
 Red. masses --      3.4644                 3.8075                 3.1654
 Frc consts  --      0.9182                 1.2978                 1.2447
 IR Inten    --      7.3893                 7.4147                 8.2181

                     16                     17                     18
                      A                      A                      A
 Frequencies --    861.1800               875.6523               906.8448
 Red. masses --      2.5945                 2.3051                 1.5274
 Frc consts  --      1.1337                 1.0414                 0.7401
 IR Inten    --      5.2679                17.1598                 6.0217

                     19                     20                     21
                      A                      A                      A
 Frequencies --    969.3014               980.2803               989.5452
 Red. masses --      2.8157                 1.9494                 1.4930
 Frc consts  --      1.5587                 1.1037                 0.8613
 IR Inten    --      1.7527                11.5303                 2.0657

                     22                     23                     24
                      A                      A                      A
 Frequencies --   1011.7288              1057.5001              1070.2920
 Red. masses --      1.8429                 2.8161                 2.7234
 Frc consts  --      1.1114                 1.8555                 1.8381
 IR Inten    --      5.4188                31.7009                26.2537

                     25                     26                     27
                      A                      A                      A
 Frequencies --   1090.2319              1107.7266              1166.4636
 Red. masses --      1.4923                 1.8974                 1.8614
 Frc consts  --      1.0451                 1.3718                 1.4922
 IR Inten    --     13.9730                11.6800                82.6233

                     28                     29                     30
                      A                      A                      A
 Frequencies --   1168.6602              1180.8705              1216.4331
 Red. masses --      1.6096                 1.3019                 1.5408
 Frc consts  --      1.2952                 1.0696                 1.3433
 IR Inten    --      3.1212                 8.0884                 4.4431

                     31                     32                     33
                      A                      A                      A
 Frequencies --   1239.0627              1275.9524              1367.7212
 Red. masses --      1.9929                 2.7499                 2.3328
 Frc consts  --      1.8027                 2.6378                 2.5711
 IR Inten    --     10.8044                 4.4514               118.0754

                     34                     35                     36
                      A                      A                      A
 Frequencies --   1405.7204              1454.8395              1469.1480
 Red. masses --      1.2589                 1.3608                 1.5456
 Frc consts  --      1.4657                 1.6970                 1.9655
 IR Inten    --      2.0967                12.0723                12.2876

                     37                     38                     39
                      A                      A                      A
 Frequencies --   1484.6374              1485.9406              1491.7103
 Red. masses --      1.1346                 1.0842                 1.3260
 Frc consts  --      1.4735                 1.4105                 1.7385
 IR Inten    --      6.7423                 5.6997                15.8521

                     40                     41                     42
                      A                      A                      A
 Frequencies --   1501.7440              1505.9819              2996.6384
 Red. masses --      1.6405                 1.1061                 1.0346
 Frc consts  --      2.1798                 1.4780                 5.4740
 IR Inten    --     14.7000                 2.2215                51.5582

                     43                     44                     45
                      A                      A                      A
 Frequencies --   3033.0837              3052.6985              3095.3212
 Red. masses --      1.0363                 1.1037                 1.0997
 Frc consts  --      5.6172                 6.0599                 6.2076
 IR Inten    --     23.6654                39.9859                15.2346

                     46                     47                     48
                      A                      A                      A
 Frequencies --   3122.4788              3124.8751              3136.9500
 Red. masses --      1.1010                 1.0992                 1.0534
 Frc consts  --      6.3246                 6.3240                 6.1072
 IR Inten    --     12.1903                28.7359                11.3458

                     49                     50                     51
                      A                      A                      A
 Frequencies --   3178.4463              3207.5255              3233.1804
 Red. masses --      1.0946                 1.0942                 1.1152
 Frc consts  --      6.5154                 6.6325                 6.8685
 IR Inten    --     14.0339                 4.4383                 3.2255

 - Thermochemistry -
 -------------------
 Temperature   298.150 Kelvin.  Pressure   1.00000 Atm.
 Atom     1 has atomic number  6 and mass  12.00000

 Molecular mass:   126.06808 amu.
 Principal axes and moments of inertia in atomic units:
                           1         2         3
     Eigenvalues --   492.591911564.554281611.28750
           X            0.99948  -0.00522   0.03174
           Y            0.00270   0.99686   0.07914
           Z           -0.03205  -0.07902   0.99636
 This molecule is an asymmetric top.
 Rotational symmetry number  1.
 Warning -- assumption of classical behavior for rotation
           may cause significant error
 Rotational temperatures (Kelvin)      0.17583     0.05536     0.05375
 Rotational constants (GHZ):           3.66377     1.15352     1.12006
 Zero-point vibrational energy     410776.6 (Joules/Mol)
                                   98.17795 (Kcal/Mol)
 Warning -- explicit consideration of  12 degrees of freedom as
           vibrations may cause significant error
 Vibrational temperatures:    124.73   192.10   235.95   287.77   344.78
          (Kelvin)            408.80   524.08   568.46   617.64   673.97
                              774.85   875.15   964.98  1094.36  1175.38
                             1239.04  1259.87  1304.75  1394.61  1410.40
                             1423.73  1455.65  1521.50  1539.91  1568.60
                             1593.77  1678.28  1681.44  1699.01  1750.17
                             1782.73  1835.81  1967.84  2022.52  2093.19
                             2113.77  2136.06  2137.93  2146.24  2160.67
                             2166.77  4311.49  4363.93  4392.15  4453.47
                             4492.54  4495.99  4513.37  4573.07  4614.91
                             4651.82

 Zero-point correction=                           0.156457 (Hartree/Particle)
 Thermal correction to Energy=                    0.165264
 Thermal correction to Enthalpy=                  0.166208
 Thermal correction to Gibbs Free Energy=         0.123184
 Sum of electronic and zero-point Energies=           -422.938853
 Sum of electronic and thermal Energies=              -422.930046
 Sum of electronic and thermal Enthalpies=            -422.929102
 Sum of electronic and thermal Free Energies=         -422.972126

                     E (Thermal)             CV                S
                      KCal/Mol        Cal/Mol-Kelvin    Cal/Mol-Kelvin
 Total                  103.704             33.524             90.552
 Electronic               0.000              0.000              0.000
 Translational            0.889              2.981             40.409
 Rotational               0.889              2.981             28.609
 Vibrational            101.927             27.563             21.535
 Vibration     1          0.601              1.958              3.733
 Vibration     2          0.613              1.920              2.895
 Vibration     3          0.623              1.887              2.503
 Vibration     4          0.638              1.840              2.133
 Vibration     5          0.657              1.780              1.806
 Vibration     6          0.683              1.703              1.509
 Vibration     7          0.738              1.546              1.104
 Vibration     8          0.762              1.481              0.981
 Vibration     9          0.791              1.406              0.861
 Vibration    10          0.826              1.320              0.742
 Vibration    11          0.894              1.165              0.568
 Vibration    12          0.967              1.014              0.436

 Optimization completed.
    -- Stationary point found.
 Normal termination of Gaussian 09 at Tue Jan 28 10:05:32 2020.
