 Gaussian 09, Revision D.01,
 Gaussian 09:  ES64L-G09RevD.01 24-Apr-2013

 -----------------------------
 # b3lyp 6-31G(2df,p) opt Freq
 -----------------------------

 -----
 titel
 -----
 Symbolic Z-matrix:
 Charge =  0 Multiplicity = 1

 SCF Done:  E(RB3LYP) =  -423.230474011     A.U. after   14 cycles
 Optimization completed.
    -- Stationary point found.
 Normal termination of Gaussian 09 at Mon Jan 27 13:08:52 2020.

 ----------------------------------------------------------------------
 #N Geom=AllCheck Guess=TCheck SCRF=Check GenChk RB3LYP/6-31G(2df,p) Fr
 eq
 ----------------------------------------------------------------------

 Structure from the checkpoint file:  "/scratch/puck/g09_00a3397c-2979-419d-a913-794a34ba2dca/Gau-27367.chk"
 -----
 titel
 -----
 Charge =  0 Multiplicity = 1

                         Standard orientation:
 ---------------------------------------------------------------------
 Center     Atomic      Atomic             Coordinates (Angstroms)
 Number     Number       Type             X           Y           Z
 ---------------------------------------------------------------------
      1          8           0       -2.544430   -0.419323    0.030419
      2          6           0       -1.377320   -0.117784   -0.033407
      3          6           0       -0.885669    1.201438   -0.628171
      4          6           0        0.395610    1.734063    0.051915
      5          6           0        1.319332    0.581038    0.462898
      6          6           0        1.747452   -0.329447   -0.714130
      7          6           0        0.681543   -1.458207   -0.705279
      8          6           0       -0.255498   -1.039815    0.452956
      9          8           0        0.582005   -0.286429    1.333662
     10          1           0       -0.682630    0.994679   -1.688754
     11          1           0       -1.704844    1.923918   -0.605356
     12          1           0        0.920147    2.434975   -0.607439
     13          1           0        0.124799    2.282471    0.960164
     14          1           0        2.170000    0.959604    1.035127
     15          1           0        1.778961    0.215146   -1.661437
     16          1           0        2.745306   -0.736204   -0.538062
     17          1           0        0.150197   -1.556189   -1.655819
     18          1           0        1.132766   -2.426650   -0.479601
     19          1           0       -0.688003   -1.873448    1.007849
 ---------------------------------------------------------------------

 SCF Done:  E(RB3LYP) =  -423.230474011     A.U. after    1 cycles

 The electronic state is 1-A.
 Alpha  occ. eigenvalues --  -19.14684 -19.12914 -10.26439 -10.23908 -10.23522
 Alpha  occ. eigenvalues --  -10.19671 -10.19574 -10.19418 -10.19391  -1.05233
 Alpha  occ. eigenvalues --   -1.03423  -0.80747  -0.77826  -0.75590  -0.65253
 Alpha  occ. eigenvalues --   -0.62055  -0.59106  -0.53071  -0.51325  -0.48282
 Alpha  occ. eigenvalues --   -0.45850  -0.44990  -0.43189  -0.42455  -0.41022
 Alpha  occ. eigenvalues --   -0.39001  -0.37099  -0.36788  -0.34915  -0.34740
 Alpha  occ. eigenvalues --   -0.33571  -0.31874  -0.28294  -0.22677
 Alpha virt. eigenvalues --   -0.01603   0.06675   0.08813   0.11775   0.13470
 Alpha virt. eigenvalues --    0.13996   0.14493   0.14938   0.15812   0.16772
 Alpha virt. eigenvalues --    0.17335   0.18681   0.19157   0.20448   0.22309

 Mulliken charges:
               1
     1  O   -0.319546
     2  C    0.408121
     3  C   -0.318167
     4  C   -0.217540
     5  C    0.096243
     6  C   -0.233204
     7  C   -0.248482
     8  C   -0.010542
     9  O   -0.260640
    10  H    0.128103
    11  H    0.127169
    12  H    0.099547
    13  H    0.116916
    14  H    0.083430
    15  H    0.105649
    16  H    0.113035
    17  H    0.114357
    18  H    0.118676
    19  H    0.096875
 Sum of Mulliken charges =   0.00000

 Dipole moment (field-independent basis, Debye):
    X=              2.8613    Y=              0.8275    Z=             -1.6530  Tot=              3.4065
 Quadrupole moment (field-independent basis, Debye-Ang):
   XX=            -60.1737   YY=            -49.7542   ZZ=            -54.2459
   XY=             -1.4883   XZ=             -0.4629   YZ=              0.3695

  Exact polarizability:  81.781   2.005  76.064  -0.707  -0.716  62.951
 Approx polarizability: 120.557   6.907 105.294  -0.747  -2.054 100.420

                      1                      2                      3
                      A                      A                      A
 Frequencies --     90.7070               162.9776               222.2341
 Red. masses --      3.8865                 2.0272                 2.4301
 Frc consts  --      0.0188                 0.0317                 0.0707
 IR Inten    --      3.1221                 0.7153                 0.4256

                      4                      5                      6
                      A                      A                      A
 Frequencies --    337.7135               404.5213               421.7299
 Red. masses --      2.1814                 5.6012                 5.1122
 Frc consts  --      0.1466                 0.5400                 0.5357
 IR Inten    --      1.2411                 3.3221                14.2775

                      7                      8                      9
                      A                      A                      A
 Frequencies --    459.2388               532.8950               650.8914
 Red. masses --      4.2898                 2.1831                 4.5918
 Frc consts  --      0.5331                 0.3653                 1.1462
 IR Inten    --      7.7534                 3.1265                 0.8605

                     10                     11                     12
                      A                      A                      A
 Frequencies --    698.1578               756.4400               796.8349
 Red. masses --      3.0165                 3.2493                 1.7736
 Frc consts  --      0.8663                 1.0954                 0.6635
 IR Inten    --      1.4249                 2.1961                 3.7401

                     13                     14                     15
                      A                      A                      A
 Frequencies --    801.2745               832.9698               893.0667
 Red. masses --      3.0591                 2.0221                 2.6579
 Frc consts  --      1.1572                 0.8266                 1.2490
 IR Inten    --      3.6314                 2.7137                19.9350

                     16                     17                     18
                      A                      A                      A
 Frequencies --    915.3964               945.2973               954.6216
 Red. masses --      2.6621                 2.5612                 2.3883
 Frc consts  --      1.3143                 1.3484                 1.2823
 IR Inten    --     15.4622                 5.7656                 2.8860

                     19                     20                     21
                      A                      A                      A
 Frequencies --    998.0702              1022.4545              1029.3138
 Red. masses --      1.7973                 2.0639                 2.6459
 Frc consts  --      1.0548                 1.2713                 1.6517
 IR Inten    --     11.7216                 1.2120                15.8631

                     22                     23                     24
                      A                      A                      A
 Frequencies --   1066.5452              1082.5408              1158.2727
 Red. masses --      3.1487                 2.2007                 1.2905
 Frc consts  --      2.1103                 1.5195                 1.0201
 IR Inten    --     32.3306                13.7231                12.0227

                     25                     26                     27
                      A                      A                      A
 Frequencies --   1178.9539              1206.7371              1242.3785
 Red. masses --      1.4001                 1.7517                 1.5569
 Frc consts  --      1.1466                 1.5029                 1.4159
 IR Inten    --      6.6033                14.6295                 8.1093

                     28                     29                     30
                      A                      A                      A
 Frequencies --   1249.8327              1255.6774              1288.3118
 Red. masses --      1.1910                 1.5161                 1.3579
 Frc consts  --      1.0962                 1.4084                 1.3279
 IR Inten    --      0.9426                10.7766                 4.0907

                     31                     32                     33
                      A                      A                      A
 Frequencies --   1311.0681              1320.5469              1328.4332
 Red. masses --      1.3514                 1.4141                 1.4928
 Frc consts  --      1.3686                 1.4529                 1.5521
 IR Inten    --      3.4673                 2.1664                 3.8266

                     34                     35                     36
                      A                      A                      A
 Frequencies --   1359.5725              1367.9068              1379.9398
 Red. masses --      1.6498                 1.4421                 1.3566
 Frc consts  --      1.7968                 1.5899                 1.5220
 IR Inten    --      0.8368                 2.3984                 4.6515

                     37                     38                     39
                      A                      A                      A
 Frequencies --   1461.7131              1483.3585              1488.8971
 Red. masses --      1.0780                 1.0897                 1.0828
 Frc consts  --      1.3571                 1.4127                 1.4142
 IR Inten    --      6.9119                 2.1767                 3.5262

                     40                     41                     42
                      A                      A                      A
 Frequencies --   1509.2379              1827.6803              3017.7864
 Red. masses --      1.0973                11.7376                 1.0690
 Frc consts  --      1.4727                23.1009                 5.7357
 IR Inten    --      6.9738               191.3976                 8.8844

                     43                     44                     45
                      A                      A                      A
 Frequencies --   3037.6417              3063.1090              3070.9339
 Red. masses --      1.0607                 1.0601                 1.0647
 Frc consts  --      5.7663                 5.8606                 5.9156
 IR Inten    --     24.4825                13.6195                24.8674

                     46                     47                     48
                      A                      A                      A
 Frequencies --   3082.1793              3083.1254              3101.5046
 Red. masses --      1.0971                 1.0892                 1.1042
 Frc consts  --      6.1404                 6.1002                 6.2580
 IR Inten    --     35.4194                30.1954                 2.0361

                     49                     50                     51
                      A                      A                      A
 Frequencies --   3105.3263              3113.4733              3122.8621
 Red. masses --      1.0942                 1.0922                 1.1032
 Frc consts  --      6.2166                 6.2381                 6.3390
 IR Inten    --     19.0597                14.4962                35.8124

 - Thermochemistry -
 -------------------
 Temperature   298.150 Kelvin.  Pressure   1.00000 Atm.
 Atom     1 has atomic number  8 and mass  15.99491

 Molecular mass:   126.06808 amu.
 Principal axes and moments of inertia in atomic units:
                           1         2         3
     Eigenvalues --   691.861821040.018011282.56422
           X            0.99958  -0.02599  -0.01288
           Y            0.02612   0.99960   0.01036
           Z            0.01261  -0.01069   0.99986
 This molecule is an asymmetric top.
 Rotational symmetry number  1.
 Warning -- assumption of classical behavior for rotation
           may cause significant error
 Rotational temperatures (Kelvin)      0.12519     0.08328     0.06753
 Rotational constants (GHZ):           2.60853     1.73530     1.40714
 Zero-point vibrational energy     426423.0 (Joules/Mol)
                                  101.91753 (Kcal/Mol)
 Warning -- explicit consideration of   8 degrees of freedom as
           vibrations may cause significant error
 Vibrational temperatures:    130.51   234.49   319.74   485.89   582.02
          (Kelvin)            606.77   660.74   766.72   936.49  1004.49
                             1088.35  1146.47  1152.85  1198.46  1284.92
                             1317.05  1360.07  1373.49  1436.00  1471.08
                             1480.95  1534.52  1557.53  1666.49  1696.25
                             1736.22  1787.50  1798.23  1806.64  1853.59
                             1886.33  1899.97  1911.32  1956.12  1968.11
                             1985.42  2103.08  2134.22  2142.19  2171.45
                             2629.62  4341.92  4370.48  4407.13  4418.38
                             4434.56  4435.92  4462.37  4467.87  4479.59
                             4493.10

 Zero-point correction=                           0.162416 (Hartree/Particle)
 Thermal correction to Energy=                    0.169681
 Thermal correction to Enthalpy=                  0.170625
 Thermal correction to Gibbs Free Energy=         0.130663
 Sum of electronic and zero-point Energies=           -423.068058
 Sum of electronic and thermal Energies=              -423.060793
 Sum of electronic and thermal Enthalpies=            -423.059849
 Sum of electronic and thermal Free Energies=         -423.099811

                     E (Thermal)             CV                S
                      KCal/Mol        Cal/Mol-Kelvin    Cal/Mol-Kelvin
 Total                  106.477             28.984             84.109
 Electronic               0.000              0.000              0.000
 Translational            0.889              2.981             40.409
 Rotational               0.889              2.981             28.314
 Vibrational            104.699             23.022             15.386
 Vibration     1          0.602              1.956              3.645
 Vibration     2          0.623              1.888              2.515
 Vibration     3          0.648              1.807              1.941
 Vibration     4          0.718              1.600              1.223
 Vibration     5          0.770              1.460              0.946
 Vibration     6          0.784              1.423              0.886
 Vibration     7          0.817              1.340              0.768
 Vibration     8          0.888              1.177              0.581

 Optimization completed.
    -- Stationary point found.
 Normal termination of Gaussian 09 at Mon Jan 27 14:36:20 2020.
