 Gaussian 09, Revision D.01,
 Gaussian 09:  ES64L-G09RevD.01 24-Apr-2013

 -----------------------------
 # b3lyp 6-31G(2df,p) opt Freq
 -----------------------------

 -----
 titel
 -----
 Symbolic Z-matrix:
 Charge =  0 Multiplicity = 1

 SCF Done:  E(RB3LYP) =  -423.111006024     A.U. after   13 cycles
 Optimization completed.
    -- Stationary point found.
 Normal termination of Gaussian 09 at Tue Jan 28 12:07:58 2020.

 ----------------------------------------------------------------------
 #N Geom=AllCheck Guess=TCheck SCRF=Check GenChk RB3LYP/6-31G(2df,p) Fr
 eq
 ----------------------------------------------------------------------

 Structure from the checkpoint file:  "/scratch/puck/g09_873ec919-7913-400a-b8a7-825aa8add0ce/Gau-138514.chk"
 -----
 titel
 -----
 Charge =  0 Multiplicity = 1

                         Standard orientation:
 ---------------------------------------------------------------------
 Center     Atomic      Atomic             Coordinates (Angstroms)
 Number     Number       Type             X           Y           Z
 ---------------------------------------------------------------------
      1          6           0       -2.816541   -0.354316   -0.302848
      2          6           0       -1.736258    0.025142    0.719076
      3          6           0       -0.349728    0.084125    0.115315
      4          6           0        0.044832    1.243780   -0.836836
      5          8           0        1.199772    1.579581   -0.023556
      6          6           0        0.917090    0.518155    0.895370
      7          6           0        1.568419   -0.859769    0.571286
      8          8           0        1.586940   -1.007995   -0.849891
      9          6           0        0.360427   -1.272781   -0.174157
     10          1           0       -2.862332    0.373733   -1.119722
     11          1           0       -2.621510   -1.336366   -0.746551
     12          1           0       -3.804512   -0.391146    0.165312
     13          1           0       -1.974951    0.998594    1.165174
     14          1           0       -1.739768   -0.699144    1.544755
     15          1           0        0.329700    0.967377   -1.855517
     16          1           0       -0.675398    2.071492   -0.855312
     17          1           0        0.915351    0.817677    1.947482
     18          1           0        2.298007   -1.430504    1.135331
     19          1           0       -0.087728   -2.250413   -0.316616
 ---------------------------------------------------------------------

 SCF Done:  E(RB3LYP) =  -423.111006024     A.U. after    1 cycles

 The electronic state is 1-A.
 Alpha  occ. eigenvalues --  -19.15889 -19.13161 -10.24296 -10.23886 -10.23584
 Alpha  occ. eigenvalues --  -10.22594 -10.20027 -10.19440 -10.18444  -1.09054
 Alpha  occ. eigenvalues --   -1.02988  -0.81342  -0.75344  -0.70377  -0.63859
 Alpha  occ. eigenvalues --   -0.63183  -0.60515  -0.54146  -0.51050  -0.49228
 Alpha  occ. eigenvalues --   -0.46357  -0.45936  -0.43683  -0.40943  -0.39906
 Alpha  occ. eigenvalues --   -0.39649  -0.37853  -0.36322  -0.34725  -0.33813
 Alpha  occ. eigenvalues --   -0.30434  -0.26864  -0.26441  -0.24261
 Alpha virt. eigenvalues --    0.04952   0.08685   0.09017   0.10801   0.12445
 Alpha virt. eigenvalues --    0.12839   0.13710   0.14196   0.14993   0.16347
 Alpha virt. eigenvalues --    0.16965   0.18688   0.19042   0.19657   0.20608

 Mulliken charges:
               1
     1  C   -0.383089
     2  C   -0.294329
     3  C    0.274519
     4  C   -0.123926
     5  O   -0.285281
     6  C    0.014789
     7  C    0.000351
     8  O   -0.223557
     9  C   -0.046088
    10  H    0.124024
    11  H    0.119931
    12  H    0.118567
    13  H    0.106062
    14  H    0.099375
    15  H    0.115763
    16  H    0.095325
    17  H    0.077646
    18  H    0.106578
    19  H    0.103340
 Sum of Mulliken charges =   0.00000

 Dipole moment (field-independent basis, Debye):
    X=             -2.3065    Y=             -1.2674    Z=              1.4927  Tot=              3.0256
 Quadrupole moment (field-independent basis, Debye-Ang):
   XX=            -55.0786   YY=            -54.3201   ZZ=            -52.0292
   XY=             -2.3166   XZ=              3.6379   YZ=             -1.5700

  Exact polarizability:  81.280  -2.397  71.685   4.385  -0.932  68.392
 Approx polarizability: 111.598  -0.344 106.008   4.916   0.548 107.626

                      1                      2                      3
                      A                      A                      A
 Frequencies --     95.6429               154.7794               184.1361
 Red. masses --      2.4482                 3.2319                 1.6010
 Frc consts  --      0.0132                 0.0456                 0.0320
 IR Inten    --      0.3747                 1.0294                 2.2151

                      4                      5                      6
                      A                      A                      A
 Frequencies --    235.6046               290.2779               334.3091
 Red. masses --      1.9058                 3.8995                 2.9568
 Frc consts  --      0.0623                 0.1936                 0.1947
 IR Inten    --      2.1072                 0.8779                 0.4405

                      7                      8                      9
                      A                      A                      A
 Frequencies --    337.5622               477.5566               570.1816
 Red. masses --      2.2505                 3.0035                 3.5522
 Frc consts  --      0.1511                 0.4036                 0.6804
 IR Inten    --      1.3881                 1.9724                 5.4990

                     10                     11                     12
                      A                      A                      A
 Frequencies --    682.2760               717.7045               782.4423
 Red. masses --      5.0584                 4.6458                 1.2609
 Frc consts  --      1.3873                 1.4099                 0.4548
 IR Inten    --     15.9592                 3.4104                 4.7896

                     13                     14                     15
                      A                      A                      A
 Frequencies --    816.0761               841.8453               849.9889
 Red. masses --      4.0442                 1.7414                 2.3236
 Frc consts  --      1.5869                 0.7271                 0.9891
 IR Inten    --      3.2076                15.0741                 7.1075

                     16                     17                     18
                      A                      A                      A
 Frequencies --    893.7052               907.4724               971.6376
 Red. masses --      2.8973                 2.1763                 2.0321
 Frc consts  --      1.3634                 1.0559                 1.1303
 IR Inten    --      3.3339                20.7832                 1.5026

                     19                     20                     21
                      A                      A                      A
 Frequencies --    988.5231               991.9057              1001.4040
 Red. masses --      2.3684                 3.2890                 3.1680
 Frc consts  --      1.3636                 1.9066                 1.8718
 IR Inten    --      1.0403                39.0840                11.4502

                     22                     23                     24
                      A                      A                      A
 Frequencies --   1016.7678              1037.7166              1052.1858
 Red. masses --      2.3989                 1.7344                 1.7726
 Frc consts  --      1.4612                 1.1004                 1.1562
 IR Inten    --     35.5177                 3.4704                20.2684

                     25                     26                     27
                      A                      A                      A
 Frequencies --   1128.0026              1147.8113              1169.4871
 Red. masses --      2.3067                 1.5875                 1.5155
 Frc consts  --      1.7293                 1.2323                 1.2212
 IR Inten    --      2.7377                 2.0020                 0.5209

                     28                     29                     30
                      A                      A                      A
 Frequencies --   1199.0847              1221.7904              1236.3427
 Red. masses --      1.5042                 1.9213                 1.4241
 Frc consts  --      1.2742                 1.6898                 1.2825
 IR Inten    --      4.0469                 2.5116                 4.2395

                     31                     32                     33
                      A                      A                      A
 Frequencies --   1280.0699              1293.6811              1325.4362
 Red. masses --      1.3492                 1.8015                 1.4354
 Frc consts  --      1.3025                 1.7764                 1.4858
 IR Inten    --      0.3722                10.6713                 1.2186

                     34                     35                     36
                      A                      A                      A
 Frequencies --   1353.3446              1364.3718              1384.3309
 Red. masses --      1.6530                 1.9693                 2.6792
 Frc consts  --      1.7838                 2.1598                 3.0251
 IR Inten    --      6.3667                 4.5532                 8.9163

                     37                     38                     39
                      A                      A                      A
 Frequencies --   1411.8568              1482.1171              1499.8432
 Red. masses --      1.2273                 1.0656                 1.0411
 Frc consts  --      1.4414                 1.3792                 1.3798
 IR Inten    --      2.5070                 0.8911                 5.5825

                     40                     41                     42
                      A                      A                      A
 Frequencies --   1501.8328              1506.3954              3014.8858
 Red. masses --      1.0889                 1.0854                 1.0606
 Frc consts  --      1.4471                 1.4512                 5.6800
 IR Inten    --      0.4362                 3.4167                35.9500

                     43                     44                     45
                      A                      A                      A
 Frequencies --   3019.0111              3035.5453              3050.4762
 Red. masses --      1.0622                 1.0353                 1.1003
 Frc consts  --      5.7040                 5.6207                 6.0326
 IR Inten    --     43.1860                23.4335                15.1269

                     46                     47                     48
                      A                      A                      A
 Frequencies --   3070.8860              3092.6915              3102.2097
 Red. masses --      1.0889                 1.1031                 1.1019
 Frc consts  --      6.0499                 6.2166                 6.2478
 IR Inten    --     41.6805                22.2833                35.2179

                     49                     50                     51
                      A                      A                      A
 Frequencies --   3109.0034              3167.2867              3182.6676
 Red. masses --      1.1013                 1.0871                 1.1011
 Frc consts  --      6.2717                 6.4255                 6.5713
 IR Inten    --     32.4438                18.1373                23.7254

 - Thermochemistry -
 -------------------
 Temperature   298.150 Kelvin.  Pressure   1.00000 Atm.
 Atom     1 has atomic number  6 and mass  12.00000

 Molecular mass:   126.06808 amu.
 Principal axes and moments of inertia in atomic units:
                           1         2         3
     Eigenvalues --   645.872471201.028701445.24474
           X            0.99985  -0.00036   0.01703
           Y            0.00092   0.99945  -0.03330
           Z           -0.01701   0.03331   0.99930
 This molecule is an asymmetric top.
 Rotational symmetry number  1.
 Warning -- assumption of classical behavior for rotation
           may cause significant error
 Rotational temperatures (Kelvin)      0.13410     0.07212     0.05993
 Rotational constants (GHZ):           2.79427     1.50266     1.24874
 Zero-point vibrational energy     416193.8 (Joules/Mol)
                                   99.47270 (Kcal/Mol)
 Warning -- explicit consideration of   9 degrees of freedom as
           vibrations may cause significant error
 Vibrational temperatures:    137.61   222.69   264.93   338.98   417.64
          (Kelvin)            481.00   485.68   687.10   820.36   981.64
                             1032.62  1125.76  1174.15  1211.23  1222.94
                             1285.84  1305.65  1397.97  1422.26  1427.13
                             1440.80  1462.90  1493.04  1513.86  1622.94
                             1651.44  1682.63  1725.21  1757.88  1778.82
                             1841.73  1861.32  1907.00  1947.16  1963.02
                             1991.74  2031.34  2132.43  2157.94  2160.80
                             2167.36  4337.74  4343.68  4367.47  4388.95
                             4418.31  4449.69  4463.38  4473.16  4557.01
                             4579.14

 Zero-point correction=                           0.158520 (Hartree/Particle)
 Thermal correction to Energy=                    0.166497
 Thermal correction to Enthalpy=                  0.167442
 Thermal correction to Gibbs Free Energy=         0.126050
 Sum of electronic and zero-point Energies=           -422.952486
 Sum of electronic and thermal Energies=              -422.944509
 Sum of electronic and thermal Enthalpies=            -422.943564
 Sum of electronic and thermal Free Energies=         -422.984956

                     E (Thermal)             CV                S
                      KCal/Mol        Cal/Mol-Kelvin    Cal/Mol-Kelvin
 Total                  104.479             30.963             87.116
 Electronic               0.000              0.000              0.000
 Translational            0.889              2.981             40.409
 Rotational               0.889              2.981             28.507
 Vibrational            102.701             25.001             18.200
 Vibration     1          0.603              1.952              3.541
 Vibration     2          0.620              1.897              2.613
 Vibration     3          0.631              1.861              2.286
 Vibration     4          0.655              1.786              1.836
 Vibration     5          0.686              1.692              1.472
 Vibration     6          0.716              1.607              1.239
 Vibration     7          0.718              1.600              1.224
 Vibration     8          0.834              1.300              0.717
 Vibration     9          0.926              1.096              0.504

 Normal termination of Gaussian 09 at Tue Jan 28 12:50:44 2020.
