 Gaussian 09, Revision D.01,
 Gaussian 09:  ES64L-G09RevD.01 24-Apr-2013

 -----------------------------
 # b3lyp 6-31G(2df,p) opt Freq
 -----------------------------

 -----
 titel
 -----
 Symbolic Z-matrix:
 Charge =  0 Multiplicity = 1

 SCF Done:  E(RB3LYP) =  -423.234318432     A.U. after   14 cycles
 Optimization completed.
    -- Stationary point found.
 Normal termination of Gaussian 09 at Tue Jan 28 00:46:50 2020.

 ----------------------------------------------------------------------
 #N Geom=AllCheck Guess=TCheck SCRF=Check GenChk RB3LYP/6-31G(2df,p) Fr
 eq
 ----------------------------------------------------------------------

 Structure from the checkpoint file:  "/scratch/puck/g09_010f9110-661d-4aae-8751-37b642c8300f/Gau-38482.chk"
 -----
 titel
 -----
 Charge =  0 Multiplicity = 1

                         Standard orientation:
 ---------------------------------------------------------------------
 Center     Atomic      Atomic             Coordinates (Angstroms)
 Number     Number       Type             X           Y           Z
 ---------------------------------------------------------------------
      1          6           0        1.004354    2.164886   -0.121781
      2          6           0        0.162469    0.981115    0.348699
      3          6           0       -1.336447    1.077254    0.024737
      4          6           0       -1.842359   -0.365934   -0.024158
      5          8           0       -2.991065   -0.718639   -0.047143
      6          6           0       -0.623356   -1.299161   -0.043592
      7          6           0        0.586843   -0.382117   -0.287527
      8          6           0        1.856318   -0.905268    0.338440
      9          8           0        2.920536   -1.005339   -0.213522
     10          1           0        0.692318    3.090537    0.371700
     11          1           0        2.066192    2.009514    0.093408
     12          1           0        0.901913    2.310016   -1.203057
     13          1           0        0.269882    0.880923    1.438987
     14          1           0       -1.921337    1.677871    0.725413
     15          1           0       -1.486702    1.510472   -0.974340
     16          1           0       -0.560909   -1.775732    0.945667
     17          1           0       -0.747425   -2.100327   -0.775211
     18          1           0        0.767765   -0.244044   -1.358683
     19          1           0        1.735602   -1.192051    1.412521
 ---------------------------------------------------------------------

 SCF Done:  E(RB3LYP) =  -423.234318432     A.U. after    1 cycles

 The electronic state is 1-A.
 Alpha  occ. eigenvalues --  -19.14782 -19.13847 -10.27869 -10.27850 -10.21672
 Alpha  occ. eigenvalues --  -10.21043 -10.20694 -10.20120 -10.19087  -1.05498
 Alpha  occ. eigenvalues --   -1.05023  -0.86474  -0.76553  -0.73735  -0.68051
 Alpha  occ. eigenvalues --   -0.60536  -0.58416  -0.54508  -0.49618  -0.48318
 Alpha  occ. eigenvalues --   -0.45486  -0.45363  -0.43858  -0.43061  -0.42321
 Alpha  occ. eigenvalues --   -0.39982  -0.39388  -0.39209  -0.36492  -0.35506
 Alpha  occ. eigenvalues --   -0.34769  -0.33808  -0.26429  -0.24571
 Alpha virt. eigenvalues --   -0.03096  -0.02551   0.07733   0.09272   0.10415
 Alpha virt. eigenvalues --    0.12231   0.13682   0.14381   0.15451   0.15736
 Alpha virt. eigenvalues --    0.17097   0.17617   0.18099   0.20432   0.21718

 Mulliken charges:
               1
     1  C   -0.410694
     2  C    0.003260
     3  C   -0.335362
     4  C    0.398544
     5  O   -0.303408
     6  C   -0.359249
     7  C   -0.073255
     8  C    0.156597
     9  O   -0.249922
    10  H    0.121945
    11  H    0.133664
    12  H    0.122536
    13  H    0.084059
    14  H    0.133107
    15  H    0.133764
    16  H    0.134398
    17  H    0.142667
    18  H    0.096814
    19  H    0.070537
 Sum of Mulliken charges =   0.00000

 Dipole moment (field-independent basis, Debye):
    X=              0.0954    Y=              1.5227    Z=              0.7620  Tot=              1.7054
 Quadrupole moment (field-independent basis, Debye-Ang):
   XX=            -74.1307   YY=            -51.4541   ZZ=            -50.7844
   XY=             -0.3321   XZ=              1.8085   YZ=             -0.6266

  Exact polarizability:  91.353  -0.503  76.479  -1.297  -1.040  62.986
 Approx polarizability: 134.970  -0.444 103.880  -5.937  -1.044 101.867

                      1                      2                      3
                      A                      A                      A
 Frequencies --     57.7705                75.9544               105.3206
 Red. masses --      5.3551                 4.1353                 2.5334
 Frc consts  --      0.0105                 0.0141                 0.0166
 IR Inten    --      8.5805                 8.3957                 0.3420

                      4                      5                      6
                      A                      A                      A
 Frequencies --    223.9639               252.8519               281.5735
 Red. masses --      1.1514                 2.0538                 2.2521
 Frc consts  --      0.0340                 0.0774                 0.1052
 IR Inten    --      0.2906                 0.5873                 2.0445

                      7                      8                      9
                      A                      A                      A
 Frequencies --    300.3974               412.0971               447.1610
 Red. masses --      3.0232                 5.3295                 2.4882
 Frc consts  --      0.1607                 0.5333                 0.2931
 IR Inten    --      0.9105                 0.6442                 3.3413

                     10                     11                     12
                      A                      A                      A
 Frequencies --    470.0095               505.1974               545.9157
 Red. masses --      2.5001                 3.2412                 3.4962
 Frc consts  --      0.3254                 0.4874                 0.6139
 IR Inten    --      0.0102                 7.8678                 3.2246

                     13                     14                     15
                      A                      A                      A
 Frequencies --    619.9006               748.4036               807.6915
 Red. masses --      3.2219                 2.0447                 3.3212
 Frc consts  --      0.7295                 0.6748                 1.2765
 IR Inten    --     17.0010                 3.8424                 2.4980

                     16                     17                     18
                      A                      A                      A
 Frequencies --    863.4718               919.4757               942.8470
 Red. masses --      1.7953                 1.9385                 1.7227
 Frc consts  --      0.7887                 0.9656                 0.9023
 IR Inten    --      0.2254                 3.8157                 0.0876

                     19                     20                     21
                      A                      A                      A
 Frequencies --    973.2845              1006.7777              1056.5740
 Red. masses --      1.8992                 1.2220                 2.9329
 Frc consts  --      1.0600                 0.7298                 1.9291
 IR Inten    --      0.7556                 2.1167                77.5085

                     22                     23                     24
                      A                      A                      A
 Frequencies --   1073.0168              1100.3233              1144.1426
 Red. masses --      2.6323                 2.4806                 2.0080
 Frc consts  --      1.7856                 1.7695                 1.5487
 IR Inten    --      5.4301                 0.2140                 1.9439

                     25                     26                     27
                      A                      A                      A
 Frequencies --   1158.3257              1198.4821              1211.7101
 Red. masses --      2.7034                 1.6727                 1.7935
 Frc consts  --      2.1371                 1.4156                 1.5515
 IR Inten    --     35.6216                15.2882                13.7777

                     28                     29                     30
                      A                      A                      A
 Frequencies --   1250.3387              1268.6890              1281.5223
 Red. masses --      1.4143                 1.5163                 1.4093
 Frc consts  --      1.3027                 1.4380                 1.3636
 IR Inten    --      2.5424                 4.3086                 4.3181

                     31                     32                     33
                      A                      A                      A
 Frequencies --   1325.3179              1354.8985              1372.0971
 Red. masses --      1.2966                 1.3706                 1.4490
 Frc consts  --      1.3418                 1.4824                 1.6072
 IR Inten    --      3.6203                 4.2979                 6.8240

                     34                     35                     36
                      A                      A                      A
 Frequencies --   1417.4412              1426.8736              1447.1254
 Red. masses --      1.2371                 1.1969                 1.0839
 Frc consts  --      1.4644                 1.4358                 1.3374
 IR Inten    --      3.2053                 2.4540                15.3045

                     37                     38                     39
                      A                      A                      A
 Frequencies --   1452.1186              1495.5978              1497.6123
 Red. masses --      1.1006                 1.0471                 1.0461
 Frc consts  --      1.3674                 1.3800                 1.3823
 IR Inten    --      0.5445                 3.4428                 4.9944

                     40                     41                     42
                      A                      A                      A
 Frequencies --   1833.9265              1852.4429              2828.2238
 Red. masses --     10.5363                12.7403                 1.0808
 Frc consts  --     20.8786                25.7585                 5.0935
 IR Inten    --    245.2982               209.7472                94.7143

                     43                     44                     45
                      A                      A                      A
 Frequencies --   2995.6852              3018.1506              3023.5918
 Red. masses --      1.0816                 1.0694                 1.0678
 Frc consts  --      5.7191                 5.7397                 5.7514
 IR Inten    --     13.8900                 8.6958                10.0711

                     46                     47                     48
                      A                      A                      A
 Frequencies --   3032.8437              3062.6991              3100.6317
 Red. masses --      1.0363                 1.0843                 1.1004
 Frc consts  --      5.6163                 5.9924                 6.2329
 IR Inten    --     18.1209                15.8654                20.8046

                     49                     50                     51
                      A                      A                      A
 Frequencies --   3106.7005              3108.3434              3113.7012
 Red. masses --      1.0943                 1.1019                 1.0926
 Frc consts  --      6.2228                 6.2725                 6.2410
 IR Inten    --     14.2716                18.3011                 7.5643

 - Thermochemistry -
 -------------------
 Temperature   298.150 Kelvin.  Pressure   1.00000 Atm.
 Atom     1 has atomic number  6 and mass  12.00000

 Molecular mass:   126.06808 amu.
 Principal axes and moments of inertia in atomic units:
                           1         2         3
     Eigenvalues --   673.898011556.142462120.50105
           X            0.99989   0.01424   0.00302
           Y           -0.01421   0.99984  -0.01122
           Z           -0.00318   0.01118   0.99993
 This molecule is an asymmetric top.
 Rotational symmetry number  1.
 Warning -- assumption of classical behavior for rotation
           may cause significant error
 Rotational temperatures (Kelvin)      0.12853     0.05566     0.04085
 Rotational constants (GHZ):           2.67806     1.15975     0.85109
 Zero-point vibrational energy     413723.8 (Joules/Mol)
                                   98.88235 (Kcal/Mol)
 Warning -- explicit consideration of  13 degrees of freedom as
           vibrations may cause significant error
 Vibrational temperatures:     83.12   109.28   151.53   322.23   363.80
          (Kelvin)            405.12   432.20   592.92   643.36   676.24
                              726.87   785.45   891.90  1076.78  1162.09
                             1242.34  1322.92  1356.54  1400.34  1448.53
                             1520.17  1543.83  1583.12  1646.16  1666.57
                             1724.35  1743.38  1798.96  1825.36  1843.82
                             1906.83  1949.39  1974.14  2039.38  2052.95
                             2082.09  2089.27  2151.83  2154.73  2638.61
                             2665.25  4069.18  4310.12  4342.44  4350.27
                             4363.58  4406.54  4461.11  4469.84  4472.21
                             4479.92

 Zero-point correction=                           0.157579 (Hartree/Particle)
 Thermal correction to Energy=                    0.166645
 Thermal correction to Enthalpy=                  0.167589
 Thermal correction to Gibbs Free Energy=         0.123010
 Sum of electronic and zero-point Energies=           -423.076739
 Sum of electronic and thermal Energies=              -423.067674
 Sum of electronic and thermal Enthalpies=            -423.066729
 Sum of electronic and thermal Free Energies=         -423.111309

                     E (Thermal)             CV                S
                      KCal/Mol        Cal/Mol-Kelvin    Cal/Mol-Kelvin
 Total                  104.571             33.146             93.825
 Electronic               0.000              0.000              0.000
 Translational            0.889              2.981             40.409
 Rotational               0.889              2.981             29.188
 Vibrational            102.794             27.184             24.229
 Vibration     1          0.596              1.974              4.532
 Vibration     2          0.599              1.965              3.993
 Vibration     3          0.605              1.945              3.353
 Vibration     4          0.649              1.805              1.927
 Vibration     5          0.664              1.758              1.711
 Vibration     6          0.681              1.708              1.524
 Vibration     7          0.693              1.673              1.415
 Vibration     8          0.776              1.444              0.919
 Vibration     9          0.806              1.367              0.804
 Vibration    10          0.827              1.317              0.738
 Vibration    11          0.860              1.238              0.645
 Vibration    12          0.901              1.149              0.553
 Vibration    13          0.980              0.990              0.417

 Optimization completed.
    -- Stationary point found.
 Normal termination of Gaussian 09 at Tue Jan 28 02:50:18 2020.
