 Gaussian 09, Revision D.01,
 Gaussian 09:  ES64L-G09RevD.01 24-Apr-2013

 -----------------------------
 # b3lyp 6-31G(2df,p) opt Freq
 -----------------------------

 -----
 titel
 -----
 Symbolic Z-matrix:
 Charge =  0 Multiplicity = 1

 SCF Done:  E(RB3LYP) =  -423.162745759     A.U. after   13 cycles
 Optimization completed.
    -- Stationary point found.
 Normal termination of Gaussian 09 at Mon Jan 27 18:43:00 2020.

 ----------------------------------------------------------------------
 #N Geom=AllCheck Guess=TCheck SCRF=Check GenChk RB3LYP/6-31G(2df,p) Fr
 eq
 ----------------------------------------------------------------------

 Structure from the checkpoint file:  "/scratch/puck/g09_93bba574-98a5-4e4b-a81c-e82a63607441/Gau-54482.chk"
 -----
 titel
 -----
 Charge =  0 Multiplicity = 1

                         Standard orientation:
 ---------------------------------------------------------------------
 Center     Atomic      Atomic             Coordinates (Angstroms)
 Number     Number       Type             X           Y           Z
 ---------------------------------------------------------------------
      1          8           0       -1.328572    1.526916   -0.792836
      2          6           0       -0.745545    0.518518   -0.008927
      3          6           0       -1.804608   -0.451975    0.546150
      4          8           0       -1.104578   -1.599256    0.025258
      5          6           0       -0.165738   -0.766019   -0.693854
      6          6           0        1.254700   -0.940622   -0.231535
      7          6           0        2.188408    0.188039   -0.585405
      8          6           0        1.560019    0.140678    0.785802
      9          6           0        0.326450    1.011406    1.001127
     10          1           0       -0.638014    2.134599   -1.076869
     11          1           0       -1.923770   -0.495518    1.634925
     12          1           0       -2.783608   -0.313279    0.071253
     13          1           0       -0.311707   -0.842025   -1.778209
     14          1           0        1.646165   -1.946773   -0.132072
     15          1           0        3.244551   -0.041782   -0.671501
     16          1           0        1.848369    0.945749   -1.288235
     17          1           0        2.202504   -0.062170    1.634821
     18          1           0       -0.037483    0.923501    2.029693
     19          1           0        0.536075    2.076263    0.836677
 ---------------------------------------------------------------------

 SCF Done:  E(RB3LYP) =  -423.162745759     A.U. after    1 cycles

 The electronic state is 1-A.
 Alpha  occ. eigenvalues --  -19.14646 -19.12770 -10.24107 -10.22495 -10.22254
 Alpha  occ. eigenvalues --  -10.19559 -10.19184 -10.19045 -10.19019  -1.04554
 Alpha  occ. eigenvalues --   -1.01806  -0.87779  -0.75415  -0.70034  -0.68445
 Alpha  occ. eigenvalues --   -0.59989  -0.57153  -0.54587  -0.52918  -0.50133
 Alpha  occ. eigenvalues --   -0.46227  -0.44822  -0.44163  -0.42521  -0.40457
 Alpha  occ. eigenvalues --   -0.38594  -0.36984  -0.36693  -0.33142  -0.31025
 Alpha  occ. eigenvalues --   -0.29378  -0.27607  -0.25734  -0.24661
 Alpha virt. eigenvalues --    0.05527   0.08003   0.10239   0.11815   0.11975
 Alpha virt. eigenvalues --    0.12559   0.13321   0.15496   0.16378   0.17715
 Alpha virt. eigenvalues --    0.17760   0.19194   0.20912   0.21252   0.23272

 Mulliken charges:
               1
     1  O   -0.479823
     2  C    0.334591
     3  C   -0.100581
     4  O   -0.300473
     5  C    0.073436
     6  C   -0.055517
     7  C   -0.299001
     8  C   -0.018205
     9  C   -0.315693
    10  H    0.277636
    11  H    0.099203
    12  H    0.107962
    13  H    0.076093
    14  H    0.095632
    15  H    0.116976
    16  H    0.097247
    17  H    0.086615
    18  H    0.109919
    19  H    0.093982
 Sum of Mulliken charges =   0.00000

 Dipole moment (field-independent basis, Debye):
    X=              1.8868    Y=              1.6066    Z=              0.2957  Tot=              2.4957
 Quadrupole moment (field-independent basis, Debye-Ang):
   XX=            -53.6388   YY=            -55.0254   ZZ=            -51.3950
   XY=             -0.4888   XZ=             -1.7833   YZ=             -0.6559

  Exact polarizability:  82.030   0.371  69.293  -3.149   0.130  69.064
 Approx polarizability: 109.189   1.235 106.848  -4.126  -1.121 105.060

                      1                      2                      3
                      A                      A                      A
 Frequencies --     54.0782               197.5231               248.1382
 Red. masses --      2.9817                 3.6410                 1.3192
 Frc consts  --      0.0051                 0.0837                 0.0479
 IR Inten    --      0.1492                 2.1297                41.0759

                      4                      5                      6
                      A                      A                      A
 Frequencies --    275.9602               371.5282               388.7248
 Red. masses --      1.9396                 2.3226                 3.1643
 Frc consts  --      0.0870                 0.1889                 0.2817
 IR Inten    --     44.2286                 5.3297                 8.7377

                      7                      8                      9
                      A                      A                      A
 Frequencies --    404.8377               440.8507               598.9802
 Red. masses --      2.9217                 3.6834                 4.2094
 Frc consts  --      0.2821                 0.4218                 0.8898
 IR Inten    --      4.1394                 2.5289                 5.1311

                     10                     11                     12
                      A                      A                      A
 Frequencies --    633.8427               700.1665               801.4452
 Red. masses --      3.3253                 4.3334                 1.8714
 Frc consts  --      0.7871                 1.2516                 0.7082
 IR Inten    --      3.7224                 4.7664                 5.1471

                     13                     14                     15
                      A                      A                      A
 Frequencies --    824.8289               845.7061               872.4197
 Red. masses --      1.6006                 3.9553                 1.8912
 Frc consts  --      0.6416                 1.6667                 0.8481
 IR Inten    --      7.9902                 4.5154                 1.6012

                     16                     17                     18
                      A                      A                      A
 Frequencies --    896.1028               949.5554               975.9526
 Red. masses --      1.7933                 1.9403                 2.1139
 Frc consts  --      0.8484                 1.0308                 1.1863
 IR Inten    --      3.3692                14.7728                 9.7465

                     19                     20                     21
                      A                      A                      A
 Frequencies --   1000.1690              1015.0632              1025.7181
 Red. masses --      3.1366                 2.2937                 3.9351
 Frc consts  --      1.8487                 1.3924                 2.4393
 IR Inten    --      2.8579                 4.8999                82.1181

                     22                     23                     24
                      A                      A                      A
 Frequencies --   1051.1326              1063.9804              1076.0783
 Red. masses --      1.7758                 2.0595                 1.4232
 Frc consts  --      1.1560                 1.3737                 0.9709
 IR Inten    --     35.9579                 2.8487                 6.5024

                     25                     26                     27
                      A                      A                      A
 Frequencies --   1101.1054              1109.4544              1141.0514
 Red. masses --      1.4333                 1.2468                 2.8622
 Frc consts  --      1.0239                 0.9042                 2.1956
 IR Inten    --     10.8380                 2.8151                56.6671

                     28                     29                     30
                      A                      A                      A
 Frequencies --   1152.5320              1176.4202              1194.5868
 Red. masses --      1.4221                 1.3129                 1.6635
 Frc consts  --      1.1130                 1.0705                 1.3986
 IR Inten    --     20.5297                 0.5059                 5.0730

                     31                     32                     33
                      A                      A                      A
 Frequencies --   1229.8667              1273.7902              1297.4456
 Red. masses --      1.8850                 1.6519                 1.3561
 Frc consts  --      1.6799                 1.5792                 1.3450
 IR Inten    --     18.0994                40.0039                 1.5892

                     34                     35                     36
                      A                      A                      A
 Frequencies --   1323.7821              1340.3904              1357.6156
 Red. masses --      1.5287                 1.6381                 1.8242
 Frc consts  --      1.5783                 1.7340                 1.9810
 IR Inten    --      4.1870                38.8878                17.3962

                     37                     38                     39
                      A                      A                      A
 Frequencies --   1385.3810              1404.0864              1485.2844
 Red. masses --      1.8720                 1.8738                 1.2123
 Frc consts  --      2.1169                 2.1765                 1.5757
 IR Inten    --     10.4765                 3.9749                 3.2490

                     40                     41                     42
                      A                      A                      A
 Frequencies --   1494.7295              1517.7990              3016.5126
 Red. masses --      1.1309                 1.1091                 1.0556
 Frc consts  --      1.4886                 1.5054                 5.6591
 IR Inten    --      4.5600                 0.4027                62.4008

                     43                     44                     45
                      A                      A                      A
 Frequencies --   3022.2524              3036.1246              3066.8988
 Red. masses --      1.0662                 1.0851                 1.1082
 Frc consts  --      5.7380                 5.8931                 6.1412
 IR Inten    --     50.9723                36.7697                15.6980

                     46                     47                     48
                      A                      A                      A
 Frequencies --   3074.3959              3109.8959              3171.2188
 Red. masses --      1.1008                 1.0580                 1.0884
 Frc consts  --      6.1304                 6.0290                 6.4492
 IR Inten    --     39.2602                18.6940                12.9079

                     49                     50                     51
                      A                      A                      A
 Frequencies --   3178.4059              3204.5238              3812.0374
 Red. masses --      1.0947                 1.1104                 1.0660
 Frc consts  --      6.5156                 6.7182                 9.1268
 IR Inten    --      8.7616                17.5813                11.9996

 - Thermochemistry -
 -------------------
 Temperature   298.150 Kelvin.  Pressure   1.00000 Atm.
 Atom     1 has atomic number  8 and mass  15.99491

 Molecular mass:   126.06808 amu.
 Principal axes and moments of inertia in atomic units:
                           1         2         3
     Eigenvalues --   679.643051053.142211302.16535
           X            0.99987   0.00174  -0.01629
           Y           -0.00152   0.99991   0.01363
           Z            0.01631  -0.01360   0.99977
 This molecule is an asymmetric top.
 Rotational symmetry number  1.
 Warning -- assumption of classical behavior for rotation
           may cause significant error
 Rotational temperatures (Kelvin)      0.12744     0.08224     0.06652
 Rotational constants (GHZ):           2.65543     1.71367     1.38595
 Zero-point vibrational energy     421027.9 (Joules/Mol)
                                  100.62808 (Kcal/Mol)
 Warning -- explicit consideration of   9 degrees of freedom as
           vibrations may cause significant error
 Vibrational temperatures:     77.81   284.19   357.02   397.04   534.55
          (Kelvin)            559.29   582.47   634.28   861.80   911.96
                             1007.38  1153.10  1186.74  1216.78  1255.22
                             1289.29  1366.20  1404.18  1439.02  1460.45
                             1475.78  1512.34  1530.83  1548.23  1584.24
                             1596.26  1641.72  1658.23  1692.60  1718.74
                             1769.50  1832.70  1866.73  1904.62  1928.52
                             1953.30  1993.25  2020.16  2136.99  2150.58
                             2183.77  4340.08  4348.34  4368.30  4412.58
                             4423.36  4474.44  4562.67  4573.01  4610.59
                             5484.66

 Zero-point correction=                           0.160361 (Hartree/Particle)
 Thermal correction to Energy=                    0.168005
 Thermal correction to Enthalpy=                  0.168949
 Thermal correction to Gibbs Free Energy=         0.128103
 Sum of electronic and zero-point Energies=           -423.002385
 Sum of electronic and thermal Energies=              -422.994741
 Sum of electronic and thermal Enthalpies=            -422.993797
 Sum of electronic and thermal Free Energies=         -423.034642

                     E (Thermal)             CV                S
                      KCal/Mol        Cal/Mol-Kelvin    Cal/Mol-Kelvin
 Total                  105.425             30.494             85.967
 Electronic               0.000              0.000              0.000
 Translational            0.889              2.981             40.409
 Rotational               0.889              2.981             28.324
 Vibrational            103.647             24.533             17.235
 Vibration     1          0.596              1.976              4.662
 Vibration     2          0.637              1.843              2.156
 Vibration     3          0.662              1.766              1.744
 Vibration     4          0.678              1.718              1.559
 Vibration     5          0.743              1.531              1.073
 Vibration     6          0.757              1.494              1.005
 Vibration     7          0.770              1.460              0.945
 Vibration     8          0.801              1.381              0.824
 Vibration     9          0.957              1.034              0.451

 Normal termination of Gaussian 09 at Mon Jan 27 19:28:01 2020.
