 Gaussian 09, Revision D.01,
 Gaussian 09:  ES64L-G09RevD.01 24-Apr-2013

 -----------------------------
 # b3lyp 6-31G(2df,p) opt Freq
 -----------------------------

 -----
 titel
 -----
 Symbolic Z-matrix:
 Charge =  0 Multiplicity = 1

 SCF Done:  E(RB3LYP) =  -423.155758757     A.U. after   13 cycles
 Optimization completed.
    -- Stationary point found.
 Normal termination of Gaussian 09 at Tue Jan 28 02:53:39 2020.

 ----------------------------------------------------------------------
 #N Geom=AllCheck Guess=TCheck SCRF=Check GenChk RB3LYP/6-31G(2df,p) Fr
 eq
 ----------------------------------------------------------------------

 Structure from the checkpoint file:  "/scratch/puck/g09_9cfd4cf5-d69b-49a6-ba30-e4728154759e/Gau-40728.chk"
 -----
 titel
 -----
 Charge =  0 Multiplicity = 1

                         Standard orientation:
 ---------------------------------------------------------------------
 Center     Atomic      Atomic             Coordinates (Angstroms)
 Number     Number       Type             X           Y           Z
 ---------------------------------------------------------------------
      1          6           0       -2.228168   -0.642066    0.441064
      2          6           0       -0.982918   -0.495328   -0.412434
      3          8           0       -0.088545   -1.591312   -0.188722
      4          6           0        1.227545   -1.094615   -0.355673
      5          6           0        1.747067   -0.050288    0.612923
      6          6           0        0.563598    0.675676    1.253578
      7          6           0       -0.105231    0.744216   -0.148583
      8          8           0       -0.693067    1.977287   -0.433021
      9          6           0        1.262497    0.324724   -0.791468
     10          1           0       -2.885251    0.218980    0.284967
     11          1           0       -2.774185   -1.549678    0.169697
     12          1           0       -1.976051   -0.700390    1.502852
     13          1           0       -1.276019   -0.479373   -1.480651
     14          1           0        1.917967   -1.834509   -0.742326
     15          1           0        2.761380   -0.079493    0.994267
     16          1           0        0.020620    0.171339    2.058301
     17          1           0        0.836741    1.684973    1.569342
     18          1           0       -1.042001    1.948160   -1.331658
     19          1           0        1.763353    0.758271   -1.647292
 ---------------------------------------------------------------------

 SCF Done:  E(RB3LYP) =  -423.155758757     A.U. after    1 cycles

 The electronic state is 1-A.
 Alpha  occ. eigenvalues --  -19.15011 -19.13684 -10.24258 -10.23278 -10.22996
 Alpha  occ. eigenvalues --  -10.19183 -10.18583 -10.18219 -10.17372  -1.04778
 Alpha  occ. eigenvalues --   -1.02780  -0.88054  -0.77101  -0.70680  -0.66491
 Alpha  occ. eigenvalues --   -0.60198  -0.57470  -0.54422  -0.53323  -0.49404
 Alpha  occ. eigenvalues --   -0.47445  -0.43515  -0.42535  -0.40939  -0.39301
 Alpha  occ. eigenvalues --   -0.38013  -0.37260  -0.36116  -0.34617  -0.32877
 Alpha  occ. eigenvalues --   -0.31138  -0.26601  -0.26090  -0.23039
 Alpha virt. eigenvalues --    0.06506   0.09875   0.11052   0.11460   0.12865
 Alpha virt. eigenvalues --    0.14365   0.14734   0.15905   0.16513   0.16645
 Alpha virt. eigenvalues --    0.17472   0.19691   0.20458   0.22212   0.23705

 Mulliken charges:
               1
     1  C   -0.407499
     2  C    0.091411
     3  O   -0.280287
     4  C    0.109031
     5  C   -0.097621
     6  C   -0.271084
     7  C    0.373440
     8  O   -0.492990
     9  C   -0.215000
    10  H    0.119410
    11  H    0.124608
    12  H    0.127260
    13  H    0.049321
    14  H    0.102000
    15  H    0.084701
    16  H    0.099320
    17  H    0.115447
    18  H    0.280502
    19  H    0.088028
 Sum of Mulliken charges =   0.00000

 Dipole moment (field-independent basis, Debye):
    X=              0.2377    Y=              0.5075    Z=             -1.2124  Tot=              1.3356
 Quadrupole moment (field-independent basis, Debye-Ang):
   XX=            -49.1695   YY=            -58.6213   ZZ=            -49.7712
   XY=             -0.8890   XZ=              1.1936   YZ=             -1.8079

  Exact polarizability:  82.104  -1.102  68.973   1.571   0.358  69.871
 Approx polarizability: 109.823  -2.784 106.479   4.121  -1.396 108.053

                      1                      2                      3
                      A                      A                      A
 Frequencies --    156.8138               205.1508               241.8702
 Red. masses --      2.8993                 1.2505                 2.1841
 Frc consts  --      0.0420                 0.0310                 0.0753
 IR Inten    --      2.1088                 0.1233                 1.2754

                      4                      5                      6
                      A                      A                      A
 Frequencies --    268.8745               328.8795               360.3687
 Red. masses --      1.4732                 1.7233                 3.3726
 Frc consts  --      0.0627                 0.1098                 0.2581
 IR Inten    --     34.7802                59.5457                 5.9344

                      7                      8                      9
                      A                      A                      A
 Frequencies --    409.4641               486.6582               526.7380
 Red. masses --      3.9632                 2.9783                 3.1141
 Frc consts  --      0.3915                 0.4156                 0.5091
 IR Inten    --     13.4890                 3.2816                 0.4673

                     10                     11                     12
                      A                      A                      A
 Frequencies --    583.4578               634.0107               717.6332
 Red. masses --      3.5644                 4.5430                 5.1504
 Frc consts  --      0.7149                 1.0759                 1.5628
 IR Inten    --      2.5710                 0.6724                 1.7646

                     13                     14                     15
                      A                      A                      A
 Frequencies --    753.2726               786.3734               836.0373
 Red. masses --      1.8716                 2.2661                 2.1913
 Frc consts  --      0.6257                 0.8256                 0.9024
 IR Inten    --      2.8516                 9.3606                11.6024

                     16                     17                     18
                      A                      A                      A
 Frequencies --    870.4612               928.5016               941.1656
 Red. masses --      2.1827                 1.9387                 1.5817
 Frc consts  --      0.9744                 0.9847                 0.8255
 IR Inten    --      5.6919                 5.8136                15.5205

                     19                     20                     21
                      A                      A                      A
 Frequencies --    956.4882               999.0534              1007.7317
 Red. masses --      1.6935                 2.1869                 1.9185
 Frc consts  --      0.9128                 1.2861                 1.1479
 IR Inten    --      7.9350                28.3517                25.1714

                     22                     23                     24
                      A                      A                      A
 Frequencies --   1031.7434              1062.0233              1065.8556
 Red. masses --      2.4207                 1.4682                 2.3888
 Frc consts  --      1.5182                 0.9757                 1.5989
 IR Inten    --     19.3384                 4.0428                 6.2710

                     25                     26                     27
                      A                      A                      A
 Frequencies --   1111.2299              1114.0133              1133.2698
 Red. masses --      2.0162                 1.7975                 2.4551
 Frc consts  --      1.4669                 1.3143                 1.8578
 IR Inten    --     15.4604                20.8996                53.7127

                     28                     29                     30
                      A                      A                      A
 Frequencies --   1147.8554              1180.8610              1200.3025
 Red. masses --      1.6557                 2.1912                 1.8127
 Frc consts  --      1.2853                 1.8003                 1.5387
 IR Inten    --      8.4251                71.8253                 0.5041

                     31                     32                     33
                      A                      A                      A
 Frequencies --   1257.7344              1290.8038              1303.5259
 Red. masses --      1.8323                 1.6729                 1.5959
 Frc consts  --      1.7077                 1.6422                 1.5977
 IR Inten    --     17.8873                47.2419                 0.6135

                     34                     35                     36
                      A                      A                      A
 Frequencies --   1335.2081              1377.4908              1391.2404
 Red. masses --      1.7326                 1.5808                 1.8461
 Frc consts  --      1.8199                 1.7673                 2.1053
 IR Inten    --     57.7370                12.8966                18.8715

                     37                     38                     39
                      A                      A                      A
 Frequencies --   1403.6382              1410.3940              1482.0239
 Red. masses --      1.7279                 1.4985                 1.0849
 Frc consts  --      2.0057                 1.7563                 1.4040
 IR Inten    --      4.4138                16.0328                 1.7913

                     40                     41                     42
                      A                      A                      A
 Frequencies --   1488.9138              1500.6961              2904.1540
 Red. masses --      1.0859                 1.0704                 1.0818
 Frc consts  --      1.4184                 1.4203                 5.3755
 IR Inten    --      4.2996                 4.9883                80.9560

                     43                     44                     45
                      A                      A                      A
 Frequencies --   3046.2009              3056.3148              3116.5520
 Red. masses --      1.0360                 1.0577                 1.1052
 Frc consts  --      5.6641                 5.8214                 6.3247
 IR Inten    --      9.3428                43.4517                14.4998

                     46                     47                     48
                      A                      A                      A
 Frequencies --   3118.4021              3127.4322              3173.2170
 Red. masses --      1.1016                 1.1015                 1.0906
 Frc consts  --      6.3115                 6.3476                 6.4700
 IR Inten    --     18.9677                22.1231                18.9325

                     49                     50                     51
                      A                      A                      A
 Frequencies --   3186.9709              3200.3169              3787.8717
 Red. masses --      1.0898                 1.0993                 1.0656
 Frc consts  --      6.5214                 6.6338                 9.0077
 IR Inten    --     16.4926                17.7023                15.3614

 - Thermochemistry -
 -------------------
 Temperature   298.150 Kelvin.  Pressure   1.00000 Atm.
 Atom     1 has atomic number  6 and mass  12.00000

 Molecular mass:   126.06808 amu.
 Principal axes and moments of inertia in atomic units:
                           1         2         3
     Eigenvalues --   751.56959 903.236371240.51789
           X            0.99806   0.06166  -0.00902
           Y           -0.06168   0.99810  -0.00139
           Z            0.00892   0.00194   0.99996
 This molecule is an asymmetric top.
 Rotational symmetry number  1.
 Warning -- assumption of classical behavior for rotation
           may cause significant error
 Rotational temperatures (Kelvin)      0.11524     0.09589     0.06982
 Rotational constants (GHZ):           2.40130     1.99808     1.45483
 Zero-point vibrational energy     418724.4 (Joules/Mol)
                                  100.07754 (Kcal/Mol)
 Warning -- explicit consideration of  10 degrees of freedom as
           vibrations may cause significant error
 Vibrational temperatures:    225.62   295.17   348.00   386.85   473.18
          (Kelvin)            518.49   589.13   700.19   757.86   839.46
                              912.20  1032.51  1083.79  1131.41  1202.87
                             1252.40  1335.90  1354.13  1376.17  1437.41
                             1449.90  1484.45  1528.01  1533.53  1598.81
                             1602.81  1630.52  1651.51  1698.99  1726.97
                             1809.60  1857.18  1875.48  1921.06  1981.90
                             2001.68  2019.52  2029.24  2132.30  2142.21
                             2159.16  4178.42  4382.80  4397.35  4484.02
                             4486.68  4499.67  4565.55  4585.33  4604.54
                             5449.90

 Zero-point correction=                           0.159484 (Hartree/Particle)
 Thermal correction to Energy=                    0.167173
 Thermal correction to Enthalpy=                  0.168117
 Thermal correction to Gibbs Free Energy=         0.127939
 Sum of electronic and zero-point Energies=           -422.996275
 Sum of electronic and thermal Energies=              -422.988586
 Sum of electronic and thermal Enthalpies=            -422.987642
 Sum of electronic and thermal Free Energies=         -423.027820

                     E (Thermal)             CV                S
                      KCal/Mol        Cal/Mol-Kelvin    Cal/Mol-Kelvin
 Total                  104.902             31.421             84.561
 Electronic               0.000              0.000              0.000
 Translational            0.889              2.981             40.409
 Rotational               0.889              2.981             28.223
 Vibrational            103.125             25.459             15.930
 Vibration     1          0.620              1.895              2.588
 Vibration     2          0.640              1.833              2.086
 Vibration     3          0.658              1.776              1.789
 Vibration     4          0.673              1.730              1.603
 Vibration     5          0.712              1.618              1.266
 Vibration     6          0.735              1.554              1.121
 Vibration     7          0.774              1.450              0.929
 Vibration     8          0.843              1.280              0.692
 Vibration     9          0.882              1.191              0.595
 Vibration    10          0.940              1.067              0.479

 Optimization completed.
    -- Stationary point found.
 Normal termination of Gaussian 09 at Tue Jan 28 03:43:57 2020.
