 Gaussian 09, Revision D.01,
 Gaussian 09:  ES64L-G09RevD.01 24-Apr-2013

 -----------------------------
 # b3lyp 6-31G(2df,p) opt Freq
 -----------------------------

 -----
 titel
 -----
 Symbolic Z-matrix:
 Charge =  0 Multiplicity = 1

 SCF Done:  E(RB3LYP) =  -423.201834422     A.U. after   14 cycles
 Optimization completed.
    -- Stationary point found.
 Normal termination of Gaussian 09 at Tue Jan 28 03:59:04 2020.

 ----------------------------------------------------------------------
 #N Geom=AllCheck Guess=TCheck SCRF=Check GenChk RB3LYP/6-31G(2df,p) Fr
 eq
 ----------------------------------------------------------------------

 Structure from the checkpoint file:  "/scratch/puck/g09_7d728f4a-63ac-4e42-beac-cb65807f3003/Gau-69803.chk"
 -----
 titel
 -----
 Charge =  0 Multiplicity = 1

                         Standard orientation:
 ---------------------------------------------------------------------
 Center     Atomic      Atomic             Coordinates (Angstroms)
 Number     Number       Type             X           Y           Z
 ---------------------------------------------------------------------
      1          6           0        1.635394   -0.969005    1.116624
      2          6           0        1.245630   -0.554025   -0.315090
      3          6           0        0.095844   -1.387200   -0.920393
      4          6           0       -1.181302   -0.575549   -0.689007
      5          8           0       -1.661378   -0.644266    0.680798
      6          6           0       -1.556577    0.786833    0.831209
      7          6           0       -0.790328    0.905334   -0.506996
      8          6           0        0.728034    0.897880   -0.324812
      9          8           0        1.413254    1.879664   -0.192525
     10          1           0        0.754215   -1.012545    1.762335
     11          1           0        2.094339   -1.962503    1.109150
     12          1           0        2.353691   -0.260960    1.539245
     13          1           0        2.143779   -0.586079   -0.939530
     14          1           0        0.237587   -1.515264   -1.999970
     15          1           0        0.008714   -2.384522   -0.479281
     16          1           0       -1.983308   -0.808587   -1.397609
     17          1           0       -2.540820    1.271713    0.815509
     18          1           0       -1.024740    1.078490    1.743290
     19          1           0       -1.118637    1.671470   -1.208536
 ---------------------------------------------------------------------

 SCF Done:  E(RB3LYP) =  -423.201834422     A.U. after    1 cycles

 The electronic state is 1-A.
 Alpha  occ. eigenvalues --  -19.14236 -19.13361 -10.26829 -10.24431 -10.24360
 Alpha  occ. eigenvalues --  -10.20056 -10.19753 -10.19124 -10.18196  -1.05109
 Alpha  occ. eigenvalues --   -1.04087  -0.82985  -0.75788  -0.72959  -0.65562
 Alpha  occ. eigenvalues --   -0.64146  -0.56608  -0.53393  -0.51188  -0.47731
 Alpha  occ. eigenvalues --   -0.46021  -0.45011  -0.43143  -0.42437  -0.41055
 Alpha  occ. eigenvalues --   -0.39930  -0.38439  -0.37147  -0.34515  -0.33643
 Alpha  occ. eigenvalues --   -0.32559  -0.31564  -0.26133  -0.23909
 Alpha virt. eigenvalues --   -0.02631   0.08009   0.08888   0.10928   0.11676
 Alpha virt. eigenvalues --    0.13117   0.14555   0.14906   0.15998   0.16645
 Alpha virt. eigenvalues --    0.17468   0.18139   0.18573   0.20418   0.21306

 Mulliken charges:
               1
     1  C   -0.405422
     2  C   -0.087772
     3  C   -0.258185
     4  C    0.122639
     5  O   -0.292661
     6  C   -0.084668
     7  C   -0.186469
     8  C    0.397720
     9  O   -0.327295
    10  H    0.141148
    11  H    0.118762
    12  H    0.132632
    13  H    0.100246
    14  H    0.104245
    15  H    0.116830
    16  H    0.077785
    17  H    0.110780
    18  H    0.119200
    19  H    0.100486
 Sum of Mulliken charges =   0.00000

 Dipole moment (field-independent basis, Debye):
    X=             -0.9015    Y=             -1.1423    Z=             -1.0993  Tot=              1.8238
 Quadrupole moment (field-independent basis, Debye-Ang):
   XX=            -55.3123   YY=            -57.2022   ZZ=            -51.0272
   XY=             -7.4176   XZ=              1.8499   YZ=              2.0695

  Exact polarizability:  78.244  -2.332  75.796   1.410   2.856  67.927
 Approx polarizability: 108.774   4.755 114.947  -0.370   2.557 101.244

                      1                      2                      3
                      A                      A                      A
 Frequencies --     70.5521               133.8322               206.3724
 Red. masses --      3.8824                 3.7957                 3.0999
 Frc consts  --      0.0114                 0.0401                 0.0778
 IR Inten    --      4.2413                 4.0505                 1.5615

                      4                      5                      6
                      A                      A                      A
 Frequencies --    250.4145               266.9280               327.4936
 Red. masses --      1.1807                 2.2087                 4.3234
 Frc consts  --      0.0436                 0.0927                 0.2732
 IR Inten    --      0.3042                 4.5161                 3.6951

                      7                      8                      9
                      A                      A                      A
 Frequencies --    362.0219               473.8657               557.1361
 Red. masses --      1.8429                 4.0710                 5.1404
 Frc consts  --      0.1423                 0.5386                 0.9401
 IR Inten    --      2.1809                 5.4851                 1.7900

                     10                     11                     12
                      A                      A                      A
 Frequencies --    662.8843               693.3786               763.0537
 Red. masses --      4.7724                 4.3948                 2.8482
 Frc consts  --      1.2356                 1.2449                 0.9771
 IR Inten    --      1.5544                 0.1992                 0.0938

                     13                     14                     15
                      A                      A                      A
 Frequencies --    801.1049               854.8872               871.9166
 Red. masses --      2.3453                 2.1744                 2.6432
 Frc consts  --      0.8868                 0.9363                 1.1839
 IR Inten    --      3.0668                 9.4464                 8.1423

                     16                     17                     18
                      A                      A                      A
 Frequencies --    898.3985               953.9775               956.7734
 Red. masses --      2.1467                 2.1829                 1.9274
 Frc consts  --      1.0209                 1.1705                 1.0395
 IR Inten    --     17.5115                 9.9593                12.2811

                     19                     20                     21
                      A                      A                      A
 Frequencies --    981.5675              1022.7370              1040.6673
 Red. masses --      2.1887                 3.1199                 2.0859
 Frc consts  --      1.2425                 1.9227                 1.3310
 IR Inten    --     13.8788                82.9217                 1.9463

                     22                     23                     24
                      A                      A                      A
 Frequencies --   1056.3300              1111.6794              1115.2319
 Red. masses --      1.8300                 1.7214                 2.2961
 Frc consts  --      1.2031                 1.2534                 1.6826
 IR Inten    --      5.7258                 7.2489                 0.8809

                     25                     26                     27
                      A                      A                      A
 Frequencies --   1151.5428              1168.5187              1203.5321
 Red. masses --      1.6826                 1.4351                 1.8392
 Frc consts  --      1.3146                 1.1546                 1.5696
 IR Inten    --     36.9360                15.2069                11.3497

                     28                     29                     30
                      A                      A                      A
 Frequencies --   1206.5680              1257.2811              1268.7935
 Red. masses --      1.4335                 1.6210                 1.7820
 Frc consts  --      1.2295                 1.5097                 1.6902
 IR Inten    --     11.5935                 7.0295                 5.1228

                     31                     32                     33
                      A                      A                      A
 Frequencies --   1286.7998              1320.5180              1340.3622
 Red. masses --      1.3293                 1.4279                 1.4762
 Frc consts  --      1.2968                 1.4671                 1.5625
 IR Inten    --      2.7882                 4.2905                 0.8137

                     34                     35                     36
                      A                      A                      A
 Frequencies --   1359.0048              1361.0722              1402.8258
 Red. masses --      1.3254                 1.5957                 1.2094
 Frc consts  --      1.4422                 1.7417                 1.4022
 IR Inten    --      9.6596                 9.2198                 3.7493

                     37                     38                     39
                      A                      A                      A
 Frequencies --   1473.5041              1497.5592              1509.0297
 Red. masses --      1.0921                 1.0454                 1.0511
 Frc consts  --      1.3971                 1.3813                 1.4103
 IR Inten    --      4.4447                 4.1982                 1.8852

                     40                     41                     42
                      A                      A                      A
 Frequencies --   1529.1697              1836.6791              3017.2593
 Red. masses --      1.0959                12.4077                 1.0581
 Frc consts  --      1.5098                24.6609                 5.6755
 IR Inten    --      0.0984               183.9840                71.3476

                     43                     44                     45
                      A                      A                      A
 Frequencies --   3035.0890              3041.0052              3051.1361
 Red. masses --      1.0689                 1.0347                 1.0832
 Frc consts  --      5.8014                 5.6379                 5.9413
 IR Inten    --      8.8203                24.2462                63.3259

                     46                     47                     48
                      A                      A                      A
 Frequencies --   3063.0930              3071.2223              3094.0891
 Red. masses --      1.0826                 1.1078                 1.1007
 Frc consts  --      5.9845                 6.1566                 6.2087
 IR Inten    --     15.5619                25.4171                14.4899

                     49                     50                     51
                      A                      A                      A
 Frequencies --   3111.8609              3123.6070              3128.2581
 Red. masses --      1.1015                 1.0884                 1.1028
 Frc consts  --      6.2845                 6.2569                 6.3584
 IR Inten    --     17.9545                12.8669                15.5182

 - Thermochemistry -
 -------------------
 Temperature   298.150 Kelvin.  Pressure   1.00000 Atm.
 Atom     1 has atomic number  6 and mass  12.00000

 Molecular mass:   126.06808 amu.
 Principal axes and moments of inertia in atomic units:
                           1         2         3
     Eigenvalues --   789.423451030.049181308.67920
           X            0.98357  -0.17746   0.03298
           Y            0.17672   0.98396   0.02430
           Z           -0.03676  -0.01808   0.99916
 This molecule is an asymmetric top.
 Rotational symmetry number  1.
 Warning -- assumption of classical behavior for rotation
           may cause significant error
 Rotational temperatures (Kelvin)      0.10972     0.08409     0.06618
 Rotational constants (GHZ):           2.28615     1.75209     1.37906
 Zero-point vibrational energy     420742.1 (Joules/Mol)
                                  100.55977 (Kcal/Mol)
 Warning -- explicit consideration of   9 degrees of freedom as
           vibrations may cause significant error
 Vibrational temperatures:    101.51   192.55   296.92   360.29   384.05
          (Kelvin)            471.19   520.87   681.79   801.59   953.74
                              997.62  1097.86  1152.61  1229.99  1254.49
                             1292.59  1372.56  1376.58  1412.25  1471.49
                             1497.29  1519.82  1599.46  1604.57  1656.81
                             1681.24  1731.61  1735.98  1808.94  1825.51
                             1851.42  1899.93  1928.48  1955.30  1958.28
                             2018.35  2120.04  2154.65  2171.15  2200.13
                             2642.57  4341.16  4366.81  4375.32  4389.90
                             4407.10  4418.80  4451.70  4477.27  4494.17
                             4500.86

 Zero-point correction=                           0.160252 (Hartree/Particle)
 Thermal correction to Energy=                    0.168248
 Thermal correction to Enthalpy=                  0.169192
 Thermal correction to Gibbs Free Energy=         0.127551
 Sum of electronic and zero-point Energies=           -423.041582
 Sum of electronic and thermal Energies=              -423.033586
 Sum of electronic and thermal Enthalpies=            -423.032642
 Sum of electronic and thermal Free Energies=         -423.074283

                     E (Thermal)             CV                S
                      KCal/Mol        Cal/Mol-Kelvin    Cal/Mol-Kelvin
 Total                  105.577             30.585             87.641
 Electronic               0.000              0.000              0.000
 Translational            0.889              2.981             40.409
 Rotational               0.889              2.981             28.455
 Vibrational            103.800             24.624             18.777
 Vibration     1          0.598              1.968              4.138
 Vibration     2          0.613              1.920              2.890
 Vibration     3          0.641              1.831              2.076
 Vibration     4          0.663              1.762              1.728
 Vibration     5          0.672              1.734              1.616
 Vibration     6          0.711              1.621              1.272
 Vibration     7          0.736              1.550              1.113
 Vibration     8          0.831              1.308              0.727
 Vibration     9          0.913              1.124              0.530

 Optimization completed.
    -- Stationary point found.
 Normal termination of Gaussian 09 at Tue Jan 28 04:48:06 2020.
