 Gaussian 09, Revision D.01,
 Gaussian 09:  ES64L-G09RevD.01 24-Apr-2013

 -----------------------------
 # b3lyp 6-31G(2df,p) opt Freq
 -----------------------------

 -----
 titel
 -----
 Symbolic Z-matrix:
 Charge =  0 Multiplicity = 1

 SCF Done:  E(RB3LYP) =  -423.164514370     A.U. after   14 cycles
 Optimization completed.
    -- Stationary point found.
 Normal termination of Gaussian 09 at Mon Jan 27 14:19:49 2020.

 ----------------------------------------------------------------------
 #N Geom=AllCheck Guess=TCheck SCRF=Check GenChk RB3LYP/6-31G(2df,p) Fr
 eq
 ----------------------------------------------------------------------

 Structure from the checkpoint file:  "/scratch/puck/g09_0b7ec8a9-3c4b-48cc-bb56-8251cca2d2b7/Gau-158105.chk"
 -----
 titel
 -----
 Charge =  0 Multiplicity = 1

                         Standard orientation:
 ---------------------------------------------------------------------
 Center     Atomic      Atomic             Coordinates (Angstroms)
 Number     Number       Type             X           Y           Z
 ---------------------------------------------------------------------
      1          6           0       -2.373748   -0.871540    0.699199
      2          6           0       -1.222130   -0.169457   -0.031833
      3          6           0       -1.725091    1.063609   -0.784362
      4          8           0       -0.681158   -1.029879   -1.037829
      5          6           0       -0.111672    0.209074    0.993626
      6          6           0        1.160922    0.675548    0.306376
      7          8           0        1.354728    1.830890   -0.005536
      8          6           0        2.149821   -0.355918    0.031398
      9          6           0        2.978682   -1.208268   -0.159815
     10          1           0       -2.815178   -0.225654    1.464846
     11          1           0       -3.154144   -1.146760   -0.015773
     12          1           0       -2.023135   -1.785396    1.193125
     13          1           0       -2.220991    1.758515   -0.101021
     14          1           0       -0.901236    1.589282   -1.270599
     15          1           0       -2.441532    0.753037   -1.549667
     16          1           0       -0.338643   -1.822973   -0.610885
     17          1           0       -0.465790    1.020549    1.635979
     18          1           0        0.109764   -0.661873    1.621095
     19          1           0        3.721617   -1.945096   -0.347719
 ---------------------------------------------------------------------

 SCF Done:  E(RB3LYP) =  -423.164514370     A.U. after    1 cycles

 The electronic state is 1-A.
 Alpha  occ. eigenvalues --  -19.14049 -19.14001 -10.29218 -10.25279 -10.20693
 Alpha  occ. eigenvalues --  -10.20076 -10.19630 -10.18270 -10.17161  -1.05076
 Alpha  occ. eigenvalues --   -1.02411  -0.80439  -0.77671  -0.72763  -0.69578
 Alpha  occ. eigenvalues --   -0.63418  -0.57760  -0.53789  -0.50637  -0.48017
 Alpha  occ. eigenvalues --   -0.46818  -0.44593  -0.43854  -0.40426  -0.40052
 Alpha  occ. eigenvalues --   -0.38251  -0.37854  -0.36370  -0.35958  -0.32273
 Alpha  occ. eigenvalues --   -0.30075  -0.29588  -0.27543  -0.25898
 Alpha virt. eigenvalues --   -0.05952   0.03549   0.06046   0.10219   0.10751
 Alpha virt. eigenvalues --    0.11217   0.11810   0.14325   0.15348   0.16106
 Alpha virt. eigenvalues --    0.17571   0.19100   0.19640   0.21210   0.21371

 Mulliken charges:
               1
     1  C   -0.419959
     2  C    0.349006
     3  C   -0.390350
     4  O   -0.455175
     5  C   -0.346416
     6  C    0.274828
     7  O   -0.291055
     8  C    0.283836
     9  C   -0.460520
    10  H    0.118657
    11  H    0.126693
    12  H    0.104165
    13  H    0.113490
    14  H    0.145782
    15  H    0.122069
    16  H    0.278037
    17  H    0.127717
    18  H    0.102824
    19  H    0.216371
 Sum of Mulliken charges =   0.00000

 Dipole moment (field-independent basis, Debye):
    X=             -0.6616    Y=             -2.8910    Z=              1.7596  Tot=              3.4484
 Quadrupole moment (field-independent basis, Debye-Ang):
   XX=            -49.1401   YY=            -53.3402   ZZ=            -54.7871
   XY=             -7.8800   XZ=             -1.2449   YZ=              0.1140

  Exact polarizability:  92.487 -13.050  82.657  -4.108   0.307  60.950
 Approx polarizability: 122.057 -27.048 142.852  -6.892   2.251  91.967

                      1                      2                      3
                      A                      A                      A
 Frequencies --     44.2582                69.8654               152.0227
 Red. masses --      4.5334                 3.6681                 5.5231
 Frc consts  --      0.0052                 0.0105                 0.0752
 IR Inten    --      1.4944                 0.3488                 0.4756

                      4                      5                      6
                      A                      A                      A
 Frequencies --    174.9854               216.2670               248.6431
 Red. masses --      3.4405                 1.0573                 1.7106
 Frc consts  --      0.0621                 0.0291                 0.0623
 IR Inten    --      3.1608                 3.6317                 1.5437

                      7                      8                      9
                      A                      A                      A
 Frequencies --    261.1157               299.6096               314.7122
 Red. masses --      1.9444                 1.8203                 1.9615
 Frc consts  --      0.0781                 0.0963                 0.1145
 IR Inten    --      3.3246                36.5985                21.1849

                     10                     11                     12
                      A                      A                      A
 Frequencies --    331.5326               398.9972               436.4286
 Red. masses --      1.8040                 2.4986                 3.1561
 Frc consts  --      0.1168                 0.2344                 0.3542
 IR Inten    --     74.5663                 2.8090                 4.8381

                     13                     14                     15
                      A                      A                      A
 Frequencies --    457.2417               484.5268               612.3765
 Red. masses --      2.1780                 3.7182                 6.6835
 Frc consts  --      0.2683                 0.5143                 1.4767
 IR Inten    --      8.7773                12.3679                10.0800

                     16                     17                     18
                      A                      A                      A
 Frequencies --    645.9227               672.3861               707.4350
 Red. masses --      1.2698                 4.9888                 1.2826
 Frc consts  --      0.3121                 1.3289                 0.3782
 IR Inten    --     41.4790                 2.4890                31.4348

                     19                     20                     21
                      A                      A                      A
 Frequencies --    773.3857               834.5016               903.5411
 Red. masses --      3.5587                 5.7220                 1.9995
 Frc consts  --      1.2541                 2.3478                 0.9617
 IR Inten    --      3.3693                13.0192                 6.6792

                     22                     23                     24
                      A                      A                      A
 Frequencies --    923.9506               942.6583               973.7018
 Red. masses --      2.2097                 1.5044                 2.0035
 Frc consts  --      1.1114                 0.7877                 1.1192
 IR Inten    --     12.2724                 5.5094                11.9357

                     25                     26                     27
                      A                      A                      A
 Frequencies --   1024.7150              1087.2571              1138.1823
 Red. masses --      1.4364                 1.7868                 1.8411
 Frc consts  --      0.8887                 1.2445                 1.4052
 IR Inten    --      3.6951                54.0235                65.7967

                     28                     29                     30
                      A                      A                      A
 Frequencies --   1197.8158              1231.7981              1243.3809
 Red. masses --      2.0370                 2.7891                 1.5528
 Frc consts  --      1.7220                 2.4934                 1.4144
 IR Inten    --    106.5372                47.1270                30.0546

                     31                     32                     33
                      A                      A                      A
 Frequencies --   1314.2950              1380.4640              1404.3923
 Red. masses --      1.6687                 1.4089                 1.3666
 Frc consts  --      1.6983                 1.5819                 1.5881
 IR Inten    --     52.0542                25.2010                19.1430

                     34                     35                     36
                      A                      A                      A
 Frequencies --   1425.3557              1467.6170              1480.0372
 Red. masses --      1.3160                 1.0921                 1.0515
 Frc consts  --      1.5753                 1.3859                 1.3571
 IR Inten    --     12.2795                 3.4208                 0.9113

                     37                     38                     39
                      A                      A                      A
 Frequencies --   1487.2768              1498.1395              1505.7852
 Red. masses --      1.0682                 1.0765                 1.0541
 Frc consts  --      1.3922                 1.4235                 1.4082
 IR Inten    --      2.1829                 1.8931                 5.3983

                     40                     41                     42
                      A                      A                      A
 Frequencies --   1765.5881              2208.1632              3027.6102
 Red. masses --     11.6680                 5.9235                 1.0374
 Frc consts  --     21.4301                17.0172                 5.6029
 IR Inten    --    152.0301                58.0602                14.4034

                     43                     44                     45
                      A                      A                      A
 Frequencies --   3040.0564              3052.0643              3095.0100
 Red. masses --      1.0588                 1.0369                 1.0997
 Frc consts  --      5.7656                 5.6907                 6.2065
 IR Inten    --     19.3826                 8.7991                13.6870

                     46                     47                     48
                      A                      A                      A
 Frequencies --   3104.0349              3115.8855              3125.3205
 Red. masses --      1.1014                 1.1023                 1.1018
 Frc consts  --      6.2525                 6.3053                 6.3410
 IR Inten    --     23.1727                 5.7497                31.7491

                     49                     50                     51
                      A                      A                      A
 Frequencies --   3141.0874              3493.2743              3802.3661
 Red. masses --      1.1012                 1.1614                 1.0660
 Frc consts  --      6.4017                 8.3505                 9.0805
 IR Inten    --     11.0579                53.0432                 9.5601

 - Thermochemistry -
 -------------------
 Temperature   298.150 Kelvin.  Pressure   1.00000 Atm.
 Atom     1 has atomic number  6 and mass  12.00000

 Molecular mass:   126.06808 amu.
 Principal axes and moments of inertia in atomic units:
                           1         2         3
     Eigenvalues --   696.880941574.573451863.78932
           X            0.99963  -0.02580  -0.00883
           Y            0.02541   0.99881  -0.04158
           Z            0.00989   0.04134   0.99910
 This molecule is an asymmetric top.
 Rotational symmetry number  1.
 Warning -- assumption of classical behavior for rotation
           may cause significant error
 Rotational temperatures (Kelvin)      0.12429     0.05501     0.04647
 Rotational constants (GHZ):           2.58974     1.14618     0.96832
 Zero-point vibrational energy     405157.5 (Joules/Mol)
                                   96.83496 (Kcal/Mol)
 Warning -- explicit consideration of  15 degrees of freedom as
           vibrations may cause significant error
 Vibrational temperatures:     63.68   100.52   218.73   251.76   311.16
          (Kelvin)            357.74   375.69   431.07   452.80   477.00
                              574.07   627.92   657.87   697.13   881.07
                              929.34   967.41  1017.84  1112.73  1200.66
                             1299.99  1329.36  1356.27  1400.94  1474.33
                             1564.32  1637.59  1723.39  1772.28  1788.95
                             1890.98  1986.18  2020.60  2050.77  2111.57
                             2129.44  2139.86  2155.49  2166.49  2540.28
                             3177.05  4356.05  4373.96  4391.23  4453.02
                             4466.01  4483.06  4496.63  4519.32  5026.04
                             5470.75

 Zero-point correction=                           0.154316 (Hartree/Particle)
 Thermal correction to Energy=                    0.164866
 Thermal correction to Enthalpy=                  0.165810
 Thermal correction to Gibbs Free Energy=         0.118662
 Sum of electronic and zero-point Energies=           -423.010198
 Sum of electronic and thermal Energies=              -422.999649
 Sum of electronic and thermal Enthalpies=            -422.998705
 Sum of electronic and thermal Free Energies=         -423.045852

                     E (Thermal)             CV                S
                      KCal/Mol        Cal/Mol-Kelvin    Cal/Mol-Kelvin
 Total                  103.455             38.522             99.230
 Electronic               0.000              0.000              0.000
 Translational            0.889              2.981             40.409
 Rotational               0.889              2.981             29.104
 Vibrational            101.677             32.560             29.717
 Vibration     1          0.595              1.980              5.059
 Vibration     2          0.598              1.968              4.157
 Vibration     3          0.619              1.900              2.647
 Vibration     4          0.627              1.873              2.381
 Vibration     5          0.645              1.816              1.990
 Vibration     6          0.662              1.765              1.740
 Vibration     7          0.669              1.744              1.654
 Vibration     8          0.692              1.674              1.419
 Vibration     9          0.702              1.646              1.337
 Vibration    10          0.714              1.613              1.253
 Vibration    11          0.765              1.472              0.966
 Vibration    12          0.797              1.391              0.838
 Vibration    13          0.815              1.345              0.774
 Vibration    14          0.841              1.284              0.698
 Vibration    15          0.972              1.006              0.429

 Normal termination of Gaussian 09 at Mon Jan 27 15:02:27 2020.
