 Gaussian 09, Revision D.01,
 Gaussian 09:  ES64L-G09RevD.01 24-Apr-2013

 -----------------------------
 # b3lyp 6-31G(2df,p) opt Freq
 -----------------------------

 -----
 titel
 -----
 Symbolic Z-matrix:
 Charge =  0 Multiplicity = 1

 SCF Done:  E(RB3LYP) =  -423.188388853     A.U. after   14 cycles
 Optimization completed.
    -- Stationary point found.
 Normal termination of Gaussian 09 at Mon Jan 27 13:12:59 2020.

 ----------------------------------------------------------------------
 #N Geom=AllCheck Guess=TCheck SCRF=Check GenChk RB3LYP/6-31G(2df,p) Fr
 eq
 ----------------------------------------------------------------------

 Structure from the checkpoint file:  "/scratch/puck/g09_22f352ab-6236-4a38-b7c8-33c10be8c74f/Gau-156171.chk"
 -----
 titel
 -----
 Charge =  0 Multiplicity = 1

                         Standard orientation:
 ---------------------------------------------------------------------
 Center     Atomic      Atomic             Coordinates (Angstroms)
 Number     Number       Type             X           Y           Z
 ---------------------------------------------------------------------
      1          8           0        1.516233    1.751205    0.594408
      2          6           0        0.722549    1.073974   -0.013656
      3          6           0       -0.753096    1.511120   -0.100417
      4          8           0       -1.627819    0.554865   -0.645729
      5          6           0       -1.948982   -0.529625    0.213940
      6          6           0       -0.718316   -1.279152    0.760376
      7          6           0        0.343390   -1.458765   -0.304839
      8          6           0        1.809416   -1.292544    0.028164
      9          6           0        1.081910   -0.211596   -0.721977
     10          1           0       -1.060797    1.846397    0.902337
     11          1           0       -0.798455    2.387304   -0.758332
     12          1           0       -2.573770   -0.180983    1.051876
     13          1           0       -2.559474   -1.198039   -0.401290
     14          1           0       -0.291637   -0.722646    1.604899
     15          1           0       -1.046160   -2.240937    1.171700
     16          1           0        0.093453   -2.161321   -1.095139
     17          1           0        2.083472   -1.087835    1.058206
     18          1           0        2.531033   -1.893546   -0.513597
     19          1           0        1.293795   -0.077418   -1.779630
 ---------------------------------------------------------------------

 SCF Done:  E(RB3LYP) =  -423.188388853     A.U. after    1 cycles

 The electronic state is 1-A.
 Alpha  occ. eigenvalues --  -19.14830 -19.13134 -10.26932 -10.23599 -10.23546
 Alpha  occ. eigenvalues --  -10.20089 -10.19639 -10.19476 -10.19264  -1.04808
 Alpha  occ. eigenvalues --   -1.03544  -0.87321  -0.77304  -0.71931  -0.65741
 Alpha  occ. eigenvalues --   -0.61882  -0.57987  -0.53737  -0.51589  -0.48425
 Alpha  occ. eigenvalues --   -0.46872  -0.46245  -0.45218  -0.42779  -0.41789
 Alpha  occ. eigenvalues --   -0.38657  -0.38363  -0.36691  -0.34869  -0.32519
 Alpha  occ. eigenvalues --   -0.29797  -0.28919  -0.27673  -0.23565
 Alpha virt. eigenvalues --   -0.02156   0.08148   0.09486   0.11070   0.11641
 Alpha virt. eigenvalues --    0.13274   0.13806   0.14820   0.16439   0.16836
 Alpha virt. eigenvalues --    0.17517   0.18208   0.18590   0.22192   0.23675

 Mulliken charges:
               1
     1  O   -0.304218
     2  C    0.312607
     3  C   -0.179352
     4  O   -0.224551
     5  C   -0.069720
     6  C   -0.270683
     7  C    0.017680
     8  C   -0.316999
     9  C   -0.091090
    10  H    0.118038
    11  H    0.138350
    12  H    0.093526
    13  H    0.112038
    14  H    0.114821
    15  H    0.106369
    16  H    0.087804
    17  H    0.126439
    18  H    0.116543
    19  H    0.112398
 Sum of Mulliken charges =   0.00000

 Dipole moment (field-independent basis, Debye):
    X=             -1.2807    Y=             -2.0001    Z=             -0.2676  Tot=              2.3900
 Quadrupole moment (field-independent basis, Debye-Ang):
   XX=            -56.5182   YY=            -53.5975   ZZ=            -52.1899
   XY=             -3.0626   XZ=             -4.5251   YZ=             -1.3725

  Exact polarizability:  80.396   0.690  79.633  -0.858   1.612  64.182
 Approx polarizability: 111.415   7.097 113.558   4.891   4.476 103.000

                      1                      2                      3
                      A                      A                      A
 Frequencies --     58.2937               178.4009               236.7988
 Red. masses --      3.9422                 2.4055                 3.0168
 Frc consts  --      0.0079                 0.0451                 0.0997
 IR Inten    --      4.5021                 0.5355                 1.6609

                      4                      5                      6
                      A                      A                      A
 Frequencies --    269.9782               327.2055               362.1285
 Red. masses --      3.3089                 2.3168                 3.7022
 Frc consts  --      0.1421                 0.1461                 0.2860
 IR Inten    --     10.3060                 1.4236                 1.3844

                      7                      8                      9
                      A                      A                      A
 Frequencies --    396.9007               466.1477               542.6273
 Red. masses --      3.0219                 3.9906                 2.9692
 Frc consts  --      0.2805                 0.5109                 0.5151
 IR Inten    --      3.7946                 4.8337                 2.6668

                     10                     11                     12
                      A                      A                      A
 Frequencies --    609.7993               643.6146               710.7962
 Red. masses --      2.6317                 4.5116                 2.3688
 Frc consts  --      0.5766                 1.1011                 0.7051
 IR Inten    --      3.3484                17.1179                 3.4236

                     13                     14                     15
                      A                      A                      A
 Frequencies --    793.8867               827.1106               854.0507
 Red. masses --      1.8780                 1.3669                 2.3171
 Frc consts  --      0.6974                 0.5510                 0.9958
 IR Inten    --      2.5143                 5.5320                10.8897

                     16                     17                     18
                      A                      A                      A
 Frequencies --    912.8079               930.2747               954.4472
 Red. masses --      2.2549                 1.6624                 2.7797
 Frc consts  --      1.1070                 0.8476                 1.4919
 IR Inten    --      3.0180                 0.6913                 8.1689

                     19                     20                     21
                      A                      A                      A
 Frequencies --    998.5103              1022.5716              1038.9692
 Red. masses --      1.6510                 2.4659                 2.7442
 Frc consts  --      0.9699                 1.5192                 1.7453
 IR Inten    --      3.2093                11.0939                 4.8004

                     22                     23                     24
                      A                      A                      A
 Frequencies --   1072.1497              1092.9386              1117.4640
 Red. masses --      1.4021                 1.8118                 1.4744
 Frc consts  --      0.9496                 1.2751                 1.0848
 IR Inten    --      6.5415                 6.5101                14.6535

                     25                     26                     27
                      A                      A                      A
 Frequencies --   1122.9014              1175.3223              1188.4729
 Red. masses --      2.4381                 2.2049                 3.2768
 Frc consts  --      1.8113                 1.7945                 2.7269
 IR Inten    --     32.3913                22.2615                88.0084

                     28                     29                     30
                      A                      A                      A
 Frequencies --   1209.6143              1256.7362              1266.5546
 Red. masses --      1.4578                 1.2249                 1.4147
 Frc consts  --      1.2568                 1.1398                 1.3371
 IR Inten    --      2.7213                 1.8907                26.3503

                     31                     32                     33
                      A                      A                      A
 Frequencies --   1304.6901              1340.1108              1356.7167
 Red. masses --      1.2799                 1.3215                 1.2607
 Frc consts  --      1.2837                 1.3983                 1.3673
 IR Inten    --      2.3103                 9.6173                 5.5838

                     34                     35                     36
                      A                      A                      A
 Frequencies --   1369.1385              1406.1879              1421.7392
 Red. masses --      1.8506                 1.3465                 1.6279
 Frc consts  --      2.0439                 1.5687                 1.9387
 IR Inten    --     17.0047                 1.8345                 4.9462

                     37                     38                     39
                      A                      A                      A
 Frequencies --   1453.2096              1487.1478              1491.1453
 Red. masses --      1.0889                 1.1454                 1.2315
 Frc consts  --      1.3548                 1.4925                 1.6134
 IR Inten    --      6.6994                 1.9565                 7.4132

                     40                     41                     42
                      A                      A                      A
 Frequencies --   1500.8104              1810.9595              2979.5783
 Red. masses --      1.1049                12.6853                 1.0698
 Frc consts  --      1.4664                24.5115                 5.5961
 IR Inten    --      2.1768               151.1219                62.5997

                     43                     44                     45
                      A                      A                      A
 Frequencies --   2991.9549              3026.3400              3060.5418
 Red. masses --      1.0655                 1.0628                 1.0970
 Frc consts  --      5.6198                 5.7349                 6.0543
 IR Inten    --     29.9957                20.0050                16.5120

                     46                     47                     48
                      A                      A                      A
 Frequencies --   3063.5564              3083.0222              3132.9303
 Red. masses --      1.0951                 1.0957                 1.0544
 Frc consts  --      6.0558                 6.1361                 6.0977
 IR Inten    --     10.1884                40.8378                13.6453

                     49                     50                     51
                      A                      A                      A
 Frequencies --   3139.2482              3148.7362              3218.7981
 Red. masses --      1.0860                 1.0903                 1.1163
 Frc consts  --      6.3056                 6.3692                 6.8140
 IR Inten    --     14.0852                 9.9956                 7.5812

 - Thermochemistry -
 -------------------
 Temperature   298.150 Kelvin.  Pressure   1.00000 Atm.
 Atom     1 has atomic number  8 and mass  15.99491

 Molecular mass:   126.06808 amu.
 Principal axes and moments of inertia in atomic units:
                           1         2         3
     Eigenvalues --   817.18656 956.606041490.98376
           X            0.99113  -0.13007  -0.02744
           Y            0.12989   0.99150  -0.00807
           Z            0.02825   0.00444   0.99959
 This molecule is an asymmetric top.
 Rotational symmetry number  1.
 Warning -- assumption of classical behavior for rotation
           may cause significant error
 Rotational temperatures (Kelvin)      0.10599     0.09054     0.05809
 Rotational constants (GHZ):           2.20848     1.88661     1.21044
 Zero-point vibrational energy     421229.3 (Joules/Mol)
                                  100.67621 (Kcal/Mol)
 Warning -- explicit consideration of  10 degrees of freedom as
           vibrations may cause significant error
 Vibrational temperatures:     83.87   256.68   340.70   388.44   470.78
          (Kelvin)            521.02   571.05   670.68   780.72   877.36
                              926.02  1022.68  1142.22  1190.03  1228.79
                             1313.33  1338.46  1373.23  1436.63  1471.25
                             1494.84  1542.58  1572.49  1607.78  1615.60
                             1691.02  1709.95  1740.36  1808.16  1822.29
                             1877.16  1928.12  1952.01  1969.88  2023.19
                             2045.56  2090.84  2139.67  2145.42  2159.33
                             2605.56  4286.94  4304.75  4354.22  4403.43
                             4407.77  4435.78  4507.58  4516.67  4530.32
                             4631.13

 Zero-point correction=                           0.160438 (Hartree/Particle)
 Thermal correction to Energy=                    0.168254
 Thermal correction to Enthalpy=                  0.169198
 Thermal correction to Gibbs Free Energy=         0.127943
 Sum of electronic and zero-point Energies=           -423.027951
 Sum of electronic and thermal Energies=              -423.020135
 Sum of electronic and thermal Enthalpies=            -423.019191
 Sum of electronic and thermal Free Energies=         -423.060446

                     E (Thermal)             CV                S
                      KCal/Mol        Cal/Mol-Kelvin    Cal/Mol-Kelvin
 Total                  105.581             30.629             86.829
 Electronic               0.000              0.000              0.000
 Translational            0.889              2.981             40.409
 Rotational               0.889              2.981             28.546
 Vibrational            103.804             24.668             17.874
 Vibration     1          0.596              1.974              4.514
 Vibration     2          0.629              1.869              2.345
 Vibration     3          0.656              1.784              1.827
 Vibration     4          0.674              1.728              1.596
 Vibration     5          0.711              1.621              1.274
 Vibration     6          0.736              1.550              1.113
 Vibration     7          0.763              1.477              0.974
 Vibration     8          0.824              1.325              0.748
 Vibration     9          0.898              1.156              0.560
 Vibration    10          0.969              1.011              0.433

 Optimization completed.
    -- Stationary point found.
 Normal termination of Gaussian 09 at Mon Jan 27 13:57:38 2020.
