 Gaussian 09, Revision D.01,
 Gaussian 09:  ES64L-G09RevD.01 24-Apr-2013

 -----------------------------
 # b3lyp 6-31G(2df,p) opt Freq
 -----------------------------

 -----
 titel
 -----
 Symbolic Z-matrix:
 Charge =  0 Multiplicity = 1

 SCF Done:  E(RB3LYP) =  -423.134772253     A.U. after   13 cycles
 Optimization completed.
    -- Stationary point found.
 Normal termination of Gaussian 09 at Mon Jan 27 12:14:16 2020.

 ----------------------------------------------------------------------
 #N Geom=AllCheck Guess=TCheck SCRF=Check GenChk RB3LYP/6-31G(2df,p) Fr
 eq
 ----------------------------------------------------------------------

 Structure from the checkpoint file:  "/scratch/puck/g09_e3172109-72dd-4ca3-9303-afaef4810b69/Gau-45080.chk"
 -----
 titel
 -----
 Charge =  0 Multiplicity = 1

                         Standard orientation:
 ---------------------------------------------------------------------
 Center     Atomic      Atomic             Coordinates (Angstroms)
 Number     Number       Type             X           Y           Z
 ---------------------------------------------------------------------
      1          6           0       -1.356915   -1.124762   -0.009874
      2          8           0       -2.514557   -0.259645   -0.024615
      3          6           0       -1.698420    0.925336    0.061882
      4          6           0       -0.413295    0.080818    0.028764
      5          6           0        0.763177    0.315253    1.022403
      6          6           0        1.259345    1.392627    0.005455
      7          6           0        0.716409    0.342073   -0.992094
      8          8           0        1.585778   -0.787025   -0.808593
      9          6           0        1.668819   -0.860192    0.636533
     10          1           0       -1.340713   -1.772272    0.877899
     11          1           0       -1.292328   -1.751202   -0.907778
     12          1           0       -1.861043    1.599901   -0.789271
     13          1           0       -1.876928    1.481286    0.992607
     14          1           0        0.606666    0.517999    2.081623
     15          1           0        0.671057    2.311276    0.037513
     16          1           0        2.328510    1.613016   -0.036157
     17          1           0        0.552829    0.516054   -2.054784
     18          1           0        1.299184   -1.832126    0.984068
     19          1           0        2.708288   -0.737482    0.961533
 ---------------------------------------------------------------------

 SCF Done:  E(RB3LYP) =  -423.134772253     A.U. after    1 cycles

 The electronic state is 1-A.
 Alpha  occ. eigenvalues --  -19.13872 -19.13156 -10.23921 -10.23207 -10.23100
 Alpha  occ. eigenvalues --  -10.22672 -10.20451 -10.20133 -10.19271  -1.04628
 Alpha  occ. eigenvalues --   -1.03398  -0.84327  -0.73025  -0.70997  -0.69111
 Alpha  occ. eigenvalues --   -0.60939  -0.58301  -0.54623  -0.52243  -0.49447
 Alpha  occ. eigenvalues --   -0.48142  -0.46938  -0.42269  -0.40918  -0.40179
 Alpha  occ. eigenvalues --   -0.38764  -0.37880  -0.35864  -0.34659  -0.32181
 Alpha  occ. eigenvalues --   -0.30932  -0.29315  -0.25065  -0.24094
 Alpha virt. eigenvalues --    0.07221   0.09006   0.09441   0.11254   0.11831
 Alpha virt. eigenvalues --    0.12534   0.13807   0.14613   0.16229   0.16472
 Alpha virt. eigenvalues --    0.16712   0.17817   0.18998   0.20823   0.21715

 Mulliken charges:
               1
     1  C   -0.170427
     2  O   -0.276961
     3  C   -0.165505
     4  C    0.354318
     5  C   -0.154220
     6  C   -0.249767
     7  C    0.036258
     8  O   -0.282792
     9  C   -0.083710
    10  H    0.097887
    11  H    0.112408
    12  H    0.102218
    13  H    0.099564
    14  H    0.076288
    15  H    0.109838
    16  H    0.102759
    17  H    0.084062
    18  H    0.104039
    19  H    0.103743
 Sum of Mulliken charges =   0.00000

 Dipole moment (field-independent basis, Debye):
    X=              1.1360    Y=              1.2041    Z=              1.1346  Tot=              2.0069
 Quadrupole moment (field-independent basis, Debye-Ang):
   XX=            -61.3898   YY=            -51.2164   ZZ=            -51.8495
   XY=              0.1259   XZ=              2.5362   YZ=             -1.9906

  Exact polarizability:  78.381  -1.010  76.348   2.279  -2.297  67.275
 Approx polarizability: 107.672  -2.432 111.589   1.581  -1.771 104.418

                      1                      2                      3
                      A                      A                      A
 Frequencies --     79.7651               171.5763               206.7489
 Red. masses --      3.6796                 3.9305                 2.3825
 Frc consts  --      0.0138                 0.0682                 0.0600
 IR Inten    --      5.0387                 2.2538                 0.3676

                      4                      5                      6
                      A                      A                      A
 Frequencies --    295.3036               380.9640               403.6983
 Red. masses --      2.2912                 2.2302                 3.2042
 Frc consts  --      0.1177                 0.1907                 0.3077
 IR Inten    --      2.7056                 2.1140                 1.2453

                      7                      8                      9
                      A                      A                      A
 Frequencies --    518.7673               573.9475               677.6931
 Red. masses --      2.3548                 3.6488                 3.7283
 Frc consts  --      0.3734                 0.7082                 1.0089
 IR Inten    --      0.9884                 3.2123                 1.6584

                     10                     11                     12
                      A                      A                      A
 Frequencies --    806.4171               849.5007               856.2050
 Red. masses --      2.6375                 2.6825                 3.9665
 Frc consts  --      1.0105                 1.1405                 1.7132
 IR Inten    --      3.4881                 2.0388                13.8132

                     13                     14                     15
                      A                      A                      A
 Frequencies --    876.1958               919.3589               939.5335
 Red. masses --      2.1400                 3.6366                 1.7918
 Frc consts  --      0.9680                 1.8110                 0.9319
 IR Inten    --      3.6193                25.1054                 4.7905

                     16                     17                     18
                      A                      A                      A
 Frequencies --    950.6555               964.7181               980.9704
 Red. masses --      1.6439                 2.0000                 2.3535
 Frc consts  --      0.8753                 1.0967                 1.3343
 IR Inten    --     13.2913                 8.6537                16.8899

                     19                     20                     21
                      A                      A                      A
 Frequencies --    995.4647              1033.6654              1036.4902
 Red. masses --      2.3492                 6.9165                 2.6682
 Frc consts  --      1.3716                 4.3541                 1.6889
 IR Inten    --     24.2645                57.2929                23.5698

                     22                     23                     24
                      A                      A                      A
 Frequencies --   1070.7710              1089.5939              1125.3228
 Red. masses --      2.1641                 1.3055                 1.7877
 Frc consts  --      1.4619                 0.9132                 1.3338
 IR Inten    --     27.7629                 1.8892                 5.6606

                     25                     26                     27
                      A                      A                      A
 Frequencies --   1142.9541              1145.2846              1155.3954
 Red. masses --      1.5229                 2.0577                 1.0971
 Frc consts  --      1.1721                 1.5903                 0.8629
 IR Inten    --      3.1109                 0.8425                 0.2342

                     28                     29                     30
                      A                      A                      A
 Frequencies --   1186.0007              1199.2142              1205.8887
 Red. masses --      1.9304                 1.5447                 1.4581
 Frc consts  --      1.5998                 1.3088                 1.2493
 IR Inten    --      2.6640                 2.1383                 5.8572

                     31                     32                     33
                      A                      A                      A
 Frequencies --   1239.9190              1263.9624              1281.2233
 Red. masses --      1.7313                 1.6355                 1.5952
 Frc consts  --      1.5682                 1.5395                 1.5428
 IR Inten    --      7.3675                 6.3297                 3.9903

                     34                     35                     36
                      A                      A                      A
 Frequencies --   1304.0588              1315.8938              1368.0637
 Red. masses --      1.4285                 1.7652                 1.4144
 Frc consts  --      1.4313                 1.8009                 1.5597
 IR Inten    --      1.1152                 3.5669                 1.7066

                     37                     38                     39
                      A                      A                      A
 Frequencies --   1387.3948              1489.7418              1506.4207
 Red. masses --      1.8958                 1.1215                 1.0808
 Frc consts  --      2.1500                 1.4665                 1.4450
 IR Inten    --      4.5684                 3.7404                 1.0684

                     40                     41                     42
                      A                      A                      A
 Frequencies --   1526.1996              1532.0319              2992.6441
 Red. masses --      1.0982                 1.1084                 1.0537
 Frc consts  --      1.5071                 1.5328                 5.5600
 IR Inten    --      0.1598                 0.1107               104.1677

                     43                     44                     45
                      A                      A                      A
 Frequencies --   3004.5420              3024.5164              3036.0229
 Red. masses --      1.0608                 1.0559                 1.1102
 Frc consts  --      5.6419                 5.6910                 6.0290
 IR Inten    --      9.2760                65.9000                38.6494

                     46                     47                     48
                      A                      A                      A
 Frequencies --   3050.8392              3064.7643              3069.8475
 Red. masses --      1.1052                 1.1077                 1.0592
 Frc consts  --      6.0609                 6.1299                 5.8812
 IR Inten    --     35.9667                23.3883                39.1088

                     49                     50                     51
                      A                      A                      A
 Frequencies --   3122.9831              3134.5937              3136.2334
 Red. masses --      1.0898                 1.1034                 1.0986
 Frc consts  --      6.2626                 6.3875                 6.3666
 IR Inten    --     39.1517                22.6984                25.8908

 - Thermochemistry -
 -------------------
 Temperature   298.150 Kelvin.  Pressure   1.00000 Atm.
 Atom     1 has atomic number  6 and mass  12.00000

 Molecular mass:   126.06808 amu.
 Principal axes and moments of inertia in atomic units:
                           1         2         3
     Eigenvalues --   529.144351232.992141381.45499
           X            0.99989   0.00312   0.01475
           Y           -0.00235   0.99864  -0.05214
           Z           -0.01490   0.05210   0.99853
 This molecule is an asymmetric top.
 Rotational symmetry number  1.
 Warning -- assumption of classical behavior for rotation
           may cause significant error
 Rotational temperatures (Kelvin)      0.16369     0.07025     0.06270
 Rotational constants (GHZ):           3.41068     1.46371     1.30641
 Zero-point vibrational energy     422819.9 (Joules/Mol)
                                  101.05637 (Kcal/Mol)
 Warning -- explicit consideration of   8 degrees of freedom as
           vibrations may cause significant error
 Vibrational temperatures:    114.76   246.86   297.47   424.88   548.12
          (Kelvin)            580.83   746.39   825.78   975.05  1160.25
                             1222.24  1231.89  1260.65  1322.75  1351.78
                             1367.78  1388.01  1411.40  1432.25  1487.21
                             1491.28  1540.60  1567.68  1619.09  1644.45
                             1647.81  1662.35  1706.39  1725.40  1735.00
                             1783.96  1818.56  1843.39  1876.25  1893.28
                             1968.34  1996.15  2143.40  2167.40  2195.86
                             2204.25  4305.74  4322.86  4351.60  4368.15
                             4389.47  4409.51  4416.82  4493.27  4509.98
                             4512.33

 Zero-point correction=                           0.161044 (Hartree/Particle)
 Thermal correction to Energy=                    0.168249
 Thermal correction to Enthalpy=                  0.169193
 Thermal correction to Gibbs Free Energy=         0.129196
 Sum of electronic and zero-point Energies=           -422.973729
 Sum of electronic and thermal Energies=              -422.966523
 Sum of electronic and thermal Enthalpies=            -422.965579
 Sum of electronic and thermal Free Energies=         -423.005577

                     E (Thermal)             CV                S
                      KCal/Mol        Cal/Mol-Kelvin    Cal/Mol-Kelvin
 Total                  105.578             28.507             84.182
 Electronic               0.000              0.000              0.000
 Translational            0.889              2.981             40.409
 Rotational               0.889              2.981             28.290
 Vibrational            103.801             22.545             15.483
 Vibration     1          0.600              1.963              3.897
 Vibration     2          0.626              1.877              2.418
 Vibration     3          0.641              1.830              2.072
 Vibration     4          0.690              1.682              1.443
 Vibration     5          0.751              1.511              1.035
 Vibration     6          0.769              1.462              0.949
 Vibration     7          0.874              1.208              0.613
 Vibration     8          0.930              1.088              0.497

 Optimization completed.
    -- Stationary point found.
 Normal termination of Gaussian 09 at Mon Jan 27 13:01:05 2020.
