 Gaussian 09, Revision D.01,
 Gaussian 09:  ES64L-G09RevD.01 24-Apr-2013

 -----------------------------
 # b3lyp 6-31G(2df,p) opt Freq
 -----------------------------

 -----
 titel
 -----
 Symbolic Z-matrix:
 Charge =  0 Multiplicity = 1

 SCF Done:  E(RB3LYP) =  -423.250939654     A.U. after   14 cycles
 Optimization completed.
    -- Stationary point found.
 Normal termination of Gaussian 09 at Tue Jan 28 03:16:08 2020.

 ----------------------------------------------------------------------
 #N Geom=AllCheck Guess=TCheck SCRF=Check GenChk RB3LYP/6-31G(2df,p) Fr
 eq
 ----------------------------------------------------------------------

 Structure from the checkpoint file:  "/scratch/puck/g09_3f72b8f6-e385-4d18-90b9-7984ee2d8c18/Gau-7470.chk"
 -----
 titel
 -----
 Charge =  0 Multiplicity = 1

                         Standard orientation:
 ---------------------------------------------------------------------
 Center     Atomic      Atomic             Coordinates (Angstroms)
 Number     Number       Type             X           Y           Z
 ---------------------------------------------------------------------
      1          6           0        2.177620   -1.122873    0.065583
      2          6           0        1.459509    0.224747    0.104175
      3          6           0        0.531154    0.441305    1.347335
      4          6           0       -0.843720    0.804497    0.705687
      5          6           0       -0.407632    1.611547   -0.533536
      6          6           0        0.459135    0.456195   -1.051288
      7          8           0       -0.480724   -0.654346   -1.057006
      8          6           0       -1.310879   -0.476177    0.022508
      9          8           0       -2.177954   -1.246512    0.310928
     10          1           0        2.831033   -1.237526    0.936140
     11          1           0        1.462127   -1.949595    0.064541
     12          1           0        2.798333   -1.215024   -0.832065
     13          1           0        2.205743    1.026214    0.058866
     14          1           0        0.462723   -0.450316    1.976244
     15          1           0        0.880053    1.264370    1.976458
     16          1           0       -1.585973    1.224627    1.380152
     17          1           0       -1.228705    1.863967   -1.208907
     18          1           0        0.166702    2.510202   -0.295318
     19          1           0        0.886270    0.534503   -2.050271
 ---------------------------------------------------------------------

 SCF Done:  E(RB3LYP) =  -423.250939654     A.U. after    1 cycles

 The electronic state is 1-A.
 Alpha  occ. eigenvalues --  -19.17481 -19.12049 -10.29722 -10.25042 -10.20858
 Alpha  occ. eigenvalues --  -10.20326 -10.20254 -10.20011 -10.18103  -1.09550
 Alpha  occ. eigenvalues --   -1.01877  -0.85501  -0.77125  -0.73143  -0.67638
 Alpha  occ. eigenvalues --   -0.61289  -0.59907  -0.53488  -0.51279  -0.49843
 Alpha  occ. eigenvalues --   -0.47756  -0.43502  -0.42753  -0.41852  -0.39421
 Alpha  occ. eigenvalues --   -0.39267  -0.38469  -0.37333  -0.35520  -0.35295
 Alpha  occ. eigenvalues --   -0.33109  -0.32980  -0.28679  -0.25833
 Alpha virt. eigenvalues --    0.01732   0.07158   0.10896   0.11284   0.11939
 Alpha virt. eigenvalues --    0.13298   0.14801   0.15351   0.15691   0.16186
 Alpha virt. eigenvalues --    0.17554   0.17954   0.18427   0.18710   0.21669

 Mulliken charges:
               1
     1  C   -0.415374
     2  C    0.031254
     3  C   -0.249371
     4  C   -0.157717
     5  C   -0.247540
     6  C    0.094585
     7  O   -0.244773
     8  C    0.447072
     9  O   -0.351033
    10  H    0.116979
    11  H    0.141557
    12  H    0.115253
    13  H    0.079585
    14  H    0.122844
    15  H    0.108407
    16  H    0.093863
    17  H    0.118511
    18  H    0.108151
    19  H    0.087747
 Sum of Mulliken charges =   0.00000

 Dipole moment (field-independent basis, Debye):
    X=              2.9448    Y=              3.2186    Z=              0.2182  Tot=              4.3679
 Quadrupole moment (field-independent basis, Debye-Ang):
   XX=            -57.6584   YY=            -54.6195   ZZ=            -52.0071
   XY=             -4.9556   XZ=              0.1941   YZ=             -0.8057

  Exact polarizability:  80.448   1.566  71.793  -2.810  -1.262  68.969
 Approx polarizability: 115.322  10.581 107.412  -7.006  -1.914 105.080

                      1                      2                      3
                      A                      A                      A
 Frequencies --    112.0544               197.7476               240.6179
 Red. masses --      4.3763                 2.2663                 1.2173
 Frc consts  --      0.0324                 0.0522                 0.0415
 IR Inten    --      1.4214                 0.9646                 0.1507

                      4                      5                      6
                      A                      A                      A
 Frequencies --    270.6604               375.3866               433.4961
 Red. masses --      3.0257                 2.2480                 2.7737
 Frc consts  --      0.1306                 0.1866                 0.3071
 IR Inten    --      1.2898                 1.1959                 3.0337

                      7                      8                      9
                      A                      A                      A
 Frequencies --    468.7161               504.6996               570.8111
 Red. masses --      3.5929                 3.4650                 4.7820
 Frc consts  --      0.4651                 0.5200                 0.9180
 IR Inten    --      0.9116                 1.3853                 1.4709

                     10                     11                     12
                      A                      A                      A
 Frequencies --    732.0735               743.5181               772.9078
 Red. masses --      4.4720                 5.0578                 3.4584
 Frc consts  --      1.4121                 1.6474                 1.2173
 IR Inten    --      0.4389                 5.0239                 3.1756

                     13                     14                     15
                      A                      A                      A
 Frequencies --    833.8186               847.7308               878.5193
 Red. masses --      3.3762                 2.7911                 2.4215
 Frc consts  --      1.3830                 1.1818                 1.1011
 IR Inten    --      7.4026                 4.5082                 5.0428

                     16                     17                     18
                      A                      A                      A
 Frequencies --    918.5408               942.1929               961.5292
 Red. masses --      2.1474                 2.0378                 2.3432
 Frc consts  --      1.0675                 1.0659                 1.2764
 IR Inten    --     13.6850                33.7018                 3.1216

                     19                     20                     21
                      A                      A                      A
 Frequencies --    965.5655               980.8712              1018.0412
 Red. masses --      1.9147                 2.9819                 1.4951
 Frc consts  --      1.0518                 1.6903                 0.9130
 IR Inten    --      5.8541                40.1814                15.6389

                     22                     23                     24
                      A                      A                      A
 Frequencies --   1054.2003              1076.2331              1089.7301
 Red. masses --      2.0098                 1.6040                 1.4360
 Frc consts  --      1.3160                 1.0947                 1.0047
 IR Inten    --      8.2261                29.2059                29.2048

                     25                     26                     27
                      A                      A                      A
 Frequencies --   1145.5667              1172.3291              1201.0868
 Red. masses --      1.8726                 1.4538                 1.9262
 Frc consts  --      1.4479                 1.1772                 1.6372
 IR Inten    --     21.0519                10.4846                 1.4736

                     28                     29                     30
                      A                      A                      A
 Frequencies --   1206.3898              1248.0597              1284.6330
 Red. masses --      1.7825                 1.4503                 1.3475
 Frc consts  --      1.5284                 1.3310                 1.3102
 IR Inten    --     28.3827                 4.5805                 0.6279

                     31                     32                     33
                      A                      A                      A
 Frequencies --   1304.5910              1313.6432              1328.5116
 Red. masses --      1.6776                 1.5822                 1.4141
 Frc consts  --      1.6823                 1.6087                 1.4705
 IR Inten    --      4.4126                 5.3284                 5.1179

                     34                     35                     36
                      A                      A                      A
 Frequencies --   1364.1370              1373.8009              1414.4783
 Red. masses --      1.4596                 1.5695                 1.2401
 Frc consts  --      1.6003                 1.7452                 1.4618
 IR Inten    --     18.5792                 0.7941                 2.0504

                     37                     38                     39
                      A                      A                      A
 Frequencies --   1491.1162              1497.0520              1501.8176
 Red. masses --      1.0953                 1.0442                 1.0596
 Frc consts  --      1.4348                 1.3788                 1.4080
 IR Inten    --      4.1427                 3.9337                 5.4271

                     40                     41                     42
                      A                      A                      A
 Frequencies --   1505.6256              1893.8400              3035.5032
 Red. masses --      1.0931                12.5616                 1.0655
 Frc consts  --      1.4599                26.5449                 5.7843
 IR Inten    --      2.1410               383.1202                16.1099

                     43                     44                     45
                      A                      A                      A
 Frequencies --   3038.6020              3061.4477              3067.9840
 Red. masses --      1.0535                 1.0599                 1.0585
 Frc consts  --      5.7313                 5.8529                 5.8703
 IR Inten    --     23.5003                25.5756                20.1578

                     46                     47                     48
                      A                      A                      A
 Frequencies --   3100.4872              3107.0829              3121.3632
 Red. masses --      1.1018                 1.1061                 1.1018
 Frc consts  --      6.2401                 6.2915                 6.3247
 IR Inten    --     20.0992                15.8907                 5.9336

                     49                     50                     51
                      A                      A                      A
 Frequencies --   3123.8705              3131.4803              3151.9008
 Red. masses --      1.1073                 1.0905                 1.0901
 Frc consts  --      6.3665                 6.3007                 6.3804
 IR Inten    --     31.7021                33.8376                11.8142

 - Thermochemistry -
 -------------------
 Temperature   298.150 Kelvin.  Pressure   1.00000 Atm.
 Atom     1 has atomic number  6 and mass  12.00000

 Molecular mass:   126.06808 amu.
 Principal axes and moments of inertia in atomic units:
                           1         2         3
     Eigenvalues --   698.461901104.767361223.59544
           X            0.99641  -0.08433   0.00715
           Y            0.08450   0.99598  -0.02958
           Z           -0.00463   0.03007   0.99954
 This molecule is an asymmetric top.
 Rotational symmetry number  1.
 Warning -- assumption of classical behavior for rotation
           may cause significant error
 Rotational temperatures (Kelvin)      0.12401     0.07840     0.07079
 Rotational constants (GHZ):           2.58388     1.63359     1.47495
 Zero-point vibrational energy     425727.4 (Joules/Mol)
                                  101.75129 (Kcal/Mol)
 Warning -- explicit consideration of   9 degrees of freedom as
           vibrations may cause significant error
 Vibrational temperatures:    161.22   284.51   346.20   389.42   540.10
          (Kelvin)            623.70   674.38   726.15   821.27  1053.29
                             1069.76  1112.04  1199.68  1219.69  1263.99
                             1321.57  1355.60  1383.42  1389.23  1411.25
                             1464.73  1516.76  1548.46  1567.88  1648.21
                             1686.72  1728.09  1735.72  1795.68  1848.30
                             1877.01  1890.04  1911.43  1962.69  1976.59
                             2035.12  2145.38  2153.92  2160.78  2166.26
                             2724.81  4367.41  4371.87  4404.73  4414.14
                             4460.90  4470.39  4490.94  4494.55  4505.50
                             4534.88

 Zero-point correction=                           0.162151 (Hartree/Particle)
 Thermal correction to Energy=                    0.169465
 Thermal correction to Enthalpy=                  0.170409
 Thermal correction to Gibbs Free Energy=         0.130560
 Sum of electronic and zero-point Energies=           -423.088789
 Sum of electronic and thermal Energies=              -423.081475
 Sum of electronic and thermal Enthalpies=            -423.080530
 Sum of electronic and thermal Free Energies=         -423.120380

                     E (Thermal)             CV                S
                      KCal/Mol        Cal/Mol-Kelvin    Cal/Mol-Kelvin
 Total                  106.341             29.445             83.870
 Electronic               0.000              0.000              0.000
 Translational            0.889              2.981             40.409
 Rotational               0.889              2.981             28.337
 Vibrational            104.563             23.484             15.125
 Vibration     1          0.607              1.939              3.233
 Vibration     2          0.637              1.843              2.154
 Vibration     3          0.658              1.778              1.798
 Vibration     4          0.674              1.727              1.592
 Vibration     5          0.746              1.523              1.058
 Vibration     6          0.794              1.397              0.847
 Vibration     7          0.826              1.319              0.741
 Vibration     8          0.860              1.240              0.646
 Vibration     9          0.927              1.094              0.503

 Optimization completed.
    -- Stationary point found.
 Normal termination of Gaussian 09 at Tue Jan 28 04:02:12 2020.
