 Gaussian 09, Revision D.01,
 Gaussian 09:  ES64L-G09RevD.01 24-Apr-2013

 -----------------------------
 # b3lyp 6-31G(2df,p) opt Freq
 -----------------------------

 -----
 titel
 -----
 Symbolic Z-matrix:
 Charge =  0 Multiplicity = 1

 SCF Done:  E(RB3LYP) =  -423.143339511     A.U. after   14 cycles
 Optimization completed.
    -- Stationary point found.
 Normal termination of Gaussian 09 at Tue Jan 28 12:48:24 2020.

 ----------------------------------------------------------------------
 #N Geom=AllCheck Guess=TCheck SCRF=Check GenChk RB3LYP/6-31G(2df,p) Fr
 eq
 ----------------------------------------------------------------------

 Structure from the checkpoint file:  "/scratch/puck/g09_a5b4488c-50c1-4377-8fca-0a317e25a644/Gau-10491.chk"
 -----
 titel
 -----
 Charge =  0 Multiplicity = 1

                         Standard orientation:
 ---------------------------------------------------------------------
 Center     Atomic      Atomic             Coordinates (Angstroms)
 Number     Number       Type             X           Y           Z
 ---------------------------------------------------------------------
      1          6           0        2.973668   -0.272665   -0.401943
      2          8           0        1.930464    0.079037    0.484905
      3          6           0        0.762902   -0.650324    0.285134
      4          6           0       -0.218015   -0.245649   -0.880460
      5          6           0       -1.323293   -0.935109   -0.000968
      6          6           0       -2.790369   -0.607519   -0.219294
      7          6           0       -0.478963   -0.131969    1.056596
      8          6           0       -0.492698    0.991587   -0.003713
      9          8           0       -0.673834    2.163136   -0.099325
     10          1           0        2.707779   -0.063095   -1.447724
     11          1           0        3.843210    0.328605   -0.129399
     12          1           0        3.234509   -1.338421   -0.314992
     13          1           0        0.934005   -1.733395    0.359522
     14          1           0       -0.074847   -0.329618   -1.955804
     15          1           0       -1.161531   -2.014402    0.085074
     16          1           0       -2.961980    0.469512   -0.305748
     17          1           0       -3.158791   -1.081907   -1.134919
     18          1           0       -3.396770   -0.980138    0.612923
     19          1           0       -0.618004   -0.084633    2.134320
 ---------------------------------------------------------------------

 SCF Done:  E(RB3LYP) =  -423.143339511     A.U. after    1 cycles

 The electronic state is 1-A.
 Alpha  occ. eigenvalues --  -19.15342 -19.13249 -10.27278 -10.25678 -10.23273
 Alpha  occ. eigenvalues --  -10.21847 -10.20697 -10.20636 -10.18471  -1.05526
 Alpha  occ. eigenvalues --   -1.04281  -0.91944  -0.74816  -0.70418  -0.65163
 Alpha  occ. eigenvalues --   -0.63128  -0.60270  -0.51666  -0.50152  -0.49142
 Alpha  occ. eigenvalues --   -0.46561  -0.46035  -0.43273  -0.42569  -0.41389
 Alpha  occ. eigenvalues --   -0.39568  -0.38249  -0.36226  -0.34815  -0.33593
 Alpha  occ. eigenvalues --   -0.32556  -0.31388  -0.26529  -0.24013
 Alpha virt. eigenvalues --    0.01539   0.09125   0.10390   0.11553   0.12031
 Alpha virt. eigenvalues --    0.13329   0.13410   0.14061   0.15225   0.15729
 Alpha virt. eigenvalues --    0.16806   0.17230   0.17822   0.18678   0.19732

 Mulliken charges:
               1
     1  C   -0.246757
     2  O   -0.253212
     3  C    0.172289
     4  C   -0.237515
     5  C    0.020134
     6  C   -0.436256
     7  C   -0.229948
     8  C    0.449853
     9  O   -0.326280
    10  H    0.114789
    11  H    0.136194
    12  H    0.108254
    13  H    0.076457
    14  H    0.088857
    15  H    0.081034
    16  H    0.141271
    17  H    0.123026
    18  H    0.123752
    19  H    0.094056
 Sum of Mulliken charges =   0.00000

 Dipole moment (field-independent basis, Debye):
    X=              0.3639    Y=             -3.5660    Z=             -0.6507  Tot=              3.6432
 Quadrupole moment (field-independent basis, Debye-Ang):
   XX=            -48.5141   YY=            -59.5224   ZZ=            -52.0214
   XY=              1.2668   XZ=             -2.5142   YZ=              0.1694

  Exact polarizability:  89.312   0.551  74.396  -1.516  -0.466  66.980
 Approx polarizability: 110.093  -0.745 121.714  -1.048  -0.676 105.640

                      1                      2                      3
                      A                      A                      A
 Frequencies --     82.1844               142.5561               163.4050
 Red. masses --      3.1269                 4.0759                 2.1681
 Frc consts  --      0.0124                 0.0488                 0.0341
 IR Inten    --      2.5661                 0.3114                 1.4048

                      4                      5                      6
                      A                      A                      A
 Frequencies --    171.7684               213.2545               245.1248
 Red. masses --      1.5852                 1.0310                 2.7178
 Frc consts  --      0.0276                 0.0276                 0.0962
 IR Inten    --      0.5794                 0.0392                 1.6035

                      7                      8                      9
                      A                      A                      A
 Frequencies --    306.3358               441.5603               447.0241
 Red. masses --      2.7983                 3.2090                 4.6814
 Frc consts  --      0.1547                 0.3686                 0.5512
 IR Inten    --      0.5932                 0.5299                 2.3164

                     10                     11                     12
                      A                      A                      A
 Frequencies --    456.4669               524.3934               679.0777
 Red. masses --      3.9771                 4.0082                 4.3869
 Frc consts  --      0.4882                 0.6494                 1.1919
 IR Inten    --      1.9923                 5.3729                 0.9405

                     13                     14                     15
                      A                      A                      A
 Frequencies --    732.0639               774.7913               812.3158
 Red. masses --      3.9792                 2.7259                 2.9925
 Frc consts  --      1.2565                 0.9641                 1.1634
 IR Inten    --      3.4939                 5.6348                12.1147

                     16                     17                     18
                      A                      A                      A
 Frequencies --    833.1620               932.1201               952.5308
 Red. masses --      3.9951                 2.5922                 1.5465
 Frc consts  --      1.6339                 1.3270                 0.8267
 IR Inten    --      2.6384                11.3636                 3.6346

                     19                     20                     21
                      A                      A                      A
 Frequencies --   1005.9332              1021.2111              1042.4300
 Red. masses --      2.6046                 1.3275                 1.2715
 Frc consts  --      1.5528                 0.8157                 0.8141
 IR Inten    --     21.7181                 1.8527                 0.2079

                     22                     23                     24
                      A                      A                      A
 Frequencies --   1063.1593              1096.6433              1111.7534
 Red. masses --      1.9750                 1.8711                 3.8647
 Frc consts  --      1.3153                 1.3258                 2.8144
 IR Inten    --      8.1893                 8.5441                 2.2068

                     25                     26                     27
                      A                      A                      A
 Frequencies --   1125.2016              1155.0157              1173.0354
 Red. masses --      3.0374                 1.5597                 1.8572
 Frc consts  --      2.2658                 1.2259                 1.5057
 IR Inten    --     81.6276                 6.3852                35.7438

                     28                     29                     30
                      A                      A                      A
 Frequencies --   1186.1597              1221.1285              1225.8546
 Red. masses --      1.3656                 1.7704                 1.6466
 Frc consts  --      1.1320                 1.5554                 1.4578
 IR Inten    --      8.6903                17.2626                11.9191

                     31                     32                     33
                      A                      A                      A
 Frequencies --   1252.0791              1265.3728              1378.6724
 Red. masses --      2.6827                 1.8922                 1.2372
 Frc consts  --      2.4779                 1.7850                 1.3855
 IR Inten    --    135.0610                 2.8212                38.0739

                     34                     35                     36
                      A                      A                      A
 Frequencies --   1411.3719              1424.9359              1483.8259
 Red. masses --      1.2341                 1.3078                 1.1318
 Frc consts  --      1.4484                 1.5645                 1.4682
 IR Inten    --     15.8496                 0.2087                 3.6261

                     37                     38                     39
                      A                      A                      A
 Frequencies --   1489.2454              1495.3729              1501.0759
 Red. masses --      1.0709                 1.0456                 1.0467
 Frc consts  --      1.3994                 1.3776                 1.3895
 IR Inten    --      3.5330                 3.5530                 4.8116

                     40                     41                     42
                      A                      A                      A
 Frequencies --   1507.1734              1925.2463              2983.5003
 Red. masses --      1.0691                12.1707                 1.0380
 Frc consts  --      1.4308                26.5789                 5.4440
 IR Inten    --      6.1200               341.3674                50.6841

                     43                     44                     45
                      A                      A                      A
 Frequencies --   3011.7946              3035.4641              3037.2413
 Red. masses --      1.0832                 1.0361                 1.1022
 Frc consts  --      5.7890                 5.6245                 5.9903
 IR Inten    --     45.6333                24.0482                42.0023

                     46                     47                     48
                      A                      A                      A
 Frequencies --   3056.9122              3098.9138              3113.9362
 Red. masses --      1.0834                 1.1011                 1.1013
 Frc consts  --      5.9652                 6.2299                 6.2919
 IR Inten    --     26.3149                18.1027                19.7855

                     49                     50                     51
                      A                      A                      A
 Frequencies --   3126.8398              3143.1390              3151.1785
 Red. masses --      1.0971                 1.0926                 1.0947
 Frc consts  --      6.3201                 6.3597                 6.4043
 IR Inten    --     23.7637                30.2897                11.1120

 - Thermochemistry -
 -------------------
 Temperature   298.150 Kelvin.  Pressure   1.00000 Atm.
 Atom     1 has atomic number  6 and mass  12.00000

 Molecular mass:   126.06808 amu.
 Principal axes and moments of inertia in atomic units:
                           1         2         3
     Eigenvalues --   579.586921461.672241736.96557
           X            0.99986   0.01197  -0.01201
           Y           -0.01186   0.99989   0.00900
           Z            0.01211  -0.00886   0.99989
 This molecule is an asymmetric top.
 Rotational symmetry number  1.
 Warning -- assumption of classical behavior for rotation
           may cause significant error
 Rotational temperatures (Kelvin)      0.14944     0.05926     0.04987
 Rotational constants (GHZ):           3.11384     1.23471     1.03902
 Zero-point vibrational energy     414093.1 (Joules/Mol)
                                   98.97062 (Kcal/Mol)
 Warning -- explicit consideration of  11 degrees of freedom as
           vibrations may cause significant error
 Vibrational temperatures:    118.24   205.11   235.10   247.14   306.83
          (Kelvin)            352.68   440.75   635.31   643.17   656.75
                              754.48   977.04  1053.28  1114.75  1168.74
                             1198.73  1341.11  1370.48  1447.31  1469.29
                             1499.82  1529.65  1577.82  1599.56  1618.91
                             1661.81  1687.73  1706.62  1756.93  1763.73
                             1801.46  1820.59  1983.60  2030.65  2050.16
                             2134.89  2142.69  2151.51  2159.71  2168.48
                             2770.00  4292.59  4333.30  4367.35  4369.91
                             4398.21  4458.64  4480.25  4498.82  4522.27
                             4533.84

 Zero-point correction=                           0.157720 (Hartree/Particle)
 Thermal correction to Energy=                    0.166560
 Thermal correction to Enthalpy=                  0.167504
 Thermal correction to Gibbs Free Energy=         0.124156
 Sum of electronic and zero-point Energies=           -422.985620
 Sum of electronic and thermal Energies=              -422.976780
 Sum of electronic and thermal Enthalpies=            -422.975835
 Sum of electronic and thermal Free Energies=         -423.019183

                     E (Thermal)             CV                S
                      KCal/Mol        Cal/Mol-Kelvin    Cal/Mol-Kelvin
 Total                  104.518             32.878             91.234
 Electronic               0.000              0.000              0.000
 Translational            0.889              2.981             40.409
 Rotational               0.889              2.981             28.777
 Vibrational            102.740             26.917             22.048
 Vibration     1          0.600              1.961              3.838
 Vibration     2          0.616              1.911              2.769
 Vibration     3          0.623              1.887              2.510
 Vibration     4          0.626              1.877              2.416
 Vibration     5          0.644              1.821              2.016
 Vibration     6          0.660              1.771              1.765
 Vibration     7          0.697              1.662              1.382
 Vibration     8          0.801              1.380              0.822
 Vibration     9          0.806              1.367              0.805
 Vibration    10          0.815              1.347              0.776
 Vibration    11          0.879              1.196              0.600

 Optimization completed.
    -- Stationary point found.
 Normal termination of Gaussian 09 at Tue Jan 28 14:43:42 2020.
