 Gaussian 09, Revision D.01,
 Gaussian 09:  ES64L-G09RevD.01 24-Apr-2013

 -----------------------------
 # b3lyp 6-31G(2df,p) opt Freq
 -----------------------------

 -----
 titel
 -----
 Symbolic Z-matrix:
 Charge =  0 Multiplicity = 1

 SCF Done:  E(RB3LYP) =  -423.117808073     A.U. after   14 cycles
 Optimization completed.
    -- Stationary point found.
 Normal termination of Gaussian 09 at Tue Jan 28 14:09:55 2020.

 ----------------------------------------------------------------------
 #N Geom=AllCheck Guess=TCheck SCRF=Check GenChk RB3LYP/6-31G(2df,p) Fr
 eq
 ----------------------------------------------------------------------

 Structure from the checkpoint file:  "/scratch/puck/g09_cdeea9a2-8e85-435e-a999-8c9b81700638/Gau-144531.chk"
 -----
 titel
 -----
 Charge =  0 Multiplicity = 1

                         Standard orientation:
 ---------------------------------------------------------------------
 Center     Atomic      Atomic             Coordinates (Angstroms)
 Number     Number       Type             X           Y           Z
 ---------------------------------------------------------------------
      1          6           0        3.434197   -0.624230   -0.307488
      2          6           0        2.183617   -0.484376    0.540834
      3          8           0        1.049159   -0.470169   -0.331198
      4          6           0       -0.156466   -0.331093    0.357711
      5          6           0       -0.704130    1.064363    0.431770
      6          8           0        0.051816    2.095325   -0.107650
      7          6           0       -1.353017    0.033138   -0.508586
      8          6           0       -2.639919   -0.517880   -0.218249
      9          6           0       -3.721952   -0.968171    0.055225
     10          1           0        4.320784   -0.663135    0.332013
     11          1           0        3.393481   -1.540477   -0.902778
     12          1           0        3.539762    0.224112   -0.990158
     13          1           0        2.090897   -1.328496    1.240707
     14          1           0        2.208089    0.438667    1.137546
     15          1           0       -0.310746   -1.031959    1.176634
     16          1           0       -1.276064    1.380840    1.296705
     17          1           0        0.760314    1.674308   -0.614186
     18          1           0       -1.109699    0.181360   -1.557533
     19          1           0       -4.678598   -1.366968    0.284531
 ---------------------------------------------------------------------

 SCF Done:  E(RB3LYP) =  -423.117808073     A.U. after    1 cycles

 The electronic state is 1-A.
 Alpha  occ. eigenvalues --  -19.16535 -19.14812 -10.24673 -10.24476 -10.24277
 Alpha  occ. eigenvalues --  -10.21007 -10.18777 -10.18061 -10.16874  -1.06413
 Alpha  occ. eigenvalues --   -1.02881  -0.85774  -0.76536  -0.73618  -0.63731
 Alpha  occ. eigenvalues --   -0.63552  -0.60218  -0.55512  -0.53045  -0.50854
 Alpha  occ. eigenvalues --   -0.48109  -0.45688  -0.43853  -0.42246  -0.40754
 Alpha  occ. eigenvalues --   -0.39356  -0.38099  -0.36823  -0.35361  -0.31720
 Alpha  occ. eigenvalues --   -0.30204  -0.27773  -0.24671  -0.22944
 Alpha virt. eigenvalues --    0.04725   0.05178   0.06994   0.09597   0.11426
 Alpha virt. eigenvalues --    0.12942   0.13628   0.14013   0.14896   0.15500
 Alpha virt. eigenvalues --    0.16372   0.17720   0.18567   0.19407   0.20394

 Mulliken charges:
               1
     1  C   -0.388792
     2  C   -0.050671
     3  O   -0.268957
     4  C    0.055808
     5  C    0.105425
     6  O   -0.430136
     7  C   -0.330609
     8  C    0.310734
     9  C   -0.435280
    10  H    0.123363
    11  H    0.134308
    12  H    0.125972
    13  H    0.102479
    14  H    0.108520
    15  H    0.105936
    16  H    0.121966
    17  H    0.291725
    18  H    0.124258
    19  H    0.193953
 Sum of Mulliken charges =   0.00000

 Dipole moment (field-independent basis, Debye):
    X=              1.7455    Y=             -1.0981    Z=              0.9510  Tot=              2.2709
 Quadrupole moment (field-independent basis, Debye-Ang):
   XX=            -47.1929   YY=            -58.0204   ZZ=            -51.8560
   XY=              1.3259   XZ=             -1.1534   YZ=             -1.6987

  Exact polarizability: 113.972  10.559  68.283  -2.924  -1.806  60.784
 Approx polarizability: 148.338  20.888 103.718  -7.544  -3.581  93.234

                      1                      2                      3
                      A                      A                      A
 Frequencies --     56.8980                76.5104               110.9621
 Red. masses --      3.1397                 2.0064                 3.5814
 Frc consts  --      0.0060                 0.0069                 0.0260
 IR Inten    --      0.2116                 3.6802                 0.2753

                      4                      5                      6
                      A                      A                      A
 Frequencies --    143.6318               198.5456               226.2870
 Red. masses --      4.5242                 3.5717                 1.6785
 Frc consts  --      0.0550                 0.0830                 0.0506
 IR Inten    --      0.9721                 0.1816                 2.8459

                      7                      8                      9
                      A                      A                      A
 Frequencies --    262.4950               347.4600               376.2540
 Red. masses --      2.1343                 3.4679                 3.8437
 Frc consts  --      0.0866                 0.2467                 0.3206
 IR Inten    --     12.2130                 5.5978                 0.3212

                     10                     11                     12
                      A                      A                      A
 Frequencies --    411.6356               440.6865               470.0688
 Red. masses --      3.4884                 1.1957                 5.5893
 Frc consts  --      0.3483                 0.1368                 0.7277
 IR Inten    --      0.9685                71.0286                 2.8872

                     13                     14                     15
                      A                      A                      A
 Frequencies --    506.1175               577.4163               650.6799
 Red. masses --      3.9943                 1.1919                 1.2356
 Frc consts  --      0.6028                 0.2341                 0.3082
 IR Inten    --     17.4572                49.4657                41.4754

                     16                     17                     18
                      A                      A                      A
 Frequencies --    694.7188               814.1902               822.6200
 Red. masses --      4.1923                 2.1624                 1.2795
 Frc consts  --      1.1921                 0.8446                 0.5101
 IR Inten    --      9.3974                39.5040                 9.4061

                     19                     20                     21
                      A                      A                      A
 Frequencies --    871.9734               894.3614               957.4653
 Red. masses --      5.3216                 2.1526                 2.5343
 Frc consts  --      2.3839                 1.0145                 1.3689
 IR Inten    --      6.6993                38.0604                10.5140

                     22                     23                     24
                      A                      A                      A
 Frequencies --    998.1697              1054.4169              1080.9480
 Red. masses --      1.4740                 2.6001                 1.6497
 Frc consts  --      0.8653                 1.7032                 1.1357
 IR Inten    --      6.8398                36.2989                34.6176

                     25                     26                     27
                      A                      A                      A
 Frequencies --   1102.2979              1116.8864              1137.4818
 Red. masses --      1.5933                 2.7588                 2.6709
 Frc consts  --      1.1407                 2.0277                 2.0361
 IR Inten    --     36.7009                23.6307                90.9144

                     28                     29                     30
                      A                      A                      A
 Frequencies --   1166.5655              1186.8666              1214.7112
 Red. masses --      2.7342                 1.5506                 1.7513
 Frc consts  --      2.1923                 1.2869                 1.5225
 IR Inten    --     42.7372                 5.7168                80.8535

                     31                     32                     33
                      A                      A                      A
 Frequencies --   1273.7234              1297.5334              1332.8122
 Red. masses --      1.3473                 1.1052                 1.4399
 Frc consts  --      1.2878                 1.0963                 1.5070
 IR Inten    --      6.7665                 1.4565                19.2044

                     34                     35                     36
                      A                      A                      A
 Frequencies --   1374.4470              1405.5320              1433.1312
 Red. masses --      1.4633                 1.2516                 1.3516
 Frc consts  --      1.6287                 1.4568                 1.6356
 IR Inten    --     60.0305                 7.9366                51.6462

                     37                     38                     39
                      A                      A                      A
 Frequencies --   1465.2806              1483.4004              1498.5974
 Red. masses --      2.0228                 1.0403                 1.0490
 Frc consts  --      2.5589                 1.3487                 1.3880
 IR Inten    --     56.5718                 4.0621                 2.2957

                     40                     41                     42
                      A                      A                      A
 Frequencies --   1526.7984              2234.3062              2988.9393
 Red. masses --      1.0874                 6.0459                 1.0568
 Frc consts  --      1.4935                17.7825                 5.5623
 IR Inten    --      3.2091                24.8649                40.5479

                     43                     44                     45
                      A                      A                      A
 Frequencies --   3025.1975              3046.1154              3118.1838
 Red. masses --      1.1054                 1.0349                 1.0895
 Frc consts  --      5.9602                 5.6578                 6.2412
 IR Inten    --     29.9884                15.4090                10.9556

                     46                     47                     48
                      A                      A                      A
 Frequencies --   3119.1695              3125.3246              3148.3061
 Red. masses --      1.1017                 1.1023                 1.0863
 Frc consts  --      6.3151                 6.3435                 6.3439
 IR Inten    --     28.1867                20.3576                 4.6373

                     49                     50                     51
                      A                      A                      A
 Frequencies --   3181.8834              3505.9438              3746.7636
 Red. masses --      1.0909                 1.1595                 1.0647
 Frc consts  --      6.5071                 8.3972                 8.8060
 IR Inten    --     10.2715                88.1073                52.1505

 - Thermochemistry -
 -------------------
 Temperature   298.150 Kelvin.  Pressure   1.00000 Atm.
 Atom     1 has atomic number  6 and mass  12.00000

 Molecular mass:   126.06808 amu.
 Principal axes and moments of inertia in atomic units:
                           1         2         3
     Eigenvalues --   528.516522130.735562482.11774
           X            0.99997  -0.00720  -0.00359
           Y            0.00715   0.99988  -0.01346
           Z            0.00368   0.01344   0.99990
 This molecule is an asymmetric top.
 Rotational symmetry number  1.
 Warning -- assumption of classical behavior for rotation
           may cause significant error
 Rotational temperatures (Kelvin)      0.16388     0.04065     0.03490
 Rotational constants (GHZ):           3.41473     0.84700     0.72710
 Zero-point vibrational energy     408529.0 (Joules/Mol)
                                   97.64077 (Kcal/Mol)
 Warning -- explicit consideration of  14 degrees of freedom as
           vibrations may cause significant error
 Vibrational temperatures:     81.86   110.08   159.65   206.65   285.66
          (Kelvin)            325.58   377.67   499.92   541.34   592.25
                              634.05   676.32   728.19   830.77   936.18
                              999.54  1171.44  1183.57  1254.57  1286.78
                             1377.58  1436.14  1517.07  1555.24  1585.96
                             1606.95  1636.58  1678.43  1707.63  1747.70
                             1832.60  1866.86  1917.62  1977.52  2022.24
                             2061.95  2108.21  2134.28  2156.14  2196.72
                             3214.66  4300.41  4352.58  4382.68  4486.37
                             4487.78  4496.64  4529.70  4578.01  5044.26
                             5390.75

 Zero-point correction=                           0.155600 (Hartree/Particle)
 Thermal correction to Energy=                    0.165708
 Thermal correction to Enthalpy=                  0.166653
 Thermal correction to Gibbs Free Energy=         0.120032
 Sum of electronic and zero-point Energies=           -422.962208
 Sum of electronic and thermal Energies=              -422.952100
 Sum of electronic and thermal Enthalpies=            -422.951156
 Sum of electronic and thermal Free Energies=         -422.997776

                     E (Thermal)             CV                S
                      KCal/Mol        Cal/Mol-Kelvin    Cal/Mol-Kelvin
 Total                  103.984             36.675             98.121
 Electronic               0.000              0.000              0.000
 Translational            0.889              2.981             40.409
 Rotational               0.889              2.981             29.415
 Vibrational            102.206             30.713             28.298
 Vibration     1          0.596              1.975              4.562
 Vibration     2          0.599              1.965              3.978
 Vibration     3          0.607              1.940              3.252
 Vibration     4          0.616              1.910              2.755
 Vibration     5          0.637              1.842              2.147
 Vibration     6          0.650              1.801              1.908
 Vibration     7          0.670              1.742              1.645
 Vibration     8          0.725              1.580              1.178
 Vibration     9          0.747              1.521              1.054
 Vibration    10          0.776              1.445              0.921
 Vibration    11          0.801              1.381              0.824
 Vibration    12          0.827              1.316              0.737
 Vibration    13          0.861              1.236              0.643
 Vibration    14          0.934              1.080              0.490

 Optimization completed.
    -- Stationary point found.
 Normal termination of Gaussian 09 at Tue Jan 28 14:50:06 2020.
