 Gaussian 09, Revision D.01,
 Gaussian 09:  ES64L-G09RevD.01 24-Apr-2013

 -----------------------------
 # b3lyp 6-31G(2df,p) opt Freq
 -----------------------------

 -----
 titel
 -----
 Symbolic Z-matrix:
 Charge =  0 Multiplicity = 1

 SCF Done:  E(RB3LYP) =  -423.232087165     A.U. after   14 cycles
 Optimization completed.
    -- Stationary point found.
 Normal termination of Gaussian 09 at Tue Jan 28 00:38:45 2020.

 ----------------------------------------------------------------------
 #N Geom=AllCheck Guess=TCheck SCRF=Check GenChk RB3LYP/6-31G(2df,p) Fr
 eq
 ----------------------------------------------------------------------

 Structure from the checkpoint file:  "/scratch/puck/g09_a8534405-8da1-4eb9-b2d7-0ec146ada93c/Gau-71494.chk"
 -----
 titel
 -----
 Charge =  0 Multiplicity = 1

                         Standard orientation:
 ---------------------------------------------------------------------
 Center     Atomic      Atomic             Coordinates (Angstroms)
 Number     Number       Type             X           Y           Z
 ---------------------------------------------------------------------
      1          6           0       -2.536186   -0.375955    0.425395
      2          6           0       -1.265236   -0.440995   -0.411248
      3          8           0       -0.812700    0.905318   -0.692955
      4          6           0        0.298501    1.243082    0.020363
      5          8           0        0.774005    2.341164   -0.024277
      6          6           0        0.802984    0.037543    0.801446
      7          6           0        2.051231   -0.623789    0.152320
      8          6           0        1.103574   -1.601594   -0.600974
      9          6           0       -0.083580   -1.122959    0.289505
     10          1           0       -3.284517    0.253712   -0.062543
     11          1           0       -2.955269   -1.378948    0.555059
     12          1           0       -2.329891    0.042132    1.416406
     13          1           0       -1.476515   -0.899903   -1.383255
     14          1           0        0.856801    0.277774    1.864386
     15          1           0        2.687020    0.031102   -0.446773
     16          1           0        2.671374   -1.129087    0.895803
     17          1           0        0.967894   -1.343346   -1.655188
     18          1           0        1.352974   -2.662316   -0.537010
     19          1           0       -0.408037   -1.854978    1.030124
 ---------------------------------------------------------------------

 SCF Done:  E(RB3LYP) =  -423.232087165     A.U. after    1 cycles

 The electronic state is 1-A.
 Alpha  occ. eigenvalues --  -19.17475 -19.11612 -10.29699 -10.25109 -10.20360
 Alpha  occ. eigenvalues --  -10.20327 -10.19676 -10.19535 -10.18906  -1.09223
 Alpha  occ. eigenvalues --   -1.01407  -0.86263  -0.77834  -0.69965  -0.68276
 Alpha  occ. eigenvalues --   -0.63536  -0.57449  -0.55135  -0.51093  -0.49803
 Alpha  occ. eigenvalues --   -0.45377  -0.44872  -0.43581  -0.41671  -0.41159
 Alpha  occ. eigenvalues --   -0.40041  -0.38020  -0.36293  -0.34720  -0.34161
 Alpha  occ. eigenvalues --   -0.31991  -0.31224  -0.28833  -0.25773
 Alpha virt. eigenvalues --    0.01279   0.07404   0.09629   0.09773   0.10606
 Alpha virt. eigenvalues --    0.12479   0.13554   0.14862   0.15473   0.16482
 Alpha virt. eigenvalues --    0.17446   0.18220   0.19593   0.20807   0.21397

 Mulliken charges:
               1
     1  C   -0.401986
     2  C    0.105540
     3  O   -0.232518
     4  C    0.428438
     5  O   -0.347621
     6  C   -0.172897
     7  C   -0.224106
     8  C   -0.249572
     9  C   -0.021895
    10  H    0.136016
    11  H    0.120558
    12  H    0.124316
    13  H    0.095157
    14  H    0.103036
    15  H    0.124384
    16  H    0.111165
    17  H    0.114803
    18  H    0.107153
    19  H    0.080028
 Sum of Mulliken charges =   0.00000

 Dipole moment (field-independent basis, Debye):
    X=             -0.7801    Y=             -4.2186    Z=              0.9313  Tot=              4.3900
 Quadrupole moment (field-independent basis, Debye-Ang):
   XX=            -50.9269   YY=            -61.1058   ZZ=            -51.6556
   XY=             -1.8154   XZ=             -0.1700   YZ=              1.1998

  Exact polarizability:  82.981   3.021  77.616   1.345   1.280  63.280
 Approx polarizability: 109.670   9.051 116.954   4.448   1.126  98.041

                      1                      2                      3
                      A                      A                      A
 Frequencies --     92.9385               103.4808               225.3328
 Red. masses --      2.6027                 4.7461                 2.2526
 Frc consts  --      0.0132                 0.0299                 0.0674
 IR Inten    --      1.3796                 0.1058                 0.8639

                      4                      5                      6
                      A                      A                      A
 Frequencies --    233.0750               256.4813               331.6788
 Red. masses --      1.9847                 1.3063                 3.3253
 Frc consts  --      0.0635                 0.0506                 0.2155
 IR Inten    --      1.9879                 0.2827                 1.4973

                      7                      8                      9
                      A                      A                      A
 Frequencies --    447.6636               504.5764               605.0788
 Red. masses --      4.5106                 3.7480                 4.7261
 Frc consts  --      0.5326                 0.5622                 1.0195
 IR Inten    --      2.5095                 2.6685                 6.0481

                     10                     11                     12
                      A                      A                      A
 Frequencies --    687.5987               706.3598               712.3098
 Red. masses --      3.5927                 3.2890                 2.2420
 Frc consts  --      1.0008                 0.9669                 0.6702
 IR Inten    --      4.9486                 0.2280                 1.0625

                     13                     14                     15
                      A                      A                      A
 Frequencies --    779.8048               808.8505               869.1536
 Red. masses --      1.8974                 2.2347                 2.8059
 Frc consts  --      0.6798                 0.8614                 1.2489
 IR Inten    --      0.4744                 1.3455                 1.5080

                     16                     17                     18
                      A                      A                      A
 Frequencies --    904.9598               949.7867               961.8142
 Red. masses --      1.7127                 2.8554                 2.2988
 Frc consts  --      0.8264                 1.5176                 1.2529
 IR Inten    --      2.8575                23.8090                 3.3467

                     19                     20                     21
                      A                      A                      A
 Frequencies --    979.0320              1017.4381              1036.5549
 Red. masses --      2.2440                 1.5960                 2.9455
 Frc consts  --      1.2673                 0.9734                 1.8646
 IR Inten    --     15.6642                10.9634                31.2283

                     22                     23                     24
                      A                      A                      A
 Frequencies --   1045.6859              1086.8343              1133.9414
 Red. masses --      2.1433                 1.7268                 2.0924
 Frc consts  --      1.3808                 1.2017                 1.5852
 IR Inten    --     28.8380                16.6838                40.1264

                     25                     26                     27
                      A                      A                      A
 Frequencies --   1159.2318              1170.0187              1192.9484
 Red. masses --      2.2644                 2.4169                 1.5231
 Frc consts  --      1.7929                 1.9493                 1.2771
 IR Inten    --     26.2224               131.0446                 1.4975

                     28                     29                     30
                      A                      A                      A
 Frequencies --   1228.9943              1240.8646              1262.7886
 Red. masses --      1.5066                 1.3420                 1.5034
 Frc consts  --      1.3408                 1.2174                 1.4125
 IR Inten    --     15.0524                 1.5766                 3.1663

                     31                     32                     33
                      A                      A                      A
 Frequencies --   1273.5493              1305.2561              1320.6170
 Red. masses --      1.5170                 1.3750                 1.4858
 Frc consts  --      1.4497                 1.3802                 1.5268
 IR Inten    --      3.2701                 2.0935                 5.7380

                     34                     35                     36
                      A                      A                      A
 Frequencies --   1359.4000              1388.8983              1408.8734
 Red. masses --      1.7005                 1.3647                 1.2836
 Frc consts  --      1.8515                 1.5511                 1.5011
 IR Inten    --     42.1334                 4.5333                 9.0477

                     37                     38                     39
                      A                      A                      A
 Frequencies --   1481.8537              1487.0893              1495.6451
 Red. masses --      1.0813                 1.0563                 1.0503
 Frc consts  --      1.3989                 1.3764                 1.3842
 IR Inten    --      1.3153                 2.5193                 3.1166

                     40                     41                     42
                      A                      A                      A
 Frequencies --   1499.2931              1872.1024              3037.5048
 Red. masses --      1.1110                12.8543                 1.0360
 Frc consts  --      1.4714                26.5436                 5.6318
 IR Inten    --      1.5201               358.4276                11.5379

                     43                     44                     45
                      A                      A                      A
 Frequencies --   3049.1787              3061.8323              3071.7334
 Red. masses --      1.0852                 1.0601                 1.0595
 Frc consts  --      5.9444                 5.8556                 5.8900
 IR Inten    --     17.6013                32.7984                31.7438

                     46                     47                     48
                      A                      A                      A
 Frequencies --   3095.4984              3105.0609              3109.7474
 Red. masses --      1.0884                 1.0898                 1.1015
 Frc consts  --      6.1448                 6.1908                 6.2760
 IR Inten    --      9.7472                12.4729                27.7322

                     49                     50                     51
                      A                      A                      A
 Frequencies --   3114.6592              3124.5701              3130.8724
 Red. masses --      1.1041                 1.1016                 1.1069
 Frc consts  --      6.3109                 6.3368                 6.3930
 IR Inten    --      9.4571                13.8832                36.9606

 - Thermochemistry -
 -------------------
 Temperature   298.150 Kelvin.  Pressure   1.00000 Atm.
 Atom     1 has atomic number  6 and mass  12.00000

 Molecular mass:   126.06808 amu.
 Principal axes and moments of inertia in atomic units:
                           1         2         3
     Eigenvalues --   813.91513 979.196761521.38669
           X            0.99879  -0.04726  -0.01352
           Y            0.04741   0.99882   0.01091
           Z            0.01299  -0.01154   0.99985
 This molecule is an asymmetric top.
 Rotational symmetry number  1.
 Warning -- assumption of classical behavior for rotation
           may cause significant error
 Rotational temperatures (Kelvin)      0.10642     0.08845     0.05693
 Rotational constants (GHZ):           2.21736     1.84308     1.18625
 Zero-point vibrational energy     421854.2 (Joules/Mol)
                                  100.82557 (Kcal/Mol)
 Warning -- explicit consideration of   9 degrees of freedom as
           vibrations may cause significant error
 Vibrational temperatures:    133.72   148.89   324.20   335.34   369.02
          (Kelvin)            477.21   644.09   725.97   870.57   989.30
                             1016.29  1024.85  1121.96  1163.75  1250.52
                             1302.03  1366.53  1383.83  1408.61  1463.86
                             1491.37  1504.51  1563.71  1631.49  1667.87
                             1683.39  1716.38  1768.25  1785.33  1816.87
                             1832.35  1877.97  1900.07  1955.87  1998.31
                             2027.05  2132.05  2139.59  2151.90  2157.15
                             2693.53  4370.29  4387.08  4405.29  4419.53
                             4453.73  4467.48  4474.23  4481.29  4495.55
                             4504.62

 Zero-point correction=                           0.160676 (Hartree/Particle)
 Thermal correction to Energy=                    0.168580
 Thermal correction to Enthalpy=                  0.169524
 Thermal correction to Gibbs Free Energy=         0.128029
 Sum of electronic and zero-point Energies=           -423.071411
 Sum of electronic and thermal Energies=              -423.063507
 Sum of electronic and thermal Enthalpies=            -423.062563
 Sum of electronic and thermal Free Energies=         -423.104058

                     E (Thermal)             CV                S
                      KCal/Mol        Cal/Mol-Kelvin    Cal/Mol-Kelvin
 Total                  105.785             30.419             87.333
 Electronic               0.000              0.000              0.000
 Translational            0.889              2.981             40.409
 Rotational               0.889              2.981             28.585
 Vibrational            104.008             24.457             18.339
 Vibration     1          0.602              1.954              3.597
 Vibration     2          0.605              1.946              3.388
 Vibration     3          0.650              1.802              1.916
 Vibration     4          0.654              1.790              1.855
 Vibration     5          0.666              1.752              1.686
 Vibration     6          0.714              1.612              1.252
 Vibration     7          0.807              1.366              0.803
 Vibration     8          0.860              1.240              0.647
 Vibration     9          0.964              1.021              0.441

 Optimization completed.
    -- Stationary point found.
 Normal termination of Gaussian 09 at Tue Jan 28 01:22:16 2020.
