 Gaussian 09, Revision D.01,
 Gaussian 09:  ES64L-G09RevD.01 24-Apr-2013

 -----------------------------
 # b3lyp 6-31G(2df,p) opt Freq
 -----------------------------

 -----
 titel
 -----
 Symbolic Z-matrix:
 Charge =  0 Multiplicity = 1

 SCF Done:  E(RB3LYP) =  -423.222047647     A.U. after   14 cycles
 Optimization completed.
    -- Stationary point found.
 Normal termination of Gaussian 09 at Mon Jan 27 17:40:51 2020.

 ----------------------------------------------------------------------
 #N Geom=AllCheck Guess=TCheck SCRF=Check GenChk RB3LYP/6-31G(2df,p) Fr
 eq
 ----------------------------------------------------------------------

 Structure from the checkpoint file:  "/scratch/puck/g09_7acbd694-2eca-41f6-b680-07cfde76ca86/Gau-170297.chk"
 -----
 titel
 -----
 Charge =  0 Multiplicity = 1

                         Standard orientation:
 ---------------------------------------------------------------------
 Center     Atomic      Atomic             Coordinates (Angstroms)
 Number     Number       Type             X           Y           Z
 ---------------------------------------------------------------------
      1          6           0       -2.620134    0.252244   -0.668070
      2          6           0       -1.262734    0.142361   -0.005117
      3          6           0       -1.110868   -0.806607    1.176835
      4          6           0       -0.489618   -1.134670   -0.154402
      5          8           0        0.912383   -1.140919   -0.343282
      6          6           0        1.686049   -0.047733   -0.112987
      7          8           0        2.860610   -0.107196   -0.353048
      8          6           0        1.005115    1.177605    0.473312
      9          6           0       -0.423925    1.407745   -0.034764
     10          1           0       -3.145117   -0.707879   -0.666673
     11          1           0       -3.253493    0.976792   -0.143051
     12          1           0       -2.526067    0.582409   -1.708937
     13          1           0       -0.450488   -0.535466    1.992341
     14          1           0       -1.976600   -1.384056    1.483414
     15          1           0       -0.909181   -1.948138   -0.735124
     16          1           0        1.007991    1.055426    1.563067
     17          1           0        1.651221    2.030255    0.257952
     18          1           0       -0.901884    2.202588    0.550041
     19          1           0       -0.383634    1.767318   -1.071234
 ---------------------------------------------------------------------

 SCF Done:  E(RB3LYP) =  -423.222047647     A.U. after    1 cycles

 The electronic state is 1-A.
 Alpha  occ. eigenvalues --  -19.18141 -19.11472 -10.30318 -10.25241 -10.21423
 Alpha  occ. eigenvalues --  -10.20427 -10.20405 -10.19733 -10.19200  -1.09591
 Alpha  occ. eigenvalues --   -1.01416  -0.88106  -0.79238  -0.73002  -0.67325
 Alpha  occ. eigenvalues --   -0.65482  -0.59007  -0.53032  -0.50791  -0.48790
 Alpha  occ. eigenvalues --   -0.46893  -0.44980  -0.43929  -0.43523  -0.41300
 Alpha  occ. eigenvalues --   -0.40262  -0.39027  -0.37612  -0.36263  -0.35021
 Alpha  occ. eigenvalues --   -0.33844  -0.28601  -0.26780  -0.25541
 Alpha virt. eigenvalues --    0.01188   0.07714   0.09048   0.10312   0.11167
 Alpha virt. eigenvalues --    0.11540   0.14504   0.14841   0.15834   0.17206
 Alpha virt. eigenvalues --    0.17786   0.18256   0.18803   0.21186   0.22437

 Mulliken charges:
               1
     1  C   -0.464079
     2  C    0.286350
     3  C   -0.364129
     4  C    0.099256
     5  O   -0.224973
     6  C    0.412464
     7  O   -0.322781
     8  C   -0.369571
     9  C   -0.268715
    10  H    0.118210
    11  H    0.122338
    12  H    0.123042
    13  H    0.121511
    14  H    0.118736
    15  H    0.112487
    16  H    0.138275
    17  H    0.138269
    18  H    0.109267
    19  H    0.114042
 Sum of Mulliken charges =   0.00000

 Dipole moment (field-independent basis, Debye):
    X=             -4.1485    Y=              1.3043    Z=              0.9760  Tot=              4.4569
 Quadrupole moment (field-independent basis, Debye-Ang):
   XX=            -63.2294   YY=            -51.8405   ZZ=            -51.6822
   XY=              3.6585   XZ=              2.8298   YZ=             -0.1868

  Exact polarizability:  90.303   3.055  71.686  -0.829  -0.850  64.430
 Approx polarizability: 125.248   3.417 105.674  -5.098  -0.312 100.011

                      1                      2                      3
                      A                      A                      A
 Frequencies --     84.9185               200.0514               208.0480
 Red. masses --      5.5061                 1.8633                 1.3352
 Frc consts  --      0.0234                 0.0439                 0.0340
 IR Inten    --      1.6363                 2.4637                 0.1322

                      4                      5                      6
                      A                      A                      A
 Frequencies --    239.3464               309.4280               351.7699
 Red. masses --      2.3993                 2.4862                 2.5357
 Frc consts  --      0.0810                 0.1403                 0.1849
 IR Inten    --      1.1638                 0.7191                 1.1015

                      7                      8                      9
                      A                      A                      A
 Frequencies --    370.0274               460.2758               482.8576
 Red. masses --      4.2781                 3.7645                 2.8697
 Frc consts  --      0.3451                 0.4699                 0.3942
 IR Inten    --      0.9519                 1.9482                 2.3353

                     10                     11                     12
                      A                      A                      A
 Frequencies --    522.1651               599.7425               672.7525
 Red. masses --      2.5730                 3.2419                 3.2187
 Frc consts  --      0.4133                 0.6870                 0.8583
 IR Inten    --      2.5708                 4.5396                 1.3655

                     13                     14                     15
                      A                      A                      A
 Frequencies --    717.7413               741.4758               848.4350
 Red. masses --      2.9318                 3.2958                 2.4797
 Frc consts  --      0.8899                 1.0676                 1.0517
 IR Inten    --      3.6328                 9.4440                 9.1229

                     16                     17                     18
                      A                      A                      A
 Frequencies --    892.2168               912.2431               914.7910
 Red. masses --      1.9043                 1.6993                 2.1010
 Frc consts  --      0.8932                 0.8332                 1.0359
 IR Inten    --      9.4856                 6.7115                12.1336

                     19                     20                     21
                      A                      A                      A
 Frequencies --    955.8488              1025.5564              1037.7169
 Red. masses --      1.7257                 1.7956                 1.4628
 Frc consts  --      0.9289                 1.1127                 0.9281
 IR Inten    --      5.9568                 3.1015                23.6791

                     22                     23                     24
                      A                      A                      A
 Frequencies --   1045.5843              1068.7917              1116.7742
 Red. masses --      1.4721                 2.2751                 1.7845
 Frc consts  --      0.9482                 1.5312                 1.3113
 IR Inten    --      3.8211                 3.1141                 2.5150

                     25                     26                     27
                      A                      A                      A
 Frequencies --   1121.2619              1142.8968              1198.9482
 Red. masses --      1.7358                 2.3109                 3.2837
 Frc consts  --      1.2858                 1.7785                 2.7811
 IR Inten    --     10.6260                27.7806               203.0271

                     28                     29                     30
                      A                      A                      A
 Frequencies --   1220.4824              1247.1769              1279.2186
 Red. masses --      1.4848                 1.8001                 1.7176
 Frc consts  --      1.3031                 1.6497                 1.6560
 IR Inten    --     24.7850                13.7210                21.4167

                     31                     32                     33
                      A                      A                      A
 Frequencies --   1342.0260              1355.3911              1386.9875
 Red. masses --      1.6327                 1.7602                 1.8214
 Frc consts  --      1.7325                 1.9052                 2.0644
 IR Inten    --     15.2019                 8.6339                35.7867

                     34                     35                     36
                      A                      A                      A
 Frequencies --   1417.8701              1423.2248              1469.6056
 Red. masses --      1.2078                 1.5094                 1.1863
 Frc consts  --      1.4306                 1.8013                 1.5096
 IR Inten    --      0.3642                10.5251                 7.1150

                     37                     38                     39
                      A                      A                      A
 Frequencies --   1488.0951              1490.9404              1495.2833
 Red. masses --      1.1628                 1.0481                 1.0745
 Frc consts  --      1.5171                 1.3727                 1.4155
 IR Inten    --     11.6417                 3.8508                 3.8354

                     40                     41                     42
                      A                      A                      A
 Frequencies --   1510.8351              1847.2923              3019.4716
 Red. masses --      1.2252                12.3555                 1.0573
 Frc consts  --      1.6477                24.8418                 5.6793
 IR Inten    --      6.8132               371.8057                18.1499

                     43                     44                     45
                      A                      A                      A
 Frequencies --   3025.4276              3044.0313              3060.6504
 Red. masses --      1.0389                 1.0765                 1.0931
 Frc consts  --      5.6027                 5.8770                 6.0330
 IR Inten    --     45.0605                 7.8473                22.7091

                     46                     47                     48
                      A                      A                      A
 Frequencies --   3086.7716              3101.7750              3121.2535
 Red. masses --      1.1010                 1.1009                 1.0940
 Frc consts  --      6.1807                 6.2403                 6.2797
 IR Inten    --     24.2644                20.1898                 9.6558

                     49                     50                     51
                      A                      A                      A
 Frequencies --   3138.5515              3176.7765              3224.4576
 Red. masses --      1.0552                 1.0908                 1.1151
 Frc consts  --      6.1239                 6.4859                 6.8308
 IR Inten    --      8.7956                12.8645                 7.3635

 - Thermochemistry -
 -------------------
 Temperature   298.150 Kelvin.  Pressure   1.00000 Atm.
 Atom     1 has atomic number  6 and mass  12.00000

 Molecular mass:   126.06808 amu.
 Principal axes and moments of inertia in atomic units:
                           1         2         3
     Eigenvalues --   534.753581395.746221623.12140
           X            0.99972   0.01559   0.01776
           Y           -0.01539   0.99981  -0.01156
           Z           -0.01794   0.01128   0.99978
 This molecule is an asymmetric top.
 Rotational symmetry number  1.
 Warning -- assumption of classical behavior for rotation
           may cause significant error
 Rotational temperatures (Kelvin)      0.16197     0.06206     0.05336
 Rotational constants (GHZ):           3.37490     1.29303     1.11190
 Zero-point vibrational energy     419980.5 (Joules/Mol)
                                  100.37775 (Kcal/Mol)
 Warning -- explicit consideration of  11 degrees of freedom as
           vibrations may cause significant error
 Vibrational temperatures:    122.18   287.83   299.33   344.37   445.20
          (Kelvin)            506.12   532.39   662.23   694.72   751.28
                              862.89   967.94  1032.67  1066.82  1220.71
                             1283.70  1312.51  1316.18  1375.25  1475.55
                             1493.04  1504.36  1537.75  1606.79  1613.24
                             1644.37  1725.02  1756.00  1794.41  1840.51
                             1930.87  1950.10  1995.56  2040.00  2047.70
                             2114.43  2141.03  2145.13  2151.38  2173.75
                             2657.84  4344.34  4352.91  4379.68  4403.59
                             4441.17  4462.76  4490.78  4515.67  4570.67
                             4639.27

 Zero-point correction=                           0.159962 (Hartree/Particle)
 Thermal correction to Energy=                    0.168048
 Thermal correction to Enthalpy=                  0.168992
 Thermal correction to Gibbs Free Energy=         0.127534
 Sum of electronic and zero-point Energies=           -423.062086
 Sum of electronic and thermal Energies=              -423.054000
 Sum of electronic and thermal Enthalpies=            -423.053056
 Sum of electronic and thermal Free Energies=         -423.094514

                     E (Thermal)             CV                S
                      KCal/Mol        Cal/Mol-Kelvin    Cal/Mol-Kelvin
 Total                  105.452             31.697             87.257
 Electronic               0.000              0.000              0.000
 Translational            0.889              2.981             40.409
 Rotational               0.889              2.981             28.584
 Vibrational            103.674             25.736             18.264
 Vibration     1          0.601              1.960              3.774
 Vibration     2          0.638              1.840              2.133
 Vibration     3          0.641              1.828              2.061
 Vibration     4          0.657              1.780              1.808
 Vibration     5          0.699              1.656              1.365
 Vibration     6          0.728              1.572              1.158
 Vibration     7          0.742              1.534              1.080
 Vibration     8          0.818              1.338              0.765
 Vibration     9          0.839              1.288              0.702
 Vibration    10          0.877              1.201              0.605
 Vibration    11          0.958              1.032              0.450

 Optimization completed.
    -- Stationary point found.
 Normal termination of Gaussian 09 at Mon Jan 27 18:27:16 2020.
