 Gaussian 09, Revision D.01,
 Gaussian 09:  ES64L-G09RevD.01 24-Apr-2013

 -----------------------------
 # b3lyp 6-31G(2df,p) opt Freq
 -----------------------------

 -----
 titel
 -----
 Symbolic Z-matrix:
 Charge =  0 Multiplicity = 1

 SCF Done:  E(RB3LYP) =  -423.135012916     A.U. after   13 cycles
 Optimization completed.
    -- Stationary point found.
 Normal termination of Gaussian 09 at Mon Jan 27 18:50:14 2020.

 ----------------------------------------------------------------------
 #N Geom=AllCheck Guess=TCheck SCRF=Check GenChk RB3LYP/6-31G(2df,p) Fr
 eq
 ----------------------------------------------------------------------

 Structure from the checkpoint file:  "/scratch/puck/g09_e9808c6d-336e-40ff-9b79-a19c417d6014/Gau-54679.chk"
 -----
 titel
 -----
 Charge =  0 Multiplicity = 1

                         Standard orientation:
 ---------------------------------------------------------------------
 Center     Atomic      Atomic             Coordinates (Angstroms)
 Number     Number       Type             X           Y           Z
 ---------------------------------------------------------------------
      1          8           0        0.260380    1.987876   -0.384217
      2          6           0        0.402523    0.648590   -0.046985
      3          6           0        1.432699    0.374173    1.068900
      4          6           0        2.032424   -0.801589    0.230885
      5          6           0        1.019532   -0.517939   -0.901724
      6          8           0       -0.198440   -1.289368   -0.765444
      7          6           0       -0.834279   -0.246469   -0.023696
      8          6           0       -2.255212    0.153201   -0.276540
      9          6           0       -1.846591   -0.510214    1.034669
     10          1           0       -0.402052    2.051711   -1.082181
     11          1           0        2.121454    1.214485    1.177541
     12          1           0        1.017003    0.126290    2.048240
     13          1           0        3.073821   -0.642011   -0.058505
     14          1           0        1.928992   -1.800142    0.659041
     15          1           0        1.361797   -0.456742   -1.936979
     16          1           0       -2.511065    1.208638   -0.254503
     17          1           0       -2.817870   -0.442124   -0.987469
     18          1           0       -1.827452    0.095126    1.935503
     19          1           0       -2.146725   -1.541823    1.183550
 ---------------------------------------------------------------------

 SCF Done:  E(RB3LYP) =  -423.135012916     A.U. after    1 cycles

 The electronic state is 1-A.
 Alpha  occ. eigenvalues --  -19.15117 -19.13680 -10.24000 -10.23816 -10.22648
 Alpha  occ. eigenvalues --  -10.18870 -10.18701 -10.18178 -10.18148  -1.05376
 Alpha  occ. eigenvalues --   -1.02596  -0.84979  -0.81750  -0.67599  -0.64810
 Alpha  occ. eigenvalues --   -0.60821  -0.58888  -0.54886  -0.51499  -0.50831
 Alpha  occ. eigenvalues --   -0.47541  -0.45079  -0.41786  -0.40459  -0.39710
 Alpha  occ. eigenvalues --   -0.37800  -0.36463  -0.35014  -0.34456  -0.32521
 Alpha  occ. eigenvalues --   -0.31569  -0.28700  -0.24882  -0.22961
 Alpha virt. eigenvalues --    0.06873   0.07771   0.10342   0.10692   0.11191
 Alpha virt. eigenvalues --    0.12808   0.12934   0.16027   0.16699   0.17552
 Alpha virt. eigenvalues --    0.18324   0.19645   0.21144   0.21602   0.23222

 Mulliken charges:
               1
     1  O   -0.467075
     2  C    0.274799
     3  C   -0.274650
     4  C   -0.230439
     5  C    0.031857
     6  O   -0.323900
     7  C    0.396018
     8  C   -0.358557
     9  C   -0.335721
    10  H    0.283532
    11  H    0.115226
    12  H    0.103666
    13  H    0.105145
    14  H    0.113383
    15  H    0.078575
    16  H    0.113915
    17  H    0.126932
    18  H    0.120488
    19  H    0.126805
 Sum of Mulliken charges =   0.00000

 Dipole moment (field-independent basis, Debye):
    X=             -0.2500    Y=              0.5058    Z=             -0.0874  Tot=              0.5710
 Quadrupole moment (field-independent basis, Debye-Ang):
   XX=            -50.3844   YY=            -56.9897   ZZ=            -50.9663
   XY=             -2.2730   XZ=              0.1905   YZ=             -2.8864

  Exact polarizability:  86.883  -2.392  68.705   0.054  -1.302  70.073
 Approx polarizability: 113.117  -2.335 104.730  -0.341  -0.758 104.776

                      1                      2                      3
                      A                      A                      A
 Frequencies --     75.9469               179.1568               220.5996
 Red. masses --      3.2001                 2.2234                 3.4359
 Frc consts  --      0.0109                 0.0420                 0.0985
 IR Inten    --      1.5095                 1.4119                 0.4717

                      4                      5                      6
                      A                      A                      A
 Frequencies --    230.1080               348.4472               365.6769
 Red. masses --      2.1074                 1.3189                 3.2630
 Frc consts  --      0.0657                 0.0943                 0.2571
 IR Inten    --      0.5974                62.6990                 9.7598

                      7                      8                      9
                      A                      A                      A
 Frequencies --    384.4678               449.4507               480.8069
 Red. masses --      2.3656                 2.5151                 4.0946
 Frc consts  --      0.2060                 0.2993                 0.5577
 IR Inten    --     28.0998                24.1779                 2.5762

                     10                     11                     12
                      A                      A                      A
 Frequencies --    568.6441               645.2645               725.5615
 Red. masses --      3.6304                 3.7878                 1.7142
 Frc consts  --      0.6916                 0.9292                 0.5317
 IR Inten    --      2.0469                 4.3916                 0.4688

                     13                     14                     15
                      A                      A                      A
 Frequencies --    761.8091               772.2673               855.3156
 Red. masses --      1.5048                 1.3493                 2.3610
 Frc consts  --      0.5145                 0.4741                 1.0176
 IR Inten    --      0.8039                 0.7559                 4.6074

                     16                     17                     18
                      A                      A                      A
 Frequencies --    867.6147               888.6683               909.6602
 Red. masses --      1.3658                 2.1640                 2.0866
 Frc consts  --      0.6058                 1.0069                 1.0173
 IR Inten    --      3.0805                15.3463                21.1338

                     19                     20                     21
                      A                      A                      A
 Frequencies --    943.1560               967.0996               980.3758
 Red. masses --      2.7291                 3.5818                 2.9233
 Frc consts  --      1.4303                 1.9738                 1.6554
 IR Inten    --      1.2633                35.5586                 5.7904

                     22                     23                     24
                      A                      A                      A
 Frequencies --   1013.8655              1042.6574              1059.8858
 Red. masses --      3.2157                 1.5919                 2.6498
 Frc consts  --      1.9476                 1.0196                 1.7538
 IR Inten    --     52.2362                18.9946                21.2468

                     25                     26                     27
                      A                      A                      A
 Frequencies --   1067.8646              1089.0613              1116.6683
 Red. masses --      1.4851                 2.7308                 1.5368
 Frc consts  --      0.9978                 1.9083                 1.1291
 IR Inten    --      0.3257                22.6383                33.5319

                     28                     29                     30
                      A                      A                      A
 Frequencies --   1164.0571              1190.3733              1214.9849
 Red. masses --      1.7240                 1.2588                 2.4988
 Frc consts  --      1.3764                 1.0509                 2.1733
 IR Inten    --      3.0669                 1.1980                77.2267

                     31                     32                     33
                      A                      A                      A
 Frequencies --   1218.9200              1243.0438              1266.7275
 Red. masses --      1.3572                 1.4505                 1.5226
 Frc consts  --      1.1881                 1.3206                 1.4395
 IR Inten    --     10.4519                 8.3569                 1.6094

                     34                     35                     36
                      A                      A                      A
 Frequencies --   1296.1907              1333.7063              1366.6965
 Red. masses --      1.7013                 1.8373                 2.0397
 Frc consts  --      1.6841                 1.9255                 2.2447
 IR Inten    --     74.3546                23.3591                 7.3726

                     37                     38                     39
                      A                      A                      A
 Frequencies --   1403.1158              1444.2891              1463.2916
 Red. masses --      2.1828                 1.0926                 1.0846
 Frc consts  --      2.5319                 1.3428                 1.3683
 IR Inten    --     53.3709                 2.3350                 0.5155

                     40                     41                     42
                      A                      A                      A
 Frequencies --   1482.5957              1494.7214              3066.4500
 Red. masses --      1.1466                 1.7292                 1.0581
 Frc consts  --      1.4849                 2.2762                 5.8618
 IR Inten    --      4.9415                18.8896                22.6228

                     43                     44                     45
                      A                      A                      A
 Frequencies --   3070.9878              3089.8636              3118.2295
 Red. masses --      1.0619                 1.0885                 1.1078
 Frc consts  --      5.9005                 6.1231                 6.3466
 IR Inten    --     34.1314                47.5154                 0.1593

                     46                     47                     48
                      A                      A                      A
 Frequencies --   3121.0979              3127.5987              3135.5535
 Red. masses --      1.0533                 1.0554                 1.1072
 Frc consts  --      6.0452                 6.0826                 6.4135
 IR Inten    --     10.4981                 5.8095                30.2424

                     49                     50                     51
                      A                      A                      A
 Frequencies --   3208.8769              3222.9765              3791.9509
 Red. masses --      1.1172                 1.1149                 1.0654
 Frc consts  --      6.7780                 6.8237                 9.0257
 IR Inten    --      0.2022                 8.1515                15.3869

 - Thermochemistry -
 -------------------
 Temperature   298.150 Kelvin.  Pressure   1.00000 Atm.
 Atom     1 has atomic number  8 and mass  15.99491

 Molecular mass:   126.06808 amu.
 Principal axes and moments of inertia in atomic units:
                           1         2         3
     Eigenvalues --   685.913391109.549791318.72085
           X            0.99971  -0.02345   0.00516
           Y            0.02363   0.99895  -0.03936
           Z           -0.00423   0.03947   0.99921
 This molecule is an asymmetric top.
 Rotational symmetry number  1.
 Warning -- assumption of classical behavior for rotation
           may cause significant error
 Rotational temperatures (Kelvin)      0.12628     0.07806     0.06568
 Rotational constants (GHZ):           2.63115     1.62655     1.36855
 Zero-point vibrational energy     415979.8 (Joules/Mol)
                                   99.42157 (Kcal/Mol)
 Warning -- explicit consideration of  10 degrees of freedom as
           vibrations may cause significant error
 Vibrational temperatures:    109.27   257.77   317.39   331.07   501.34
          (Kelvin)            526.13   553.16   646.66   691.77   818.15
                              928.39  1043.92  1096.07  1111.12  1230.61
                             1248.30  1278.59  1308.80  1356.99  1391.44
                             1410.54  1458.72  1500.15  1524.94  1536.42
                             1566.91  1606.63  1674.82  1712.68  1748.09
                             1753.75  1788.46  1822.54  1864.93  1918.90
                             1966.37  2018.77  2078.01  2105.35  2133.12
                             2150.57  4411.93  4418.46  4445.62  4486.43
                             4490.56  4499.91  4511.36  4616.85  4637.14
                             5455.76

 Zero-point correction=                           0.158438 (Hartree/Particle)
 Thermal correction to Energy=                    0.166508
 Thermal correction to Enthalpy=                  0.167453
 Thermal correction to Gibbs Free Energy=         0.126048
 Sum of electronic and zero-point Energies=           -422.976575
 Sum of electronic and thermal Energies=              -422.968505
 Sum of electronic and thermal Enthalpies=            -422.967560
 Sum of electronic and thermal Free Energies=         -423.008965

                     E (Thermal)             CV                S
                      KCal/Mol        Cal/Mol-Kelvin    Cal/Mol-Kelvin
 Total                  104.486             32.166             87.144
 Electronic               0.000              0.000              0.000
 Translational            0.889              2.981             40.409
 Rotational               0.889              2.981             28.397
 Vibrational            102.708             26.204             18.338
 Vibration     1          0.599              1.965              3.993
 Vibration     2          0.629              1.868              2.337
 Vibration     3          0.647              1.810              1.954
 Vibration     4          0.652              1.795              1.878
 Vibration     5          0.726              1.578              1.173
 Vibration     6          0.739              1.543              1.098
 Vibration     7          0.753              1.503              1.022
 Vibration     8          0.808              1.362              0.797
 Vibration     9          0.837              1.293              0.708
 Vibration    10          0.925              1.099              0.507

 Optimization completed.
    -- Stationary point found.
 Normal termination of Gaussian 09 at Mon Jan 27 19:33:39 2020.
