 Gaussian 09, Revision D.01,
 Gaussian 09:  ES64L-G09RevD.01 24-Apr-2013

 -----------------------------
 # b3lyp 6-31G(2df,p) opt Freq
 -----------------------------

 -----
 titel
 -----
 Symbolic Z-matrix:
 Charge =  0 Multiplicity = 1

 SCF Done:  E(RB3LYP) =  -423.164732413     A.U. after   15 cycles
 Optimization completed.
    -- Stationary point found.
 Normal termination of Gaussian 09 at Tue Jan 28 08:18:25 2020.

 ----------------------------------------------------------------------
 #N Geom=AllCheck Guess=TCheck SCRF=Check GenChk RB3LYP/6-31G(2df,p) Fr
 eq
 ----------------------------------------------------------------------

 Structure from the checkpoint file:  "/scratch/puck/g09_939c5111-2ae2-4575-a59a-f7befe9e4f8c/Gau-79694.chk"
 -----
 titel
 -----
 Charge =  0 Multiplicity = 1

                         Standard orientation:
 ---------------------------------------------------------------------
 Center     Atomic      Atomic             Coordinates (Angstroms)
 Number     Number       Type             X           Y           Z
 ---------------------------------------------------------------------
      1          6           0        0.104870    1.744434   -0.962873
      2          6           0        0.536993    0.642531    0.023865
      3          6           0        2.065484    0.594247    0.177058
      4          8           0        2.501194   -0.339452    1.140294
      5          6           0       -0.010634   -0.718032   -0.385880
      6          8           0        0.701257   -1.683043   -0.561584
      7          6           0       -1.529196   -0.868735   -0.619021
      8          6           0       -2.381771   -0.157187    0.321065
      9          6           0       -3.080929    0.424548    1.106673
     10          1           0        0.467560    1.535571   -1.975215
     11          1           0       -0.981200    1.855814   -0.998186
     12          1           0        0.525806    2.704996   -0.651073
     13          1           0        0.093666    0.864157    1.004077
     14          1           0        2.518583    0.402084   -0.808523
     15          1           0        2.415833    1.577200    0.510204
     16          1           0        2.282198   -1.206072    0.776448
     17          1           0       -1.728504   -0.516018   -1.641163
     18          1           0       -1.740533   -1.942190   -0.613471
     19          1           0       -3.701919    0.933581    1.801891
 ---------------------------------------------------------------------

 SCF Done:  E(RB3LYP) =  -423.164732413     A.U. after    1 cycles

 The electronic state is 1-A.
 Alpha  occ. eigenvalues --  -19.15118 -19.12169 -10.28924 -10.22733 -10.22502
 Alpha  occ. eigenvalues --  -10.20175 -10.19859 -10.19387 -10.18734  -1.06246
 Alpha  occ. eigenvalues --   -1.00592  -0.82082  -0.78859  -0.72469  -0.67890
 Alpha  occ. eigenvalues --   -0.63756  -0.55958  -0.52786  -0.51454  -0.48740
 Alpha  occ. eigenvalues --   -0.47729  -0.46378  -0.43847  -0.43015  -0.41512
 Alpha  occ. eigenvalues --   -0.39724  -0.38872  -0.37310  -0.35562  -0.32438
 Alpha  occ. eigenvalues --   -0.29682  -0.28031  -0.26098  -0.25096
 Alpha virt. eigenvalues --   -0.03205   0.03795   0.04233   0.08145   0.11073
 Alpha virt. eigenvalues --    0.11595   0.12617   0.13162   0.14449   0.16348
 Alpha virt. eigenvalues --    0.16949   0.17606   0.18788   0.20960   0.22288

 Mulliken charges:
               1
     1  C   -0.421774
     2  C   -0.107031
     3  C   -0.061457
     4  O   -0.429974
     5  C    0.403143
     6  O   -0.323549
     7  C   -0.445790
     8  C    0.305906
     9  C   -0.450165
    10  H    0.125432
    11  H    0.136800
    12  H    0.130406
    13  H    0.123337
    14  H    0.090610
    15  H    0.104389
    16  H    0.294015
    17  H    0.159060
    18  H    0.160286
    19  H    0.206357
 Sum of Mulliken charges =   0.00000

 Dipole moment (field-independent basis, Debye):
    X=             -2.2461    Y=              1.5983    Z=             -1.2306  Tot=              3.0190
 Quadrupole moment (field-independent basis, Debye-Ang):
   XX=            -56.3651   YY=            -52.9732   ZZ=            -53.0905
   XY=              0.9783   XZ=             -4.3104   YZ=              0.5132

  Exact polarizability:  88.097  -6.207  75.371  -8.081   5.631  67.971
 Approx polarizability: 117.619 -19.198 116.667 -16.865  16.135 109.457

                      1                      2                      3
                      A                      A                      A
 Frequencies --     53.0803                57.6510               122.8496
 Red. masses --      4.6491                 3.7017                 4.1669
 Frc consts  --      0.0077                 0.0072                 0.0371
 IR Inten    --      0.8998                 1.4076                 0.1108

                      4                      5                      6
                      A                      A                      A
 Frequencies --    156.7894               203.6971               218.1496
 Red. masses --      2.6472                 1.7986                 1.9287
 Frc consts  --      0.0383                 0.0440                 0.0541
 IR Inten    --      5.4637                 1.1665                 1.1118

                      7                      8                      9
                      A                      A                      A
 Frequencies --    268.7810               292.9231               335.8790
 Red. masses --      2.9041                 2.6931                 2.7558
 Frc consts  --      0.1236                 0.1361                 0.1832
 IR Inten    --      1.0008                 2.0519                 3.9645

                     10                     11                     12
                      A                      A                      A
 Frequencies --    381.4115               447.4932               486.9890
 Red. masses --      3.3843                 5.1834                 4.6018
 Frc consts  --      0.2901                 0.6116                 0.6430
 IR Inten    --      8.2484                12.7658                 3.0158

                     13                     14                     15
                      A                      A                      A
 Frequencies --    536.4803               572.0736               631.1058
 Red. masses --      1.2930                 2.4515                 1.2153
 Frc consts  --      0.2193                 0.4727                 0.2852
 IR Inten    --    115.8520                35.8030                41.0035

                     16                     17                     18
                      A                      A                      A
 Frequencies --    649.0297               676.1913               700.2323
 Red. masses --      1.4145                 2.5486                 2.9996
 Frc consts  --      0.3511                 0.6866                 0.8666
 IR Inten    --     26.6590                25.8626                 3.9706

                     19                     20                     21
                      A                      A                      A
 Frequencies --    898.5236               912.8684               933.0954
 Red. masses --      1.6033                 1.8655                 1.4798
 Frc consts  --      0.7626                 0.9159                 0.7591
 IR Inten    --      2.6443                 7.6043                 8.8898

                     22                     23                     24
                      A                      A                      A
 Frequencies --    986.1541              1053.8006              1072.2374
 Red. masses --      3.2381                 2.0262                 3.2102
 Frc consts  --      1.8553                 1.3257                 2.1745
 IR Inten    --      0.1101                24.8094                63.1466

                     25                     26                     27
                      A                      A                      A
 Frequencies --   1099.4222              1111.4707              1169.9482
 Red. masses --      2.9100                 3.0387                 1.6793
 Frc consts  --      2.0724                 2.2117                 1.3543
 IR Inten    --     52.4535                47.6107                26.7865

                     28                     29                     30
                      A                      A                      A
 Frequencies --   1204.2339              1239.5182              1285.1022
 Red. masses --      1.1852                 1.3283                 1.4117
 Frc consts  --      1.0127                 1.2024                 1.3736
 IR Inten    --      5.5842                19.8944                 0.9735

                     31                     32                     33
                      A                      A                      A
 Frequencies --   1298.1227              1362.2412              1397.5924
 Red. masses --      1.4587                 1.7184                 1.2653
 Frc consts  --      1.4483                 1.8788                 1.4562
 IR Inten    --      5.5907                26.1086                 1.7432

                     34                     35                     36
                      A                      A                      A
 Frequencies --   1407.0041              1441.4897              1444.8546
 Red. masses --      1.2139                 1.2119                 1.0884
 Frc consts  --      1.4159                 1.4837                 1.3387
 IR Inten    --      7.3671                65.2701                20.7936

                     37                     38                     39
                      A                      A                      A
 Frequencies --   1494.1120              1502.5534              1505.3964
 Red. masses --      1.0755                 1.0648                 1.0459
 Frc consts  --      1.4146                 1.4164                 1.3965
 IR Inten    --      0.0165                 5.6143                 6.4606

                     40                     41                     42
                      A                      A                      A
 Frequencies --   1787.1853              2239.2612              2980.7193
 Red. masses --     11.4348                 5.9273                 1.0686
 Frc consts  --     21.5188                17.5114                 5.5938
 IR Inten    --    176.8158                 1.1392                45.8696

                     43                     44                     45
                      A                      A                      A
 Frequencies --   3016.9436              3031.1181              3039.8851
 Red. masses --      1.0665                 1.0763                 1.0402
 Frc consts  --      5.7192                 5.8262                 5.6632
 IR Inten    --      6.1790                 5.2387                27.8254

                     46                     47                     48
                      A                      A                      A
 Frequencies --   3068.7685              3087.5399              3105.8742
 Red. masses --      1.0945                 1.0922                 1.1010
 Frc consts  --      6.0729                 6.1345                 6.2578
 IR Inten    --     27.1884                 2.4348                20.0111

                     49                     50                     51
                      A                      A                      A
 Frequencies --   3126.4555              3504.0530              3784.1923
 Red. masses --      1.1007                 1.1625                 1.0650
 Frc consts  --      6.3391                 8.4096                 8.9854
 IR Inten    --     16.1408                71.2656                52.2275

 - Thermochemistry -
 -------------------
 Temperature   298.150 Kelvin.  Pressure   1.00000 Atm.
 Atom     1 has atomic number  6 and mass  12.00000

 Molecular mass:   126.06808 amu.
 Principal axes and moments of inertia in atomic units:
                           1         2         3
     Eigenvalues --   739.789941733.567261946.53283
           X            0.99992   0.01139  -0.00624
           Y           -0.01165   0.99895  -0.04426
           Z            0.00573   0.04433   0.99900
 This molecule is an asymmetric top.
 Rotational symmetry number  1.
 Warning -- assumption of classical behavior for rotation
           may cause significant error
 Rotational temperatures (Kelvin)      0.11708     0.04996     0.04450
 Rotational constants (GHZ):           2.43953     1.04106     0.92716
 Zero-point vibrational energy     409018.4 (Joules/Mol)
                                   97.75775 (Kcal/Mol)
 Warning -- explicit consideration of  14 degrees of freedom as
           vibrations may cause significant error
 Vibrational temperatures:     76.37    82.95   176.75   225.58   293.07
          (Kelvin)            313.87   386.72   421.45   483.25   548.77
                              643.84   700.67   771.87   823.09   908.02
                              933.81   972.89  1007.48  1292.77  1313.41
                             1342.51  1418.85  1516.18  1542.71  1581.82
                             1599.16  1683.29  1732.62  1783.39  1848.97
                             1867.71  1959.96  2010.82  2024.36  2073.98
                             2078.82  2149.69  2161.84  2165.93  2571.36
                             3221.79  4288.58  4340.70  4361.10  4373.71
                             4415.27  4442.28  4468.65  4498.27  5041.54
                             5444.60

 Zero-point correction=                           0.155787 (Hartree/Particle)
 Thermal correction to Energy=                    0.166085
 Thermal correction to Enthalpy=                  0.167029
 Thermal correction to Gibbs Free Energy=         0.119973
 Sum of electronic and zero-point Energies=           -423.008946
 Sum of electronic and thermal Energies=              -422.998648
 Sum of electronic and thermal Enthalpies=            -422.997704
 Sum of electronic and thermal Free Energies=         -423.044759

                     E (Thermal)             CV                S
                      KCal/Mol        Cal/Mol-Kelvin    Cal/Mol-Kelvin
 Total                  104.220             37.117             99.037
 Electronic               0.000              0.000              0.000
 Translational            0.889              2.981             40.409
 Rotational               0.889              2.981             29.303
 Vibrational            102.442             31.155             29.326
 Vibration     1          0.596              1.976              4.699
 Vibration     2          0.596              1.974              4.536
 Vibration     3          0.610              1.930              3.055
 Vibration     4          0.620              1.895              2.588
 Vibration     5          0.639              1.835              2.099
 Vibration     6          0.646              1.813              1.974
 Vibration     7          0.673              1.731              1.604
 Vibration     8          0.688              1.687              1.457
 Vibration     9          0.717              1.604              1.232
 Vibration    10          0.751              1.510              1.034
 Vibration    11          0.807              1.366              0.803
 Vibration    12          0.843              1.279              0.691
 Vibration    13          0.891              1.169              0.573
 Vibration    14          0.928              1.092              0.500

 Optimization completed.
    -- Stationary point found.
 Normal termination of Gaussian 09 at Tue Jan 28 09:03:44 2020.
