 Gaussian 09, Revision D.01,
 Gaussian 09:  ES64L-G09RevD.01 24-Apr-2013

 -----------------------------
 # b3lyp 6-31G(2df,p) opt Freq
 -----------------------------

 -----
 titel
 -----
 Symbolic Z-matrix:
 Charge =  0 Multiplicity = 1

 SCF Done:  E(RB3LYP) =  -423.161954797     A.U. after   14 cycles
 Optimization completed.
    -- Stationary point found.
 Normal termination of Gaussian 09 at Tue Jan 28 02:55:04 2020.

 ----------------------------------------------------------------------
 #N Geom=AllCheck Guess=TCheck SCRF=Check GenChk RB3LYP/6-31G(2df,p) Fr
 eq
 ----------------------------------------------------------------------

 Structure from the checkpoint file:  "/scratch/puck/g09_3862b614-40ef-4718-85a4-43606782d5e6/Gau-44220.chk"
 -----
 titel
 -----
 Charge =  0 Multiplicity = 1

                         Standard orientation:
 ---------------------------------------------------------------------
 Center     Atomic      Atomic             Coordinates (Angstroms)
 Number     Number       Type             X           Y           Z
 ---------------------------------------------------------------------
      1          6           0       -1.712190   -1.919441   -0.453829
      2          6           0       -1.157839   -0.695173    0.263978
      3          6           0        0.122079   -0.952416    1.128266
      4          6           0        0.940121   -0.217196    0.069022
      5          6           0        2.232666   -0.554890   -0.527361
      6          8           0        2.073868    0.589577    0.325655
      7          6           0       -0.344319    0.281632   -0.635061
      8          6           0       -0.597217    1.753848   -0.399736
      9          8           0       -1.427690    2.197165    0.352231
     10          1           0       -2.496494   -1.639209   -1.165099
     11          1           0       -0.929322   -2.447841   -1.010670
     12          1           0       -2.145885   -2.627543    0.260092
     13          1           0       -1.947153   -0.173242    0.807636
     14          1           0        0.111743   -0.414030    2.079586
     15          1           0        0.387736   -1.996927    1.311629
     16          1           0        2.824012   -1.367436   -0.107132
     17          1           0        2.424338   -0.332360   -1.576649
     18          1           0       -0.367477    0.096613   -1.716095
     19          1           0        0.069274    2.429853   -0.978057
 ---------------------------------------------------------------------

 SCF Done:  E(RB3LYP) =  -423.161954797     A.U. after    1 cycles

 The electronic state is 1-A.
 Alpha  occ. eigenvalues --  -19.16012 -19.14234 -10.27259 -10.25460 -10.24143
 Alpha  occ. eigenvalues --  -10.20058 -10.19674 -10.18960 -10.18352  -1.08149
 Alpha  occ. eigenvalues --   -1.04852  -0.85604  -0.72968  -0.70767  -0.67279
 Alpha  occ. eigenvalues --   -0.60405  -0.59481  -0.52684  -0.50491  -0.49624
 Alpha  occ. eigenvalues --   -0.49083  -0.45294  -0.43257  -0.41922  -0.40589
 Alpha  occ. eigenvalues --   -0.40115  -0.39130  -0.35472  -0.34993  -0.33242
 Alpha  occ. eigenvalues --   -0.32012  -0.30009  -0.27312  -0.25068
 Alpha virt. eigenvalues --   -0.02376   0.06667   0.08475   0.10347   0.10882
 Alpha virt. eigenvalues --    0.13470   0.14079   0.14888   0.15413   0.15491
 Alpha virt. eigenvalues --    0.15682   0.16556   0.18163   0.20082   0.20320

 Mulliken charges:
               1
     1  C   -0.407911
     2  C    0.021327
     3  C   -0.335591
     4  C    0.457896
     5  C   -0.262702
     6  O   -0.266716
     7  C   -0.229693
     8  C    0.157709
     9  O   -0.242842
    10  H    0.120770
    11  H    0.112082
    12  H    0.120872
    13  H    0.103691
    14  H    0.126792
    15  H    0.105755
    16  H    0.120967
    17  H    0.116766
    18  H    0.091386
    19  H    0.089443
 Sum of Mulliken charges =   0.00000

 Dipole moment (field-independent basis, Debye):
    X=              0.6322    Y=             -2.7640    Z=             -1.8537  Tot=              3.3876
 Quadrupole moment (field-independent basis, Debye-Ang):
   XX=            -56.5483   YY=            -56.6875   ZZ=            -51.0890
   XY=              0.8117   XZ=             -0.9132   YZ=             -3.2982

  Exact polarizability:  82.440  -2.238  77.746  -5.495  -1.558  68.049
 Approx polarizability: 116.094  -6.505 109.205 -11.124   3.181 105.740

                      1                      2                      3
                      A                      A                      A
 Frequencies --     38.3803                70.0265               172.2918
 Red. masses --      3.0361                 5.5649                 3.9708
 Frc consts  --      0.0026                 0.0161                 0.0694
 IR Inten    --      0.8246                 3.0747                 4.8950

                      4                      5                      6
                      A                      A                      A
 Frequencies --    199.8207               238.8309               263.7882
 Red. masses --      2.6029                 1.0776                 2.9528
 Frc consts  --      0.0612                 0.0362                 0.1211
 IR Inten    --      4.3751                 0.0353                 2.8151

                      7                      8                      9
                      A                      A                      A
 Frequencies --    305.9174               347.4293               391.0109
 Red. masses --      2.5164                 3.4334                 2.2173
 Frc consts  --      0.1388                 0.2442                 0.1997
 IR Inten    --      1.1697                 5.5174                 0.5195

                     10                     11                     12
                      A                      A                      A
 Frequencies --    471.7230               547.5779               674.9043
 Red. masses --      3.1245                 4.2835                 4.4338
 Frc consts  --      0.4096                 0.7567                 1.1899
 IR Inten    --      1.8761                 3.6256                14.5523

                     13                     14                     15
                      A                      A                      A
 Frequencies --    774.5974               812.0479               844.3525
 Red. masses --      2.9084                 2.2104                 2.6874
 Frc consts  --      1.0282                 0.8588                 1.1288
 IR Inten    --      9.3651                 9.3356                17.4359

                     16                     17                     18
                      A                      A                      A
 Frequencies --    874.1946               889.7199               909.0123
 Red. masses --      2.1108                 2.1098                 1.4582
 Frc consts  --      0.9504                 0.9840                 0.7099
 IR Inten    --     12.3224                 1.4555                 7.3856

                     19                     20                     21
                      A                      A                      A
 Frequencies --    943.2818               994.9899              1034.9508
 Red. masses --      2.4513                 1.6970                 1.8418
 Frc consts  --      1.2851                 0.9898                 1.1623
 IR Inten    --     10.6024                 3.4023                24.8421

                     22                     23                     24
                      A                      A                      A
 Frequencies --   1064.2264              1107.6055              1122.7616
 Red. masses --      1.9545                 1.7857                 1.4412
 Frc consts  --      1.3043                 1.2907                 1.0704
 IR Inten    --      1.2011                19.0325                 2.1373

                     25                     26                     27
                      A                      A                      A
 Frequencies --   1131.3753              1160.5780              1169.5410
 Red. masses --      1.7287                 1.7115                 1.9715
 Frc consts  --      1.3037                 1.3583                 1.5889
 IR Inten    --      4.5668                 8.8603                 4.6991

                     28                     29                     30
                      A                      A                      A
 Frequencies --   1175.7280              1215.0709              1241.9949
 Red. masses --      1.6407                 1.5121                 1.4872
 Frc consts  --      1.3362                 1.3153                 1.3517
 IR Inten    --      4.9584                 3.9973                 1.5806

                     31                     32                     33
                      A                      A                      A
 Frequencies --   1263.9031              1308.1464              1371.6558
 Red. masses --      1.5317                 1.6031                 1.6109
 Frc consts  --      1.4416                 1.6164                 1.7857
 IR Inten    --      4.3451                16.3619                13.5647

                     34                     35                     36
                      A                      A                      A
 Frequencies --   1412.2109              1423.3741              1425.3096
 Red. masses --      1.2602                 1.3745                 1.8569
 Frc consts  --      1.4808                 1.6407                 2.2226
 IR Inten    --      2.1902                 9.9402                26.2923

                     37                     38                     39
                      A                      A                      A
 Frequencies --   1475.7659              1496.9277              1498.9866
 Red. masses --      1.1388                 1.0483                 1.0471
 Frc consts  --      1.4613                 1.3840                 1.3862
 IR Inten    --      3.8813                 3.1507                 3.7839

                     40                     41                     42
                      A                      A                      A
 Frequencies --   1532.5907              1822.2240              2897.3881
 Red. masses --      1.4894                10.2886                 1.0836
 Frc consts  --      2.0611                20.1285                 5.3596
 IR Inten    --      8.0136               154.6716               104.9085

                     43                     44                     45
                      A                      A                      A
 Frequencies --   3024.8928              3037.5514              3059.8145
 Red. masses --      1.0365                 1.0834                 1.0588
 Frc consts  --      5.5878                 5.8894                 5.8403
 IR Inten    --     23.0859                18.6697                16.9425

                     46                     47                     48
                      A                      A                      A
 Frequencies --   3078.9980              3082.9222              3098.8273
 Red. masses --      1.0503                 1.0947                 1.1016
 Frc consts  --      5.8668                 6.1303                 6.2324
 IR Inten    --     23.3046                 9.2666                21.7599

                     49                     50                     51
                      A                      A                      A
 Frequencies --   3103.5934              3116.4527              3167.0125
 Red. masses --      1.0942                 1.1045                 1.1195
 Frc consts  --      6.2096                 6.3205                 6.6157
 IR Inten    --     24.1596                17.1736                19.4099

 - Thermochemistry -
 -------------------
 Temperature   298.150 Kelvin.  Pressure   1.00000 Atm.
 Atom     1 has atomic number  6 and mass  12.00000

 Molecular mass:   126.06808 amu.
 Principal axes and moments of inertia in atomic units:
                           1         2         3
     Eigenvalues --   928.822271099.550731685.38073
           X            0.98881   0.14910  -0.00537
           Y           -0.14915   0.98876  -0.01013
           Z            0.00380   0.01082   0.99993
 This molecule is an asymmetric top.
 Rotational symmetry number  1.
 Warning -- assumption of classical behavior for rotation
           may cause significant error
 Rotational temperatures (Kelvin)      0.09325     0.07877     0.05139
 Rotational constants (GHZ):           1.94304     1.64134     1.07082
 Zero-point vibrational energy     412031.4 (Joules/Mol)
                                   98.47788 (Kcal/Mol)
 Warning -- explicit consideration of  11 degrees of freedom as
           vibrations may cause significant error
 Vibrational temperatures:     55.22   100.75   247.89   287.50   343.62
          (Kelvin)            379.53   440.15   499.87   562.58   678.70
                              787.84   971.04  1114.47  1168.35  1214.83
                             1257.77  1280.11  1307.86  1357.17  1431.57
                             1489.06  1531.18  1593.60  1615.40  1627.79
                             1669.81  1682.71  1691.61  1748.21  1786.95
                             1818.47  1882.13  1973.50  2031.85  2047.92
                             2050.70  2123.30  2153.74  2156.70  2205.05
                             2621.77  4168.69  4352.14  4370.35  4402.39
                             4429.99  4435.63  4458.52  4465.37  4483.87
                             4556.62

 Zero-point correction=                           0.156934 (Hartree/Particle)
 Thermal correction to Energy=                    0.165981
 Thermal correction to Enthalpy=                  0.166925
 Thermal correction to Gibbs Free Energy=         0.122276
 Sum of electronic and zero-point Energies=           -423.005020
 Sum of electronic and thermal Energies=              -422.995974
 Sum of electronic and thermal Enthalpies=            -422.995030
 Sum of electronic and thermal Free Energies=         -423.039679

                     E (Thermal)             CV                S
                      KCal/Mol        Cal/Mol-Kelvin    Cal/Mol-Kelvin
 Total                  104.155             33.029             93.973
 Electronic               0.000              0.000              0.000
 Translational            0.889              2.981             40.409
 Rotational               0.889              2.981             28.933
 Vibrational            102.377             27.067             24.631
 Vibration     1          0.594              1.982              5.341
 Vibration     2          0.598              1.968              4.153
 Vibration     3          0.626              1.877              2.410
 Vibration     4          0.638              1.840              2.135
 Vibration     5          0.657              1.781              1.812
 Vibration     6          0.670              1.739              1.637
 Vibration     7          0.696              1.662              1.384
 Vibration     8          0.725              1.580              1.178
 Vibration     9          0.759              1.489              0.996
 Vibration    10          0.829              1.313              0.733
 Vibration    11          0.903              1.145              0.549

 Optimization completed.
    -- Stationary point found.
 Normal termination of Gaussian 09 at Tue Jan 28 04:44:04 2020.
