 Gaussian 09, Revision D.01,
 Gaussian 09:  ES64L-G09RevD.01 24-Apr-2013

 -----------------------------
 # b3lyp 6-31G(2df,p) opt Freq
 -----------------------------

 -----
 titel
 -----
 Symbolic Z-matrix:
 Charge =  0 Multiplicity = 1

 SCF Done:  E(RB3LYP) =  -423.153082328     A.U. after   14 cycles
 Optimization completed.
    -- Stationary point found.
 Normal termination of Gaussian 09 at Mon Jan 27 16:43:11 2020.

 ----------------------------------------------------------------------
 #N Geom=AllCheck Guess=TCheck SCRF=Check GenChk RB3LYP/6-31G(2df,p) Fr
 eq
 ----------------------------------------------------------------------

 Structure from the checkpoint file:  "/scratch/puck/g09_7c67e981-8525-4808-88c1-0ce2173d06c8/Gau-37729.chk"
 -----
 titel
 -----
 Charge =  0 Multiplicity = 1

                         Standard orientation:
 ---------------------------------------------------------------------
 Center     Atomic      Atomic             Coordinates (Angstroms)
 Number     Number       Type             X           Y           Z
 ---------------------------------------------------------------------
      1          6           0        0.239749    1.787190   -0.594809
      2          6           0       -0.200442    0.484719    0.071735
      3          6           0        0.954512   -0.233379    0.789309
      4          6           0        2.079799   -0.619656   -0.141292
      5          8           0        3.236992   -0.318478    0.005772
      6          6           0       -1.509608    0.666021    0.940880
      7          6           0       -2.253977   -0.211055   -0.070107
      8          8           0       -1.585801   -1.479940   -0.108356
      9          6           0       -1.043163   -0.405346   -0.880059
     10          1           0        1.034025    1.614877   -1.329670
     11          1           0       -0.597227    2.266412   -1.113659
     12          1           0        0.625205    2.492707    0.148622
     13          1           0        1.362398    0.384750    1.595147
     14          1           0        0.553367   -1.157935    1.224585
     15          1           0        1.760962   -1.236511   -1.014898
     16          1           0       -1.482054    0.274379    1.960813
     17          1           0       -1.850871    1.703958    0.955877
     18          1           0       -3.299483   -0.197989   -0.354839
     19          1           0       -0.917075   -0.568269   -1.945245
 ---------------------------------------------------------------------

 SCF Done:  E(RB3LYP) =  -423.153082328     A.U. after    1 cycles

 The electronic state is 1-A.
 Alpha  occ. eigenvalues --  -19.16073 -19.13759 -10.26983 -10.24650 -10.24380
 Alpha  occ. eigenvalues --  -10.21821 -10.19748 -10.19133 -10.18954  -1.08688
 Alpha  occ. eigenvalues --   -1.04401  -0.84007  -0.75286  -0.71374  -0.65950
 Alpha  occ. eigenvalues --   -0.62305  -0.57858  -0.54834  -0.51785  -0.47820
 Alpha  occ. eigenvalues --   -0.47030  -0.46011  -0.43632  -0.41977  -0.40624
 Alpha  occ. eigenvalues --   -0.40423  -0.38850  -0.37073  -0.35662  -0.34044
 Alpha  occ. eigenvalues --   -0.33137  -0.30086  -0.26446  -0.24659
 Alpha virt. eigenvalues --   -0.02118   0.07643   0.09372   0.10179   0.11443
 Alpha virt. eigenvalues --    0.12107   0.12525   0.13880   0.14354   0.16055
 Alpha virt. eigenvalues --    0.16466   0.17322   0.18427   0.19379   0.19784

 Mulliken charges:
               1
     1  C   -0.459098
     2  C    0.274716
     3  C   -0.328619
     4  C    0.156998
     5  O   -0.245050
     6  C   -0.316417
     7  C    0.039494
     8  O   -0.249229
     9  C   -0.008250
    10  H    0.128635
    11  H    0.117836
    12  H    0.129146
    13  H    0.115356
    14  H    0.135495
    15  H    0.074289
    16  H    0.112127
    17  H    0.110215
    18  H    0.108791
    19  H    0.103566
 Sum of Mulliken charges =   0.00000

 Dipole moment (field-independent basis, Debye):
    X=             -2.8198    Y=              1.5390    Z=             -0.4138  Tot=              3.2389
 Quadrupole moment (field-independent basis, Debye-Ang):
   XX=            -63.4475   YY=            -54.8803   ZZ=            -50.6571
   XY=             -2.8695   XZ=              0.1784   YZ=              0.4341

  Exact polarizability:  89.286   1.129  68.164  -1.928   3.469  68.367
 Approx polarizability: 126.517   3.819 104.649  -3.584   4.807 103.823

                      1                      2                      3
                      A                      A                      A
 Frequencies --     55.7166                71.9113               173.3865
 Red. masses --      4.3096                 4.0182                 3.3088
 Frc consts  --      0.0079                 0.0122                 0.0586
 IR Inten    --      6.9772                 1.7414                 2.5227

                      4                      5                      6
                      A                      A                      A
 Frequencies --    188.2614               232.2569               279.8924
 Red. masses --      2.4763                 1.1174                 2.5273
 Frc consts  --      0.0517                 0.0355                 0.1166
 IR Inten    --      1.1429                 0.3190                 2.8177

                      7                      8                      9
                      A                      A                      A
 Frequencies --    316.7653               387.1683               427.7125
 Red. masses --      2.5854                 2.8344                 2.2482
 Frc consts  --      0.1528                 0.2503                 0.2423
 IR Inten    --      1.3923                 0.3679                 5.4122

                     10                     11                     12
                      A                      A                      A
 Frequencies --    485.9682               536.3639               668.5357
 Red. masses --      2.5115                 4.3016                 2.7390
 Frc consts  --      0.3495                 0.7291                 0.7213
 IR Inten    --     13.2077                 5.2562                 2.4617

                     13                     14                     15
                      A                      A                      A
 Frequencies --    785.9562               834.5983               839.4324
 Red. masses --      3.7999                 1.9701                 2.7992
 Frc consts  --      1.3830                 0.8085                 1.1621
 IR Inten    --      1.8208                 5.2036                 2.0164

                     16                     17                     18
                      A                      A                      A
 Frequencies --    858.0202               868.5735               925.4381
 Red. masses --      1.8898                 2.3530                 2.2610
 Frc consts  --      0.8197                 1.0459                 1.1409
 IR Inten    --     14.8288                17.6898                 0.8837

                     19                     20                     21
                      A                      A                      A
 Frequencies --    950.3587               961.1685               992.7462
 Red. masses --      1.6366                 1.9398                 1.9654
 Frc consts  --      0.8709                 1.0559                 1.1413
 IR Inten    --      2.8317                 0.9277                19.9324

                     22                     23                     24
                      A                      A                      A
 Frequencies --   1010.5327              1045.8432              1066.8860
 Red. masses --      1.7561                 1.3126                 2.2656
 Frc consts  --      1.0566                 0.8459                 1.5194
 IR Inten    --      1.4045                 6.6310                16.7199

                     25                     26                     27
                      A                      A                      A
 Frequencies --   1121.4586              1159.0714              1165.7235
 Red. masses --      1.6835                 2.2490                 1.7285
 Frc consts  --      1.2475                 1.7802                 1.3839
 IR Inten    --      6.2226                 4.5953                 5.2198

                     28                     29                     30
                      A                      A                      A
 Frequencies --   1213.2998              1230.0543              1256.1507
 Red. masses --      1.3875                 1.3203                 1.5517
 Frc consts  --      1.2034                 1.1770                 1.4426
 IR Inten    --     15.4946                 5.7940                 3.1133

                     31                     32                     33
                      A                      A                      A
 Frequencies --   1267.4577              1309.2561              1314.9081
 Red. masses --      2.3556                 1.6489                 1.9207
 Frc consts  --      2.2295                 1.6653                 1.9566
 IR Inten    --      4.0654                 1.8459                15.5858

                     34                     35                     36
                      A                      A                      A
 Frequencies --   1384.8832              1413.9842              1430.9732
 Red. masses --      3.4150                 1.2788                 1.1981
 Frc consts  --      3.8589                 1.5064                 1.4455
 IR Inten    --     11.2850                 8.3801                 4.3169

                     37                     38                     39
                      A                      A                      A
 Frequencies --   1460.6127              1473.1787              1491.5253
 Red. masses --      1.1021                 1.1107                 1.0542
 Frc consts  --      1.3853                 1.4202                 1.3818
 IR Inten    --      5.6418                 3.6681                 1.0972

                     40                     41                     42
                      A                      A                      A
 Frequencies --   1495.2192              1831.3078              2850.4410
 Red. masses --      1.0512                10.0330                 1.0810
 Frc consts  --      1.3847                19.8245                 5.1749
 IR Inten    --      4.7971               178.5689                93.1973

                     43                     44                     45
                      A                      A                      A
 Frequencies --   3026.9503              3030.8027              3063.1924
 Red. masses --      1.0364                 1.0586                 1.0580
 Frc consts  --      5.5948                 5.7293                 5.8492
 IR Inten    --     18.3562                 5.3171                21.6213

                     46                     47                     48
                      A                      A                      A
 Frequencies --   3093.8178              3095.5550              3101.4639
 Red. masses --      1.1012                 1.1012                 1.1014
 Frc consts  --      6.2103                 6.2174                 6.2423
 IR Inten    --     15.8285                13.1517                20.4510

                     49                     50                     51
                      A                      A                      A
 Frequencies --   3121.1666              3171.1211              3192.1032
 Red. masses --      1.1085                 1.0885                 1.0996
 Frc consts  --      6.3624                 6.4493                 6.6015
 IR Inten    --     16.9576                14.5999                21.8227

 - Thermochemistry -
 -------------------
 Temperature   298.150 Kelvin.  Pressure   1.00000 Atm.
 Atom     1 has atomic number  6 and mass  12.00000

 Molecular mass:   126.06808 amu.
 Principal axes and moments of inertia in atomic units:
                           1         2         3
     Eigenvalues --   572.028831595.832741817.30455
           X            0.99994  -0.01015  -0.00356
           Y            0.01012   0.99992  -0.00785
           Z            0.00364   0.00781   0.99996
 This molecule is an asymmetric top.
 Rotational symmetry number  1.
 Warning -- assumption of classical behavior for rotation
           may cause significant error
 Rotational temperatures (Kelvin)      0.15142     0.05427     0.04766
 Rotational constants (GHZ):           3.15498     1.13091     0.99309
 Zero-point vibrational energy     411091.7 (Joules/Mol)
                                   98.25328 (Kcal/Mol)
 Warning -- explicit consideration of  11 degrees of freedom as
           vibrations may cause significant error
 Vibrational temperatures:     80.16   103.46   249.46   270.87   334.17
          (Kelvin)            402.70   455.75   557.05   615.38   699.20
                              771.71   961.87  1130.81  1200.80  1207.75
                             1234.50  1249.68  1331.50  1367.35  1382.91
                             1428.34  1453.93  1504.73  1535.01  1613.53
                             1667.64  1677.21  1745.67  1769.77  1807.32
                             1823.59  1883.73  1891.86  1992.54  2034.41
                             2058.85  2101.49  2119.57  2145.97  2151.28
                             2634.84  4101.14  4355.10  4360.64  4407.25
                             4451.31  4453.81  4462.31  4490.66  4562.53
                             4592.72

 Zero-point correction=                           0.156577 (Hartree/Particle)
 Thermal correction to Energy=                    0.165523
 Thermal correction to Enthalpy=                  0.166467
 Thermal correction to Gibbs Free Energy=         0.122327
 Sum of electronic and zero-point Energies=           -422.996506
 Sum of electronic and thermal Energies=              -422.987559
 Sum of electronic and thermal Enthalpies=            -422.986615
 Sum of electronic and thermal Free Energies=         -423.030755

                     E (Thermal)             CV                S
                      KCal/Mol        Cal/Mol-Kelvin    Cal/Mol-Kelvin
 Total                  103.867             33.083             92.902
 Electronic               0.000              0.000              0.000
 Translational            0.889              2.981             40.409
 Rotational               0.889              2.981             28.897
 Vibrational            102.090             27.121             23.597
 Vibration     1          0.596              1.975              4.603
 Vibration     2          0.598              1.967              4.100
 Vibration     3          0.627              1.875              2.398
 Vibration     4          0.633              1.856              2.245
 Vibration     5          0.653              1.792              1.861
 Vibration     6          0.680              1.711              1.534
 Vibration     7          0.704              1.642              1.327
 Vibration     8          0.756              1.498              1.011
 Vibration     9          0.789              1.410              0.866
 Vibration    10          0.842              1.281              0.694
 Vibration    11          0.891              1.170              0.573

 Optimization completed.
    -- Stationary point found.
 Normal termination of Gaussian 09 at Mon Jan 27 17:56:42 2020.
