 Gaussian 09, Revision D.01,
 Gaussian 09:  ES64L-G09RevD.01 24-Apr-2013

 -----------------------------
 # b3lyp 6-31G(2df,p) opt Freq
 -----------------------------

 -----
 titel
 -----
 Symbolic Z-matrix:
 Charge =  0 Multiplicity = 1

 SCF Done:  E(RB3LYP) =  -423.085698020     A.U. after   13 cycles
 SCF Done:  E(RB3LYP) =  -423.085697714     A.U. after    6 cycles
 SCF Done:  E(RB3LYP) =  -423.085697095     A.U. after    6 cycles
 Optimization completed.
    -- Stationary point found.
 Normal termination of Gaussian 09 at Mon Jan 27 16:24:57 2020.

 ----------------------------------------------------------------------
 #N Geom=AllCheck Guess=TCheck SCRF=Check GenChk RB3LYP/6-31G(2df,p) Fr
 eq
 ----------------------------------------------------------------------

 Structure from the checkpoint file:  "/scratch/puck/g09_1f22dc66-85a2-43b9-9d40-5a39f36aed68/Gau-63485.chk"
 -----
 titel
 -----
 Charge =  0 Multiplicity = 1

                         Standard orientation:
 ---------------------------------------------------------------------
 Center     Atomic      Atomic             Coordinates (Angstroms)
 Number     Number       Type             X           Y           Z
 ---------------------------------------------------------------------
      1          6           0       -2.061492    1.189022   -0.344990
      2          6           0       -1.311696   -0.085681   -0.031916
      3          8           0       -1.825334   -0.813945    1.057313
      4          6           0       -0.795334   -0.965052   -1.161058
      5          6           0        0.148458   -0.200592   -0.283491
      6          6           0        1.282670    0.819524   -0.463751
      7          6           0        2.299034   -0.349194   -0.510823
      8          6           0        1.298762   -0.594481    0.647067
      9          8           0        1.431381    0.842395    1.016936
     10          1           0       -1.985743    1.898201    0.487748
     11          1           0       -1.657555    1.678703   -1.235930
     12          1           0       -3.121095    0.974739   -0.516791
     13          1           0       -1.611037   -0.320899    1.857813
     14          1           0       -0.868730   -2.037073   -1.009902
     15          1           0       -0.958739   -0.634045   -2.182136
     16          1           0        1.292344    1.775932   -0.986738
     17          1           0        2.266292   -1.024318   -1.368983
     18          1           0        3.310829   -0.090284   -0.196121
     19          1           0        1.322643   -1.329823    1.450821
 ---------------------------------------------------------------------

 SCF Done:  E(RB3LYP) =  -423.085697095     A.U. after    1 cycles

 The electronic state is 1-A.
 Alpha  occ. eigenvalues --  -19.13947 -19.13093 -10.25034 -10.24888 -10.23865
 Alpha  occ. eigenvalues --  -10.19991 -10.19335 -10.18497 -10.17908  -1.05389
 Alpha  occ. eigenvalues --   -1.02456  -0.85133  -0.77285  -0.71299  -0.65288
 Alpha  occ. eigenvalues --   -0.63862  -0.57746  -0.54052  -0.52343  -0.48104
 Alpha  occ. eigenvalues --   -0.46616  -0.44007  -0.41725  -0.40407  -0.39868
 Alpha  occ. eigenvalues --   -0.38925  -0.37367  -0.35811  -0.33295  -0.31620
 Alpha  occ. eigenvalues --   -0.31195  -0.28600  -0.25013  -0.23473
 Alpha virt. eigenvalues --    0.07249   0.08621   0.09636   0.11448   0.12591
 Alpha virt. eigenvalues --    0.13060   0.13787   0.14073   0.15217   0.16340
 Alpha virt. eigenvalues --    0.16957   0.17716   0.18571   0.20581   0.21258

 Mulliken charges:
               1
     1  C   -0.453743
     2  C    0.289512
     3  O   -0.464069
     4  C   -0.436625
     5  C    0.417478
     6  C   -0.055793
     7  C   -0.218989
     8  C   -0.045315
     9  O   -0.320748
    10  H    0.118652
    11  H    0.113948
    12  H    0.126446
    13  H    0.286069
    14  H    0.125685
    15  H    0.113597
    16  H    0.096212
    17  H    0.102068
    18  H    0.106126
    19  H    0.099489
 Sum of Mulliken charges =   0.00000

 Dipole moment (field-independent basis, Debye):
    X=              0.2994    Y=              0.0896    Z=             -1.1346  Tot=              1.1769
 Quadrupole moment (field-independent basis, Debye-Ang):
   XX=            -55.5899   YY=            -53.5527   ZZ=            -50.6882
   XY=             -4.4268   XZ=             -1.8675   YZ=             -1.7071

  Exact polarizability:  85.508  -1.441  71.330   0.279   0.471  71.922
 Approx polarizability: 110.457   2.462 109.752   0.723   2.681 114.044

                      1                      2                      3
                      A                      A                      A
 Frequencies --    131.3143               140.5403               145.3764
 Red. masses --      3.5704                 3.5365                 3.5077
 Frc consts  --      0.0363                 0.0412                 0.0437
 IR Inten    --      6.3980                 0.1149                 2.2273

                      4                      5                      6
                      A                      A                      A
 Frequencies --    223.9166               309.0309               332.8860
 Red. masses --      1.0803                 1.2864                 2.4854
 Frc consts  --      0.0319                 0.0724                 0.1623
 IR Inten    --      0.6142                54.2225                33.4418

                      7                      8                      9
                      A                      A                      A
 Frequencies --    385.3148               415.9704               440.7351
 Red. masses --      2.1670                 2.3160                 3.5775
 Frc consts  --      0.1896                 0.2361                 0.4094
 IR Inten    --      6.8839                 6.5187                14.2826

                     10                     11                     12
                      A                      A                      A
 Frequencies --    533.6916               571.9139               650.4133
 Red. masses --      3.9055                 2.6099                 3.2943
 Frc consts  --      0.6554                 0.5030                 0.8211
 IR Inten    --     14.5896                 0.9105                 9.1938

                     13                     14                     15
                      A                      A                      A
 Frequencies --    733.3518               782.4216               800.5706
 Red. masses --      5.8015                 2.4701                 3.8100
 Frc consts  --      1.8383                 0.8910                 1.4387
 IR Inten    --     10.4752                 2.3399                 0.8677

                     16                     17                     18
                      A                      A                      A
 Frequencies --    869.7323               874.4569               908.9002
 Red. masses --      2.8359                 1.9962                 1.5233
 Frc consts  --      1.2639                 0.8994                 0.7414
 IR Inten    --     29.0759                 2.5254                10.6342

                     19                     20                     21
                      A                      A                      A
 Frequencies --    916.7336               963.6412               979.5255
 Red. masses --      2.1535                 3.1460                 1.8662
 Frc consts  --      1.0663                 1.7212                 1.0550
 IR Inten    --     20.4997                 8.3563                11.5323

                     22                     23                     24
                      A                      A                      A
 Frequencies --   1027.3251              1045.3058              1059.5849
 Red. masses --      1.0580                 1.3533                 1.9789
 Frc consts  --      0.6579                 0.8712                 1.3090
 IR Inten    --      0.1903                 0.5360                10.6856

                     25                     26                     27
                      A                      A                      A
 Frequencies --   1084.9231              1103.2150              1118.3595
 Red. masses --      1.9011                 2.8234                 1.4625
 Frc consts  --      1.3184                 2.0246                 1.0777
 IR Inten    --     12.5181                12.6655                 9.1871

                     28                     29                     30
                      A                      A                      A
 Frequencies --   1126.4137              1169.3366              1190.0929
 Red. masses --      1.9290                 1.2976                 2.8846
 Frc consts  --      1.4420                 1.0454                 2.4071
 IR Inten    --      3.1348                 0.0857                37.7503

                     31                     32                     33
                      A                      A                      A
 Frequencies --   1208.8773              1255.4680              1263.9334
 Red. masses --      1.5735                 1.8386                 1.4967
 Frc consts  --      1.3548                 1.7074                 1.4087
 IR Inten    --      3.9769                11.7983                 3.4046

                     34                     35                     36
                      A                      A                      A
 Frequencies --   1266.8036              1340.7267              1410.5755
 Red. masses --      3.3072                 1.5760                 1.2646
 Frc consts  --      3.1270                 1.6691                 1.4825
 IR Inten    --     73.0388                33.1195                 5.7425

                     37                     38                     39
                      A                      A                      A
 Frequencies --   1429.7178              1476.2655              1484.9989
 Red. masses --      1.3269                 1.1754                 1.0617
 Frc consts  --      1.5980                 1.5092                 1.3794
 IR Inten    --      3.2073                 4.7657                 3.3598

                     40                     41                     42
                      A                      A                      A
 Frequencies --   1488.1388              1524.8096              3028.2902
 Red. masses --      1.1600                 2.5595                 1.0363
 Frc consts  --      1.5135                 3.5061                 5.5993
 IR Inten    --      3.5520                10.1490                24.0866

                     43                     44                     45
                      A                      A                      A
 Frequencies --   3066.7977              3093.3368              3112.3853
 Red. masses --      1.0544                 1.0996                 1.1005
 Frc consts  --      5.8426                 6.1994                 6.2812
 IR Inten    --     34.9291                20.3507                18.1743

                     46                     47                     48
                      A                      A                      A
 Frequencies --   3119.1504              3123.9783              3128.2529
 Red. masses --      1.0917                 1.0549                 1.0953
 Frc consts  --      6.2579                 6.0654                 6.3153
 IR Inten    --     64.4422                 9.7509                16.9629

                     49                     50                     51
                      A                      A                      A
 Frequencies --   3149.9901              3213.7852              3789.6659
 Red. masses --      1.1114                 1.1164                 1.0660
 Frc consts  --      6.4977                 6.7938                 9.0198
 IR Inten    --     25.7756                 4.5709                17.0864

 - Thermochemistry -
 -------------------
 Temperature   298.150 Kelvin.  Pressure   1.00000 Atm.
 Atom     1 has atomic number  6 and mass  12.00000

 Molecular mass:   126.06808 amu.
 Principal axes and moments of inertia in atomic units:
                           1         2         3
     Eigenvalues --   579.390981390.547401401.54708
           X            0.99926  -0.03622   0.01269
           Y            0.03833   0.92616  -0.37517
           Z            0.00183   0.37539   0.92687
 This molecule is an asymmetric top.
 Rotational symmetry number  1.
 Warning -- assumption of classical behavior for rotation
           may cause significant error
 Rotational temperatures (Kelvin)      0.14949     0.06229     0.06180
 Rotational constants (GHZ):           3.11489     1.29786     1.28768
 Zero-point vibrational energy     412777.1 (Joules/Mol)
                                   98.65609 (Kcal/Mol)
 Warning -- explicit consideration of  11 degrees of freedom as
           vibrations may cause significant error
 Vibrational temperatures:    188.93   202.21   209.16   322.17   444.63
          (Kelvin)            478.95   554.38   598.49   634.12   767.86
                              822.86   935.80  1055.13  1125.73  1151.84
                             1251.35  1258.15  1307.70  1318.97  1386.46
                             1409.32  1478.09  1503.96  1524.50  1560.96
                             1587.28  1609.07  1620.66  1682.41  1712.28
                             1739.30  1806.34  1818.52  1822.65  1929.00
                             2029.50  2057.04  2124.01  2136.58  2141.10
                             2193.86  4357.03  4412.43  4450.62  4478.02
                             4487.76  4494.70  4500.85  4532.13  4623.91
                             5452.48

 Zero-point correction=                           0.157218 (Hartree/Particle)
 Thermal correction to Energy=                    0.165645
 Thermal correction to Enthalpy=                  0.166589
 Thermal correction to Gibbs Free Energy=         0.124583
 Sum of electronic and zero-point Energies=           -422.928479
 Sum of electronic and thermal Energies=              -422.920052
 Sum of electronic and thermal Enthalpies=            -422.919108
 Sum of electronic and thermal Free Energies=         -422.961114

                     E (Thermal)             CV                S
                      KCal/Mol        Cal/Mol-Kelvin    Cal/Mol-Kelvin
 Total                  103.944             33.110             88.410
 Electronic               0.000              0.000              0.000
 Translational            0.889              2.981             40.409
 Rotational               0.889              2.981             28.514
 Vibrational            102.167             27.149             19.487
 Vibration     1          0.612              1.922              2.927
 Vibration     2          0.615              1.913              2.797
 Vibration     3          0.617              1.908              2.732
 Vibration     4          0.649              1.805              1.927
 Vibration     5          0.698              1.657              1.368
 Vibration     6          0.715              1.610              1.246
 Vibration     7          0.754              1.502              1.018
 Vibration     8          0.779              1.436              0.906
 Vibration     9          0.801              1.381              0.824
 Vibration    10          0.889              1.175              0.579
 Vibration    11          0.928              1.092              0.501

 Normal termination of Gaussian 09 at Mon Jan 27 17:11:31 2020.
