 Gaussian 09, Revision D.01,
 Gaussian 09:  ES64L-G09RevD.01 24-Apr-2013

 -----------------------------
 # b3lyp 6-31G(2df,p) opt Freq
 -----------------------------

 -----
 titel
 -----
 Symbolic Z-matrix:
 Charge =  0 Multiplicity = 1

 SCF Done:  E(RB3LYP) =  -423.145134758     A.U. after   13 cycles
 Optimization completed.
    -- Stationary point found.
 Normal termination of Gaussian 09 at Mon Jan 27 11:28:21 2020.

 ----------------------------------------------------------------------
 #N Geom=AllCheck Guess=TCheck SCRF=Check GenChk RB3LYP/6-31G(2df,p) Fr
 eq
 ----------------------------------------------------------------------

 Structure from the checkpoint file:  "/scratch/puck/g09_b11aa2b7-f02f-46e1-8cbe-a9303a89d216/Gau-61252.chk"
 -----
 titel
 -----
 Charge =  0 Multiplicity = 1

                         Standard orientation:
 ---------------------------------------------------------------------
 Center     Atomic      Atomic             Coordinates (Angstroms)
 Number     Number       Type             X           Y           Z
 ---------------------------------------------------------------------
      1          6           0       -1.988548    0.860877    0.125077
      2          6           0       -2.062511   -0.670326   -0.240735
      3          6           0       -0.536630   -0.652732   -0.159596
      4          8           0        0.094846   -1.113193    1.039804
      5          6           0        0.711792   -1.391813   -0.235142
      6          6           0        1.881731   -0.456995   -0.529888
      7          6           0        1.759194    0.864811    0.266574
      8          8           0        0.510171    1.574826    0.165398
      9          6           0       -0.529118    0.840426   -0.410390
     10          1           0       -2.698499    1.539700   -0.349831
     11          1           0       -2.002998    0.998250    1.208249
     12          1           0       -2.562378   -1.332718    0.466262
     13          1           0       -2.448326   -0.846150   -1.247854
     14          1           0        0.783806   -2.444415   -0.499769
     15          1           0        2.837706   -0.916087   -0.252694
     16          1           0        1.922361   -0.265076   -1.609753
     17          1           0        1.937403    0.645476    1.324497
     18          1           0        2.540062    1.553947   -0.074586
     19          1           0       -0.564743    1.008515   -1.501534
 ---------------------------------------------------------------------

 SCF Done:  E(RB3LYP) =  -423.145134758     A.U. after    1 cycles

 The electronic state is 1-A.
 Alpha  occ. eigenvalues --  -19.14649 -19.13321 -10.23742 -10.23314 -10.22809
 Alpha  occ. eigenvalues --  -10.22690 -10.19505 -10.19416 -10.18808  -1.07250
 Alpha  occ. eigenvalues --   -1.02031  -0.83941  -0.77074  -0.69156  -0.64830
 Alpha  occ. eigenvalues --   -0.62467  -0.59204  -0.53542  -0.50820  -0.49803
 Alpha  occ. eigenvalues --   -0.48625  -0.44482  -0.41257  -0.41045  -0.40267
 Alpha  occ. eigenvalues --   -0.37656  -0.37334  -0.36985  -0.34537  -0.33878
 Alpha  occ. eigenvalues --   -0.30723  -0.28475  -0.25277  -0.23683
 Alpha virt. eigenvalues --    0.07670   0.09542   0.10309   0.11380   0.12905
 Alpha virt. eigenvalues --    0.13346   0.13688   0.15547   0.15931   0.17327
 Alpha virt. eigenvalues --    0.18023   0.18544   0.19711   0.20639   0.21095

 Mulliken charges:
               1
     1  C   -0.269156
     2  C   -0.337738
     3  C    0.412562
     4  O   -0.286822
     5  C   -0.090538
     6  C   -0.281659
     7  C   -0.051702
     8  O   -0.285757
     9  C    0.120028
    10  H    0.101401
    11  H    0.127259
    12  H    0.124622
    13  H    0.113813
    14  H    0.095134
    15  H    0.112008
    16  H    0.113618
    17  H    0.117535
    18  H    0.099323
    19  H    0.066069
 Sum of Mulliken charges =   0.00000

 Dipole moment (field-independent basis, Debye):
    X=              0.1235    Y=             -1.0202    Z=             -1.8691  Tot=              2.1330
 Quadrupole moment (field-independent basis, Debye-Ang):
   XX=            -47.5674   YY=            -55.6376   ZZ=            -53.9557
   XY=             -1.0467   XZ=             -0.1468   YZ=              1.3186

  Exact polarizability:  90.519  -2.539  71.310   0.176   0.289  63.209
 Approx polarizability: 117.185  -4.965 102.990   0.669  -1.509 104.017

                      1                      2                      3
                      A                      A                      A
 Frequencies --    111.1206               180.8068               263.0554
 Red. masses --      3.2937                 2.3033                 2.9327
 Frc consts  --      0.0240                 0.0444                 0.1196
 IR Inten    --      3.9172                 1.0929                 2.4361

                      4                      5                      6
                      A                      A                      A
 Frequencies --    276.5387               353.6151               424.6412
 Red. masses --      2.5310                 2.9630                 3.1207
 Frc consts  --      0.1140                 0.2183                 0.3316
 IR Inten    --      0.6224                 3.2533                 0.8849

                      7                      8                      9
                      A                      A                      A
 Frequencies --    443.8952               577.9664               635.9465
 Red. masses --      4.8086                 3.1408                 4.2419
 Frc consts  --      0.5583                 0.6182                 1.0108
 IR Inten    --      1.3808                 0.8748                15.4494

                     10                     11                     12
                      A                      A                      A
 Frequencies --    659.5243               699.4015               754.6085
 Red. masses --      2.5607                 2.6164                 1.8707
 Frc consts  --      0.6563                 0.7541                 0.6276
 IR Inten    --      6.9972                 0.9324                 4.9475

                     13                     14                     15
                      A                      A                      A
 Frequencies --    795.6819               859.9941               884.3670
 Red. masses --      1.9653                 2.6244                 3.1635
 Frc consts  --      0.7331                 1.1436                 1.4577
 IR Inten    --     13.5899                 3.6260                 2.2712

                     16                     17                     18
                      A                      A                      A
 Frequencies --    897.5718               946.3141               952.5850
 Red. masses --      2.4371                 2.3760                 2.9802
 Frc consts  --      1.1568                 1.2536                 1.5933
 IR Inten    --      2.2464                17.9444                28.1320

                     19                     20                     21
                      A                      A                      A
 Frequencies --    985.8359              1045.8095              1047.0092
 Red. masses --      1.6350                 1.8820                 2.8004
 Frc consts  --      0.9362                 1.2128                 1.8087
 IR Inten    --      6.0717                15.3709                 8.5187

                     22                     23                     24
                      A                      A                      A
 Frequencies --   1076.6481              1102.5140              1114.8466
 Red. masses --      2.2823                 2.4668                 1.8989
 Frc consts  --      1.5587                 1.7667                 1.3905
 IR Inten    --     23.6753                 2.7348                 4.2316

                     25                     26                     27
                      A                      A                      A
 Frequencies --   1141.6420              1180.4430              1206.2305
 Red. masses --      1.9451                 2.1207                 1.5097
 Frc consts  --      1.4936                 1.7411                 1.2942
 IR Inten    --     26.1848                63.7674                12.7643

                     28                     29                     30
                      A                      A                      A
 Frequencies --   1230.4275              1237.6427              1254.6215
 Red. masses --      1.2095                 1.2559                 1.4711
 Frc consts  --      1.0789                 1.1334                 1.3643
 IR Inten    --      4.5824                 0.6904                 1.5042

                     31                     32                     33
                      A                      A                      A
 Frequencies --   1269.7540              1292.4025              1322.1441
 Red. masses --      1.4980                 1.3313                 1.6105
 Frc consts  --      1.4230                 1.3101                 1.6587
 IR Inten    --     49.0168                 2.0204                 7.9849

                     34                     35                     36
                      A                      A                      A
 Frequencies --   1354.7659              1388.0661              1427.1999
 Red. masses --      1.4100                 1.2271                 1.3293
 Frc consts  --      1.5248                 1.3930                 1.5953
 IR Inten    --      4.4656                18.2212                 4.6841

                     37                     38                     39
                      A                      A                      A
 Frequencies --   1467.8217              1474.7919              1483.5505
 Red. masses --      1.1298                 1.1659                 1.1695
 Frc consts  --      1.4342                 1.4940                 1.5166
 IR Inten    --      3.1297                 6.5246                 1.1194

                     40                     41                     42
                      A                      A                      A
 Frequencies --   1509.7441              1528.1818              2937.3716
 Red. masses --      1.1026                 3.6569                 1.0814
 Frc consts  --      1.4807                 5.0317                 5.4971
 IR Inten    --      1.7178                 6.3301                55.9295

                     43                     44                     45
                      A                      A                      A
 Frequencies --   3027.0014              3034.6262              3064.9718
 Red. masses --      1.0610                 1.0595                 1.1020
 Frc consts  --      5.7278                 5.7485                 6.0996
 IR Inten    --     17.0639                58.6321                25.6234

                     46                     47                     48
                      A                      A                      A
 Frequencies --   3074.6826              3078.3881              3078.8349
 Red. masses --      1.0595                 1.0589                 1.1049
 Frc consts  --      5.9015                 5.9124                 6.1707
 IR Inten    --     22.5490                32.5965                37.8078

                     49                     50                     51
                      A                      A                      A
 Frequencies --   3135.2184              3139.3683              3147.2096
 Red. masses --      1.1082                 1.0906                 1.1082
 Frc consts  --      6.4182                 6.3328                 6.4672
 IR Inten    --      8.8145                29.2895                25.9137

 - Thermochemistry -
 -------------------
 Temperature   298.150 Kelvin.  Pressure   1.00000 Atm.
 Atom     1 has atomic number  6 and mass  12.00000

 Molecular mass:   126.06808 amu.
 Principal axes and moments of inertia in atomic units:
                           1         2         3
     Eigenvalues --   624.69776 994.657721361.63236
           X            0.99995  -0.01004  -0.00294
           Y            0.01010   0.99972   0.02130
           Z            0.00272  -0.02133   0.99977
 This molecule is an asymmetric top.
 Rotational symmetry number  1.
 Warning -- assumption of classical behavior for rotation
           may cause significant error
 Rotational temperatures (Kelvin)      0.13865     0.08708     0.06361
 Rotational constants (GHZ):           2.88898     1.81443     1.32542
 Zero-point vibrational energy     422146.6 (Joules/Mol)
                                  100.89546 (Kcal/Mol)
 Warning -- explicit consideration of   8 degrees of freedom as
           vibrations may cause significant error
 Vibrational temperatures:    159.88   260.14   378.48   397.88   508.77
          (Kelvin)            610.96   638.67   831.56   914.98   948.91
                             1006.28  1085.71  1144.81  1237.34  1272.41
                             1291.40  1361.53  1370.56  1418.40  1504.68
                             1506.41  1549.05  1586.27  1604.01  1642.57
                             1698.39  1735.49  1770.31  1780.69  1805.12
                             1826.89  1859.48  1902.27  1949.20  1997.12
                             2053.42  2111.87  2121.89  2134.50  2172.18
                             2198.71  4226.22  4355.17  4366.14  4409.81
                             4423.78  4429.11  4429.75  4510.87  4516.85
                             4528.13

 Zero-point correction=                           0.160787 (Hartree/Particle)
 Thermal correction to Energy=                    0.168106
 Thermal correction to Enthalpy=                  0.169051
 Thermal correction to Gibbs Free Energy=         0.129227
 Sum of electronic and zero-point Energies=           -422.984348
 Sum of electronic and thermal Energies=              -422.977028
 Sum of electronic and thermal Enthalpies=            -422.976084
 Sum of electronic and thermal Free Energies=         -423.015908

                     E (Thermal)             CV                S
                      KCal/Mol        Cal/Mol-Kelvin    Cal/Mol-Kelvin
 Total                  105.488             29.470             83.816
 Electronic               0.000              0.000              0.000
 Translational            0.889              2.981             40.409
 Rotational               0.889              2.981             28.228
 Vibrational            103.711             23.508             15.180
 Vibration     1          0.607              1.940              3.249
 Vibration     2          0.630              1.866              2.320
 Vibration     3          0.670              1.741              1.641
 Vibration     4          0.678              1.717              1.555
 Vibration     5          0.730              1.568              1.150
 Vibration     6          0.787              1.417              0.876
 Vibration     7          0.803              1.374              0.814
 Vibration     8          0.934              1.079              0.489

 Optimization completed.
    -- Stationary point found.
 Normal termination of Gaussian 09 at Mon Jan 27 13:47:05 2020.
