 Gaussian 09, Revision D.01,
 Gaussian 09:  ES64L-G09RevD.01 24-Apr-2013

 -----------------------------
 # b3lyp 6-31G(2df,p) opt Freq
 -----------------------------

 -----
 titel
 -----
 Symbolic Z-matrix:
 Charge =  0 Multiplicity = 1

 SCF Done:  E(RB3LYP) =  -423.164428386     A.U. after   13 cycles
 Optimization completed.
    -- Stationary point found.
 Normal termination of Gaussian 09 at Mon Jan 27 11:24:43 2020.

 ----------------------------------------------------------------------
 #N Geom=AllCheck Guess=TCheck SCRF=Check GenChk RB3LYP/6-31G(2df,p) Fr
 eq
 ----------------------------------------------------------------------

 Structure from the checkpoint file:  "/scratch/puck/g09_e0911e6d-9f00-4cda-97e9-65b949d169b6/Gau-61529.chk"
 -----
 titel
 -----
 Charge =  0 Multiplicity = 1

                         Standard orientation:
 ---------------------------------------------------------------------
 Center     Atomic      Atomic             Coordinates (Angstroms)
 Number     Number       Type             X           Y           Z
 ---------------------------------------------------------------------
      1          6           0       -2.848711    0.144029    0.142950
      2          6           0       -1.943299   -1.083678   -0.082623
      3          6           0       -0.861790   -0.041297   -0.435378
      4          8           0       -1.766345    1.053545   -0.158643
      5          6           0        0.372306    0.022386    0.464813
      6          8           0        1.196293   -1.117844    0.211972
      7          6           0        2.513311   -0.707214   -0.155399
      8          6           0        2.464492    0.794850   -0.167800
      9          6           0        1.255334    1.209006    0.191860
     10          1           0       -3.679657    0.254677   -0.564588
     11          1           0       -3.230423    0.287753    1.160726
     12          1           0       -1.725690   -1.676203    0.807802
     13          1           0       -2.238650   -1.750308   -0.893124
     14          1           0       -0.539538   -0.044415   -1.484936
     15          1           0        0.028606    0.005541    1.513228
     16          1           0        3.244253   -1.097797    0.570796
     17          1           0        2.774916   -1.132467   -1.136551
     18          1           0        3.314361    1.411757   -0.431286
     19          1           0        0.902385    2.227378    0.280764
 ---------------------------------------------------------------------

 SCF Done:  E(RB3LYP) =  -423.164428386     A.U. after    1 cycles

 The electronic state is 1-A.
 Alpha  occ. eigenvalues --  -19.13602 -19.12970 -10.23128 -10.23054 -10.22900
 Alpha  occ. eigenvalues --  -10.22882 -10.18802 -10.18503 -10.18427  -1.03886
 Alpha  occ. eigenvalues --   -1.02857  -0.78791  -0.76162  -0.73313  -0.67386
 Alpha  occ. eigenvalues --   -0.59752  -0.56447  -0.54995  -0.51225  -0.48861
 Alpha  occ. eigenvalues --   -0.47975  -0.45632  -0.43923  -0.41860  -0.40254
 Alpha  occ. eigenvalues --   -0.38849  -0.37426  -0.36668  -0.32652  -0.31629
 Alpha  occ. eigenvalues --   -0.30186  -0.27722  -0.25557  -0.22804
 Alpha virt. eigenvalues --    0.01431   0.08308   0.09999   0.11389   0.11788
 Alpha virt. eigenvalues --    0.13488   0.13971   0.15105   0.15683   0.17274
 Alpha virt. eigenvalues --    0.17431   0.17966   0.19179   0.20187   0.22285

 Mulliken charges:
               1
     1  C   -0.060655
     2  C   -0.295024
     3  C    0.148975
     4  O   -0.299077
     5  C    0.064737
     6  O   -0.281181
     7  C   -0.114935
     8  C   -0.096168
     9  C   -0.095636
    10  H    0.102429
    11  H    0.103892
    12  H    0.117682
    13  H    0.112258
    14  H    0.074209
    15  H    0.077755
    16  H    0.105146
    17  H    0.106971
    18  H    0.106969
    19  H    0.121653
 Sum of Mulliken charges =   0.00000

 Dipole moment (field-independent basis, Debye):
    X=              0.3713    Y=             -0.2710    Z=             -0.1063  Tot=              0.4718
 Quadrupole moment (field-independent basis, Debye-Ang):
   XX=            -46.0626   YY=            -55.8937   ZZ=            -52.4420
   XY=              4.0380   XZ=             -1.5828   YZ=              0.9656

  Exact polarizability: 102.931  -2.870  69.302  -6.480   1.751  60.526
 Approx polarizability: 133.490  -8.644 104.142 -12.205   3.145  93.128

                      1                      2                      3
                      A                      A                      A
 Frequencies --     63.0428                70.3646                96.1304
 Red. masses --      2.4128                 3.6056                 3.0102
 Frc consts  --      0.0057                 0.0105                 0.0164
 IR Inten    --      1.3907                 3.9246                 0.5302

                      4                      5                      6
                      A                      A                      A
 Frequencies --    157.1597               288.5429               332.1125
 Red. masses --      3.5770                 3.1320                 3.6769
 Frc consts  --      0.0521                 0.1536                 0.2389
 IR Inten    --      4.7683                 5.7159                 2.0905

                      7                      8                      9
                      A                      A                      A
 Frequencies --    413.0150               488.5835               714.0643
 Red. masses --      3.8706                 2.7845                 1.3235
 Frc consts  --      0.3890                 0.3916                 0.3976
 IR Inten    --      0.6564                 0.1112                23.5744

                     10                     11                     12
                      A                      A                      A
 Frequencies --    766.6959               777.5658               815.3469
 Red. masses --      6.1788                 1.1839                 5.7644
 Frc consts  --      2.1399                 0.4217                 2.2578
 IR Inten    --      7.8980                 4.1477                 3.5206

                     13                     14                     15
                      A                      A                      A
 Frequencies --    833.1273               888.8075               931.4395
 Red. masses --      2.9958                 1.9390                 3.3193
 Frc consts  --      1.2252                 0.9025                 1.6967
 IR Inten    --      5.0661                 8.4206                24.4953

                     16                     17                     18
                      A                      A                      A
 Frequencies --    935.2222               958.3009               964.5530
 Red. masses --      2.1733                 2.6660                 1.2672
 Frc consts  --      1.1200                 1.4425                 0.6946
 IR Inten    --      1.7898                 1.9217                 0.9553

                     19                     20                     21
                      A                      A                      A
 Frequencies --    984.3235              1030.1299              1043.2112
 Red. masses --      3.0906                 5.4946                 2.8925
 Frc consts  --      1.7643                 3.4353                 1.8547
 IR Inten    --     20.6622                96.4401                41.2714

                     22                     23                     24
                      A                      A                      A
 Frequencies --   1047.8590              1091.5627              1111.8862
 Red. masses --      1.8559                 2.2004                 6.4541
 Frc consts  --      1.2007                 1.5447                 4.7012
 IR Inten    --     17.5335                 0.6765               134.4844

                     25                     26                     27
                      A                      A                      A
 Frequencies --   1117.5443              1154.9909              1170.0405
 Red. masses --      1.3141                 1.7518                 1.3752
 Frc consts  --      0.9670                 1.3769                 1.1093
 IR Inten    --      3.5775                 1.4611                 1.1869

                     28                     29                     30
                      A                      A                      A
 Frequencies --   1197.6444              1214.1614              1257.3254
 Red. masses --      1.1178                 1.2485                 1.4991
 Frc consts  --      0.9446                 1.0844                 1.3963
 IR Inten    --      0.4135                 1.0911                 4.5551

                     31                     32                     33
                      A                      A                      A
 Frequencies --   1269.1624              1293.7621              1309.5393
 Red. masses --      1.2114                 1.2935                 1.2467
 Frc consts  --      1.1497                 1.2756                 1.2596
 IR Inten    --      1.4880                12.0733                 9.5285

                     34                     35                     36
                      A                      A                      A
 Frequencies --   1350.1557              1361.4827              1382.6572
 Red. masses --      1.6069                 1.4780                 1.5229
 Frc consts  --      1.7259                 1.6142                 1.7154
 IR Inten    --      4.2561                 2.5407                 3.3784

                     37                     38                     39
                      A                      A                      A
 Frequencies --   1402.5702              1491.6166              1521.6602
 Red. masses --      1.5571                 1.1043                 1.0854
 Frc consts  --      1.8047                 1.4476                 1.4807
 IR Inten    --      0.3118                 4.3825                 2.2669

                     40                     41                     42
                      A                      A                      A
 Frequencies --   1531.1610              1688.8230              2953.7795
 Red. masses --      1.1101                 6.5189                 1.0811
 Frc consts  --      1.5334                10.9544                 5.5573
 IR Inten    --      1.3580                 0.7345                53.8454

                     43                     44                     45
                      A                      A                      A
 Frequencies --   2973.7414              2993.7834              3015.1022
 Red. masses --      1.0607                 1.1012                 1.0631
 Frc consts  --      5.5265                 5.8151                 5.6940
 IR Inten    --     86.8334                43.6702               127.5070

                     46                     47                     48
                      A                      A                      A
 Frequencies --   3022.2248              3056.8150              3084.7722
 Red. masses --      1.0786                 1.1110                 1.0601
 Frc consts  --      5.8044                 6.1163                 5.9436
 IR Inten    --     27.0522                37.0627                20.7056

                     49                     50                     51
                      A                      A                      A
 Frequencies --   3140.1667              3211.2207              3241.1969
 Red. masses --      1.1083                 1.0874                 1.1046
 Frc consts  --      6.4391                 6.6067                 6.8371
 IR Inten    --     22.5078                 3.9536                 4.8833

 - Thermochemistry -
 -------------------
 Temperature   298.150 Kelvin.  Pressure   1.00000 Atm.
 Atom     1 has atomic number  6 and mass  12.00000

 Molecular mass:   126.06808 amu.
 Principal axes and moments of inertia in atomic units:
                           1         2         3
     Eigenvalues --   413.059481690.642711982.84865
           X            0.99989   0.01383  -0.00593
           Y           -0.01375   0.99981   0.01359
           Z            0.00612  -0.01350   0.99989
 This molecule is an asymmetric top.
 Rotational symmetry number  1.
 Rotational temperatures (Kelvin)      0.20969     0.05123     0.04368
 Rotational constants (GHZ):           4.36920     1.06749     0.91018
 Zero-point vibrational energy     419949.9 (Joules/Mol)
                                  100.37044 (Kcal/Mol)
 Warning -- explicit consideration of   8 degrees of freedom as
           vibrations may cause significant error
 Vibrational temperatures:     90.70   101.24   138.31   226.12   415.15
          (Kelvin)            477.84   594.24   702.96  1027.38  1103.10
                             1118.74  1173.10  1198.68  1278.79  1340.13
                             1345.57  1378.78  1387.77  1416.22  1482.13
                             1500.95  1507.63  1570.51  1599.75  1607.89
                             1661.77  1683.43  1723.14  1746.91  1809.01
                             1826.04  1861.43  1884.13  1942.57  1958.87
                             1989.33  2017.98  2146.10  2189.33  2203.00
                             2429.84  4249.82  4278.55  4307.38  4338.05
                             4348.30  4398.07  4438.29  4517.99  4620.22
                             4663.35

 Zero-point correction=                           0.159950 (Hartree/Particle)
 Thermal correction to Energy=                    0.168140
 Thermal correction to Enthalpy=                  0.169084
 Thermal correction to Gibbs Free Energy=         0.125965
 Sum of electronic and zero-point Energies=           -423.004478
 Sum of electronic and thermal Energies=              -422.996289
 Sum of electronic and thermal Enthalpies=            -422.995345
 Sum of electronic and thermal Free Energies=         -423.038464

                     E (Thermal)             CV                S
                      KCal/Mol        Cal/Mol-Kelvin    Cal/Mol-Kelvin
 Total                  105.509             29.896             90.752
 Electronic               0.000              0.000              0.000
 Translational            0.889              2.981             40.409
 Rotational               0.889              2.981             28.717
 Vibrational            103.732             23.934             21.626
 Vibration     1          0.597              1.972              4.360
 Vibration     2          0.598              1.968              4.143
 Vibration     3          0.603              1.952              3.531
 Vibration     4          0.621              1.895              2.584
 Vibration     5          0.685              1.695              1.482
 Vibration     6          0.714              1.611              1.250
 Vibration     7          0.777              1.442              0.916
 Vibration     8          0.844              1.275              0.687

 Normal termination of Gaussian 09 at Mon Jan 27 13:15:32 2020.
