 Gaussian 09, Revision D.01,
 Gaussian 09:  ES64L-G09RevD.01 24-Apr-2013

 -----------------------------
 # b3lyp 6-31G(2df,p) opt Freq
 -----------------------------

 -----
 titel
 -----
 Symbolic Z-matrix:
 Charge =  0 Multiplicity = 1

 SCF Done:  E(RB3LYP) =  -423.168095199     A.U. after   12 cycles
 Optimization completed.
    -- Stationary point found.
 Normal termination of Gaussian 09 at Mon Jan 27 22:03:12 2020.

 ----------------------------------------------------------------------
 #N Geom=AllCheck Guess=TCheck SCRF=Check GenChk RB3LYP/6-31G(2df,p) Fr
 eq
 ----------------------------------------------------------------------

 Structure from the checkpoint file:  "/scratch/puck/g09_38289d4d-f8f2-4d75-a99a-802cf286ed9c/Gau-72827.chk"
 -----
 titel
 -----
 Charge =  0 Multiplicity = 1

                         Standard orientation:
 ---------------------------------------------------------------------
 Center     Atomic      Atomic             Coordinates (Angstroms)
 Number     Number       Type             X           Y           Z
 ---------------------------------------------------------------------
      1          8           0       -1.744813   -1.752237    0.385236
      2          6           0       -1.284076   -0.449727    0.591454
      3          6           0       -1.282611    0.450965   -0.591938
      4          8           0       -1.741618    1.754160   -0.386329
      5          6           0        0.043492   -0.000478    0.000674
      6          6           0        0.938376   -0.989761   -0.759406
      7          6           0        2.331056   -0.527622   -0.406909
      8          6           0        2.331427    0.526954    0.405799
      9          6           0        0.939063    0.987682    0.761379
     10          1           0       -1.274729   -2.333420    0.992935
     11          1           0       -1.569903    0.012258    1.537772
     12          1           0       -1.567846   -0.010585   -1.538642
     13          1           0       -1.270236    2.334550   -0.993785
     14          1           0        0.757443   -2.029400   -0.453753
     15          1           0        0.761214   -0.968438   -1.843662
     16          1           0        3.216892   -1.022010   -0.790647
     17          1           0        3.217616    1.021975    0.787904
     18          1           0        0.763804    0.963764    1.845921
     19          1           0        0.756822    2.027835    0.458381
 ---------------------------------------------------------------------

 SCF Done:  E(RB3LYP) =  -423.168095199     A.U. after    1 cycles

 The electronic state is 1-A.
 Alpha  occ. eigenvalues --  -19.14462 -19.14461 -10.22750 -10.22721 -10.18878
 Alpha  occ. eigenvalues --  -10.18469 -10.18467 -10.17915 -10.17825  -1.03477
 Alpha  occ. eigenvalues --   -1.02142  -0.85919  -0.79942  -0.70893  -0.66498
 Alpha  occ. eigenvalues --   -0.59003  -0.55836  -0.54869  -0.51683  -0.51055
 Alpha  occ. eigenvalues --   -0.45870  -0.44985  -0.42866  -0.40154  -0.39759
 Alpha  occ. eigenvalues --   -0.38377  -0.37812  -0.35082  -0.33439  -0.32613
 Alpha  occ. eigenvalues --   -0.29540  -0.26534  -0.24751  -0.23173
 Alpha virt. eigenvalues --    0.02651   0.06881   0.07843   0.11092   0.12212
 Alpha virt. eigenvalues --    0.12609   0.14016   0.15712   0.16749   0.16883
 Alpha virt. eigenvalues --    0.19055   0.19609   0.20699   0.21660   0.23241

 Mulliken charges:
               1
     1  O   -0.418767
     2  C    0.015608
     3  C    0.015683
     4  O   -0.418743
     5  C    0.249311
     6  C   -0.331658
     7  C   -0.063473
     8  C   -0.063449
     9  C   -0.331781
    10  H    0.288472
    11  H    0.091668
    12  H    0.091690
    13  H    0.288486
    14  H    0.096869
    15  H    0.105431
    16  H    0.091146
    17  H    0.091150
    18  H    0.105407
    19  H    0.096951
 Sum of Mulliken charges =   0.00000

 Dipole moment (field-independent basis, Debye):
    X=              1.9413    Y=             -0.0014    Z=              0.0008  Tot=              1.9413
 Quadrupole moment (field-independent basis, Debye-Ang):
   XX=            -59.3888   YY=            -49.6621   ZZ=            -49.3807
   XY=              0.0082   XZ=             -0.0081   YZ=             -3.7640

  Exact polarizability:  82.817   0.009  79.383  -0.005   7.492  67.246
 Approx polarizability: 109.429   0.014 122.767  -0.001  15.007 106.498

                      1                      2                      3
                      A                      A                      A
 Frequencies --     38.2929               163.3987               202.5572
 Red. masses --      2.7837                 3.3963                 4.1849
 Frc consts  --      0.0024                 0.0534                 0.1012
 IR Inten    --      0.1537                 0.4683                 3.3265

                      4                      5                      6
                      A                      A                      A
 Frequencies --    246.0688               289.5175               302.6966
 Red. masses --      2.8657                 1.3728                 2.1825
 Frc consts  --      0.1022                 0.0678                 0.1178
 IR Inten    --     17.0242                46.0587                34.4417

                      7                      8                      9
                      A                      A                      A
 Frequencies --    334.0219               381.9411               382.5573
 Red. masses --      1.3486                 1.9975                 2.1878
 Frc consts  --      0.0887                 0.1717                 0.1886
 IR Inten    --    124.6611                 0.5648                42.7010

                     10                     11                     12
                      A                      A                      A
 Frequencies --    485.8359               556.5955               581.1147
 Red. masses --      6.9433                 2.8680                 4.0632
 Frc consts  --      0.9656                 0.5235                 0.8084
 IR Inten    --      0.8024                 2.2908                14.7937

                     13                     14                     15
                      A                      A                      A
 Frequencies --    702.1874               781.5222               787.5726
 Red. masses --      1.2257                 3.8173                 4.6791
 Frc consts  --      0.3561                 1.3737                 1.7100
 IR Inten    --     25.7008                 0.0257                 2.3912

                     16                     17                     18
                      A                      A                      A
 Frequencies --    834.6672               944.4210               954.3120
 Red. masses --      4.0743                 1.7129                 1.8878
 Frc consts  --      1.6724                 0.9001                 1.0129
 IR Inten    --     10.5411                 1.5410                 4.6291

                     19                     20                     21
                      A                      A                      A
 Frequencies --    977.1451               978.5364              1004.8548
 Red. masses --      1.4244                 2.4975                 1.5519
 Frc consts  --      0.8013                 1.4090                 0.9233
 IR Inten    --      0.2373                 0.2039                36.0001

                     22                     23                     24
                      A                      A                      A
 Frequencies --   1008.5287              1042.1889              1054.4358
 Red. masses --      2.1481                 1.7868                 1.4378
 Frc consts  --      1.2873                 1.1435                 0.9419
 IR Inten    --      0.0497                13.0035                 2.9997

                     25                     26                     27
                      A                      A                      A
 Frequencies --   1131.0784              1135.3421              1165.8150
 Red. masses --      1.0885                 6.8876                 1.0870
 Frc consts  --      0.8205                 5.2308                 0.8704
 IR Inten    --      0.1479               120.1092                 2.4406

                     28                     29                     30
                      A                      A                      A
 Frequencies --   1167.8632              1202.2647              1213.4132
 Red. masses --      2.9972                 1.2821                 2.6699
 Frc consts  --      2.4085                 1.0919                 2.3162
 IR Inten    --      6.3686                 4.0427                 5.0888

                     31                     32                     33
                      A                      A                      A
 Frequencies --   1253.9382              1276.2960              1293.2096
 Red. masses --      1.6328                 1.2144                 1.4497
 Frc consts  --      1.5127                 1.1655                 1.4285
 IR Inten    --      8.5191                83.3341                 5.0537

                     34                     35                     36
                      A                      A                      A
 Frequencies --   1305.1762              1344.9140              1362.7003
 Red. masses --      1.3330                 1.9017                 1.5550
 Frc consts  --      1.3379                 2.0267                 1.7013
 IR Inten    --     77.0844                 2.1826                 5.6381

                     37                     38                     39
                      A                      A                      A
 Frequencies --   1385.3518              1487.9613              1490.7075
 Red. masses --      1.4288                 1.0820                 1.3034
 Frc consts  --      1.6156                 1.4115                 1.7065
 IR Inten    --      2.0948                 1.5231                 7.6649

                     40                     41                     42
                      A                      A                      A
 Frequencies --   1500.3740              1693.4735              3004.6709
 Red. masses --      1.9384                 6.0859                 1.0589
 Frc consts  --      2.5710                10.2833                 5.6323
 IR Inten    --      3.2396                 3.1586                79.6370

                     43                     44                     45
                      A                      A                      A
 Frequencies --   3006.7559              3022.3584              3023.6565
 Red. masses --      1.0595                 1.1002                 1.1024
 Frc consts  --      5.6435                 5.9212                 5.9383
 IR Inten    --      0.0710                 0.2098                49.8475

                     46                     47                     48
                      A                      A                      A
 Frequencies --   3091.3118              3097.1987              3180.1549
 Red. masses --      1.0896                 1.0851                 1.0841
 Frc consts  --      6.1346                 6.1327                 6.4597
 IR Inten    --      3.9183                43.3055                 6.5820

                     49                     50                     51
                      A                      A                      A
 Frequencies --   3205.6694              3800.4737              3801.0449
 Red. masses --      1.1040                 1.0660                 1.0662
 Frc consts  --      6.6842                 9.0719                 9.0763
 IR Inten    --     30.7662                 0.9563                36.5766

 - Thermochemistry -
 -------------------
 Temperature   298.150 Kelvin.  Pressure   1.00000 Atm.
 Atom     1 has atomic number  8 and mass  15.99491

 Molecular mass:   126.06808 amu.
 Principal axes and moments of inertia in atomic units:
                           1         2         3
     Eigenvalues --   724.524241306.618881700.86330
           X            1.00000   0.00002  -0.00001
           Y           -0.00002   0.99976   0.02175
           Z            0.00001  -0.02175   0.99976
 This molecule is an asymmetric top.
 Rotational symmetry number  1.
 Warning -- assumption of classical behavior for rotation
           may cause significant error
 Rotational temperatures (Kelvin)      0.11955     0.06629     0.05092
 Rotational constants (GHZ):           2.49093     1.38123     1.06107
 Zero-point vibrational energy     416767.9 (Joules/Mol)
                                   99.60991 (Kcal/Mol)
 Warning -- explicit consideration of  12 degrees of freedom as
           vibrations may cause significant error
 Vibrational temperatures:     55.09   235.09   291.43   354.04   416.55
          (Kelvin)            435.51   480.58   549.53   550.41   699.01
                              800.82   836.09  1010.29  1124.43  1133.14
                             1200.90  1358.81  1373.04  1405.89  1407.89
                             1445.76  1451.05  1499.48  1517.10  1627.37
                             1633.50  1677.35  1680.29  1729.79  1745.83
                             1804.14  1836.30  1860.64  1877.86  1935.03
                             1960.62  1993.21  2140.84  2144.79  2158.70
                             2436.53  4323.05  4326.05  4348.49  4350.36
                             4447.70  4456.17  4575.53  4612.24  5468.03
                             5468.85

 Zero-point correction=                           0.158738 (Hartree/Particle)
 Thermal correction to Energy=                    0.167430
 Thermal correction to Enthalpy=                  0.168374
 Thermal correction to Gibbs Free Energy=         0.125095
 Sum of electronic and zero-point Energies=           -423.009357
 Sum of electronic and thermal Energies=              -423.000665
 Sum of electronic and thermal Enthalpies=            -422.999721
 Sum of electronic and thermal Free Energies=         -423.043000

                     E (Thermal)             CV                S
                      KCal/Mol        Cal/Mol-Kelvin    Cal/Mol-Kelvin
 Total                  105.064             33.362             91.089
 Electronic               0.000              0.000              0.000
 Translational            0.889              2.981             40.409
 Rotational               0.889              2.981             28.867
 Vibrational            103.286             27.401             21.813
 Vibration     1          0.594              1.982              5.346
 Vibration     2          0.623              1.887              2.510
 Vibration     3          0.639              1.836              2.110
 Vibration     4          0.661              1.769              1.759
 Vibration     5          0.686              1.693              1.477
 Vibration     6          0.694              1.669              1.402
 Vibration     7          0.716              1.608              1.241
 Vibration     8          0.751              1.509              1.031
 Vibration     9          0.752              1.507              1.029
 Vibration    10          0.842              1.281              0.695
 Vibration    11          0.912              1.125              0.531
 Vibration    12          0.938              1.072              0.483

 Normal termination of Gaussian 09 at Mon Jan 27 22:47:32 2020.
