 Gaussian 09, Revision D.01,
 Gaussian 09:  ES64L-G09RevD.01 24-Apr-2013

 -----------------------------
 # b3lyp 6-31G(2df,p) opt Freq
 -----------------------------

 -----
 titel
 -----
 Symbolic Z-matrix:
 Charge =  0 Multiplicity = 1

 SCF Done:  E(RB3LYP) =  -423.229440696     A.U. after   14 cycles
 Optimization completed.
    -- Stationary point found.
 Normal termination of Gaussian 09 at Mon Jan 27 15:35:11 2020.

 ----------------------------------------------------------------------
 #N Geom=AllCheck Guess=TCheck SCRF=Check GenChk RB3LYP/6-31G(2df,p) Fr
 eq
 ----------------------------------------------------------------------

 Structure from the checkpoint file:  "/scratch/puck/g09_6456610c-9f37-499d-a029-785c864753d3/Gau-175589.chk"
 -----
 titel
 -----
 Charge =  0 Multiplicity = 1

                         Standard orientation:
 ---------------------------------------------------------------------
 Center     Atomic      Atomic             Coordinates (Angstroms)
 Number     Number       Type             X           Y           Z
 ---------------------------------------------------------------------
      1          6           0        2.144491    0.821583    0.891810
      2          6           0        1.542704    0.077047   -0.300078
      3          8           0        2.291390   -1.122686   -0.468549
      4          6           0        0.076082   -0.195657   -0.102521
      5          6           0       -0.523423   -1.365993    0.156385
      6          6           0       -2.022774   -1.263660    0.286844
      7          6           0       -2.318679    0.230417    0.052442
      8          6           0       -0.948040    0.878262   -0.189672
      9          8           0       -0.739504    2.050687   -0.411897
     10          1           0        1.619770    1.767701    1.042354
     11          1           0        2.059600    0.214127    1.797695
     12          1           0        3.202053    1.024532    0.704732
     13          1           0        1.645049    0.724286   -1.185672
     14          1           0        1.994291   -1.542510   -1.282500
     15          1           0        0.004532   -2.306849    0.268923
     16          1           0       -2.525767   -1.911952   -0.441055
     17          1           0       -2.353416   -1.609303    1.273892
     18          1           0       -2.962471    0.410782   -0.813476
     19          1           0       -2.800896    0.713185    0.907415
 ---------------------------------------------------------------------

 SCF Done:  E(RB3LYP) =  -423.229440696     A.U. after    1 cycles

 The electronic state is 1-A.
 Alpha  occ. eigenvalues --  -19.13886 -19.12215 -10.26205 -10.23913 -10.20771
 Alpha  occ. eigenvalues --  -10.20300 -10.19281 -10.19100 -10.17149  -1.03201
 Alpha  occ. eigenvalues --   -1.02102  -0.85326  -0.76878  -0.71764  -0.68391
 Alpha  occ. eigenvalues --   -0.61432  -0.57717  -0.52887  -0.50076  -0.48040
 Alpha  occ. eigenvalues --   -0.47463  -0.42873  -0.42370  -0.39874  -0.39290
 Alpha  occ. eigenvalues --   -0.39137  -0.37899  -0.37180  -0.35778  -0.35422
 Alpha  occ. eigenvalues --   -0.33152  -0.28201  -0.26197  -0.23813
 Alpha virt. eigenvalues --   -0.04251   0.05224   0.07657   0.09460   0.12865
 Alpha virt. eigenvalues --    0.13613   0.14348   0.15087   0.16396   0.17266
 Alpha virt. eigenvalues --    0.17662   0.18395   0.19479   0.21771   0.22581

 Mulliken charges:
               1
     1  C   -0.386743
     2  C    0.024756
     3  O   -0.427048
     4  C    0.173673
     5  C   -0.164626
     6  C   -0.267885
     7  C   -0.326330
     8  C    0.332080
     9  O   -0.339515
    10  H    0.142744
    11  H    0.119598
    12  H    0.123309
    13  H    0.086480
    14  H    0.280477
    15  H    0.116183
    16  H    0.119825
    17  H    0.122830
    18  H    0.134451
    19  H    0.135742
 Sum of Mulliken charges =   0.00000

 Dipole moment (field-independent basis, Debye):
    X=             -1.4660    Y=             -2.7087    Z=             -0.2716  Tot=              3.0920
 Quadrupole moment (field-independent basis, Debye-Ang):
   XX=            -53.1206   YY=            -57.5730   ZZ=            -50.1617
   XY=              4.2687   XZ=             -2.1452   YZ=              3.1488

  Exact polarizability:  89.682   6.896  87.917  -1.522  -2.505  58.876
 Approx polarizability: 115.129  12.480 153.034  -3.688  -9.996  90.873

                      1                      2                      3
                      A                      A                      A
 Frequencies --     61.9019                86.5078               151.4734
 Red. masses --      3.6767                 2.1381                 2.8917
 Frc consts  --      0.0083                 0.0094                 0.0391
 IR Inten    --      3.3909                 1.6388                 0.2572

                      4                      5                      6
                      A                      A                      A
 Frequencies --    176.9742               249.1449               276.7092
 Red. masses --      4.0363                 1.1306                 2.2782
 Frc consts  --      0.0745                 0.0413                 0.1028
 IR Inten    --      6.8731                 7.7791                 0.6934

                      7                      8                      9
                      A                      A                      A
 Frequencies --    312.1897               323.5810               400.6220
 Red. masses --      1.4911                 2.2750                 3.6461
 Frc consts  --      0.0856                 0.1403                 0.3448
 IR Inten    --     58.5823                46.9417                 2.1104

                     10                     11                     12
                      A                      A                      A
 Frequencies --    467.4950               557.6672               593.2155
 Red. masses --      2.8061                 4.4941                 3.7214
 Frc consts  --      0.3613                 0.8235                 0.7716
 IR Inten    --      5.8790                12.1444                 4.7164

                     13                     14                     15
                      A                      A                      A
 Frequencies --    649.3749               715.2532               793.9135
 Red. masses --      2.6922                 4.1651                 4.4752
 Frc consts  --      0.6689                 1.2554                 1.6619
 IR Inten    --      1.7506                10.0869                 2.7956

                     16                     17                     18
                      A                      A                      A
 Frequencies --    810.7899               898.9051               906.9802
 Red. masses --      1.3714                 1.9834                 1.7700
 Frc consts  --      0.5312                 0.9442                 0.8578
 IR Inten    --      9.0433                 5.7784                 9.2472

                     19                     20                     21
                      A                      A                      A
 Frequencies --    930.3695               987.0205              1017.2550
 Red. masses --      2.1918                 2.3918                 2.0916
 Frc consts  --      1.1178                 1.3728                 1.2752
 IR Inten    --      3.8181                23.6900                29.6905

                     22                     23                     24
                      A                      A                      A
 Frequencies --   1028.1721              1049.1139              1078.9830
 Red. masses --      1.9562                 2.5713                 1.6001
 Frc consts  --      1.2184                 1.6675                 1.0975
 IR Inten    --      6.6571                50.0403                 1.2812

                     25                     26                     27
                      A                      A                      A
 Frequencies --   1147.7262              1151.7335              1206.3169
 Red. masses --      2.5116                 1.2504                 1.8236
 Frc consts  --      1.9493                 0.9772                 1.5636
 IR Inten    --      9.8991                 0.1018                15.3119

                     28                     29                     30
                      A                      A                      A
 Frequencies --   1231.0672              1262.6314              1288.7805
 Red. masses --      1.1247                 1.8334                 1.3053
 Frc consts  --      1.0043                 1.7221                 1.2774
 IR Inten    --      0.7839                 1.7702                68.3950

                     31                     32                     33
                      A                      A                      A
 Frequencies --   1307.8323              1324.9345              1382.6715
 Red. masses --      1.7700                 1.6717                 1.6044
 Frc consts  --      1.7837                 1.7290                 1.8072
 IR Inten    --     17.6841                 5.3738                68.4068

                     34                     35                     36
                      A                      A                      A
 Frequencies --   1390.5037              1413.5057              1449.1891
 Red. masses --      1.3298                 1.4319                 1.0769
 Frc consts  --      1.5149                 1.6856                 1.3325
 IR Inten    --      8.5521                 8.6803                 2.6443

                     37                     38                     39
                      A                      A                      A
 Frequencies --   1482.6764              1491.7532              1496.6835
 Red. masses --      1.0974                 1.0473                 1.0622
 Frc consts  --      1.4214                 1.3731                 1.4018
 IR Inten    --      7.3110                 5.4363                 3.0976

                     40                     41                     42
                      A                      A                      A
 Frequencies --   1690.4011              1799.4363              2976.7749
 Red. masses --      7.5281                12.7256                 1.0819
 Frc consts  --     12.6740                24.2774                 5.6483
 IR Inten    --     14.2140               235.4032                29.1647

                     43                     44                     45
                      A                      A                      A
 Frequencies --   3030.2253              3047.9036              3054.0541
 Red. masses --      1.0599                 1.0341                 1.1024
 Frc consts  --      5.7342                 5.6598                 6.0581
 IR Inten    --     29.2859                16.9988                11.1337

                     46                     47                     48
                      A                      A                      A
 Frequencies --   3066.1698              3106.0209              3123.9014
 Red. masses --      1.0609                 1.1027                 1.1026
 Frc consts  --      5.8767                 6.2679                 6.3394
 IR Inten    --      9.0266                 7.9311                22.5832

                     49                     50                     51
                      A                      A                      A
 Frequencies --   3139.5247              3196.8193              3813.4727
 Red. masses --      1.1023                 1.0929                 1.0661
 Frc consts  --      6.4014                 6.5807                 9.1345
 IR Inten    --     10.3456                 5.1451                15.0791

 - Thermochemistry -
 -------------------
 Temperature   298.150 Kelvin.  Pressure   1.00000 Atm.
 Atom     1 has atomic number  6 and mass  12.00000

 Molecular mass:   126.06808 amu.
 Principal axes and moments of inertia in atomic units:
                           1         2         3
     Eigenvalues --   701.551141383.671591871.25117
           X            0.99862   0.05228   0.00396
           Y           -0.05234   0.99846   0.01845
           Z           -0.00299  -0.01863   0.99982
 This molecule is an asymmetric top.
 Rotational symmetry number  1.
 Warning -- assumption of classical behavior for rotation
           may cause significant error
 Rotational temperatures (Kelvin)      0.12346     0.06260     0.04629
 Rotational constants (GHZ):           2.57250     1.30431     0.96446
 Zero-point vibrational energy     416278.4 (Joules/Mol)
                                   99.49294 (Kcal/Mol)
 Warning -- explicit consideration of  12 degrees of freedom as
           vibrations may cause significant error
 Vibrational temperatures:     89.06   124.47   217.94   254.63   358.46
          (Kelvin)            398.12   449.17   465.56   576.41   672.62
                              802.36   853.50   934.30  1029.09  1142.26
                             1166.54  1293.32  1304.94  1338.59  1420.10
                             1463.60  1479.31  1509.44  1552.41  1651.32
                             1657.09  1735.62  1771.23  1816.64  1854.27
                             1881.68  1906.28  1989.35  2000.62  2033.72
                             2085.06  2133.24  2146.30  2153.39  2432.11
                             2588.98  4282.91  4359.81  4385.25  4394.10
                             4411.53  4468.87  4494.59  4517.07  4599.50
                             5486.73

 Zero-point correction=                           0.158552 (Hartree/Particle)
 Thermal correction to Energy=                    0.167716
 Thermal correction to Enthalpy=                  0.168660
 Thermal correction to Gibbs Free Energy=         0.124254
 Sum of electronic and zero-point Energies=           -423.070889
 Sum of electronic and thermal Energies=              -423.061724
 Sum of electronic and thermal Enthalpies=            -423.060780
 Sum of electronic and thermal Free Energies=         -423.105186

                     E (Thermal)             CV                S
                      KCal/Mol        Cal/Mol-Kelvin    Cal/Mol-Kelvin
 Total                  105.244             33.759             93.460
 Electronic               0.000              0.000              0.000
 Translational            0.889              2.981             40.409
 Rotational               0.889              2.981             28.987
 Vibrational            103.466             27.798             24.065
 Vibration     1          0.597              1.972              4.396
 Vibration     2          0.601              1.959              3.738
 Vibration     3          0.619              1.901              2.654
 Vibration     4          0.628              1.871              2.360
 Vibration     5          0.662              1.764              1.737
 Vibration     6          0.678              1.717              1.554
 Vibration     7          0.701              1.650              1.351
 Vibration     8          0.708              1.628              1.292
 Vibration     9          0.766              1.469              0.960
 Vibration    10          0.825              1.322              0.745
 Vibration    11          0.913              1.123              0.529
 Vibration    12          0.951              1.046              0.461

 Normal termination of Gaussian 09 at Mon Jan 27 16:15:28 2020.
