 Gaussian 09, Revision D.01,
 Gaussian 09:  ES64L-G09RevD.01 24-Apr-2013

 -----------------------------
 # b3lyp 6-31G(2df,p) opt Freq
 -----------------------------

 -----
 titel
 -----
 Symbolic Z-matrix:
 Charge =  0 Multiplicity = 1

 SCF Done:  E(RB3LYP) =  -423.100318925     A.U. after   13 cycles
 Optimization completed.
    -- Stationary point found.
 Normal termination of Gaussian 09 at Mon Jan 27 23:07:47 2020.

 ----------------------------------------------------------------------
 #N Geom=AllCheck Guess=TCheck SCRF=Check GenChk RB3LYP/6-31G(2df,p) Fr
 eq
 ----------------------------------------------------------------------

 Structure from the checkpoint file:  "/scratch/puck/g09_2bc610a3-9d5b-44aa-8f7b-510ba36296e9/Gau-56577.chk"
 -----
 titel
 -----
 Charge =  0 Multiplicity = 1

                         Standard orientation:
 ---------------------------------------------------------------------
 Center     Atomic      Atomic             Coordinates (Angstroms)
 Number     Number       Type             X           Y           Z
 ---------------------------------------------------------------------
      1          6           0       -0.684337    2.079316   -0.044712
      2          6           0       -0.832734    0.679116   -0.615844
      3          6           0       -1.471013   -0.445030    0.227194
      4          6           0       -0.813201   -1.471783   -0.795275
      5          6           0        0.299863   -0.405177   -0.627573
      6          8           0        1.663461   -0.080916   -0.948742
      7          6           0        1.867675    0.288430    0.466524
      8          6           0        0.631109   -0.602501    0.821105
      9          8           0       -0.646298   -0.421041    1.439997
     10          1           0       -1.618754    2.637685   -0.167896
     11          1           0       -0.445939    2.056380    1.020467
     12          1           0        0.098655    2.635091   -0.571379
     13          1           0       -1.284282    0.716949   -1.611830
     14          1           0       -2.523978   -0.492261    0.494740
     15          1           0       -0.594487   -2.483645   -0.451257
     16          1           0       -1.363685   -1.478910   -1.737224
     17          1           0        2.832877   -0.071324    0.830253
     18          1           0        1.774721    1.365525    0.615801
     19          1           0        1.003399   -1.604059    1.059772
 ---------------------------------------------------------------------

 SCF Done:  E(RB3LYP) =  -423.100318925     A.U. after    1 cycles

 The electronic state is 1-A.
 Alpha  occ. eigenvalues --  -19.14724 -19.14652 -10.24803 -10.24082 -10.24012
 Alpha  occ. eigenvalues --  -10.22948 -10.19929 -10.19250 -10.17547  -1.06193
 Alpha  occ. eigenvalues --   -1.02408  -0.84228  -0.73931  -0.72905  -0.66546
 Alpha  occ. eigenvalues --   -0.63279  -0.57973  -0.54675  -0.50860  -0.48153
 Alpha  occ. eigenvalues --   -0.46892  -0.44976  -0.43609  -0.41244  -0.39352
 Alpha  occ. eigenvalues --   -0.38286  -0.36419  -0.36051  -0.35268  -0.33866
 Alpha  occ. eigenvalues --   -0.32883  -0.27668  -0.26144  -0.23999
 Alpha virt. eigenvalues --    0.05602   0.09604   0.09989   0.10851   0.11236
 Alpha virt. eigenvalues --    0.12927   0.14467   0.15114   0.16229   0.17014
 Alpha virt. eigenvalues --    0.17718   0.18109   0.19504   0.20495   0.20884

 Mulliken charges:
               1
     1  C   -0.447123
     2  C   -0.016240
     3  C    0.074348
     4  C   -0.332878
     5  C    0.377803
     6  O   -0.357961
     7  C   -0.175648
     8  C    0.078061
     9  O   -0.298134
    10  H    0.113588
    11  H    0.135401
    12  H    0.126186
    13  H    0.079188
    14  H    0.093767
    15  H    0.109621
    16  H    0.110955
    17  H    0.116184
    18  H    0.120648
    19  H    0.092235
 Sum of Mulliken charges =   0.00000

 Dipole moment (field-independent basis, Debye):
    X=             -0.8083    Y=              0.0502    Z=             -0.1138  Tot=              0.8178
 Quadrupole moment (field-independent basis, Debye-Ang):
   XX=            -51.5725   YY=            -51.3627   ZZ=            -57.2786
   XY=              0.3586   XZ=              5.8696   YZ=              0.4426

  Exact polarizability:  81.844   1.552  77.202   6.142   0.646  64.057
 Approx polarizability: 119.910   2.792 107.133   3.399   0.107 105.443

                      1                      2                      3
                      A                      A                      A
 Frequencies --    203.7563               234.8003               267.7340
 Red. masses --      2.7074                 2.1515                 1.3414
 Frc consts  --      0.0662                 0.0699                 0.0567
 IR Inten    --      0.5470                 0.1968                 1.3240

                      4                      5                      6
                      A                      A                      A
 Frequencies --    293.4839               387.1975               435.2934
 Red. masses --      2.7909                 3.4862                 3.3139
 Frc consts  --      0.1416                 0.3079                 0.3700
 IR Inten    --      7.6595                 8.2541                 3.8892

                      7                      8                      9
                      A                      A                      A
 Frequencies --    470.9733               516.4867               625.8178
 Red. masses --      2.8742                 2.7822                 3.8476
 Frc consts  --      0.3756                 0.4373                 0.8879
 IR Inten    --      4.2050                 1.1272                 4.3124

                     10                     11                     12
                      A                      A                      A
 Frequencies --    676.5449               723.8559               769.6084
 Red. masses --      3.8014                 3.6432                 2.8248
 Frc consts  --      1.0251                 1.1247                 0.9858
 IR Inten    --      1.6022                 0.0843                 2.1743

                     13                     14                     15
                      A                      A                      A
 Frequencies --    776.9345               820.3420               858.3831
 Red. masses --      2.9345                 2.7114                 5.1905
 Frc consts  --      1.0436                 1.0751                 2.2533
 IR Inten    --      4.1423                19.6912                25.3976

                     16                     17                     18
                      A                      A                      A
 Frequencies --    910.2266               916.6882               978.8109
 Red. masses --      2.9984                 3.5201                 1.7197
 Frc consts  --      1.4636                 1.7428                 0.9707
 IR Inten    --     31.1601                52.6609                 8.9554

                     19                     20                     21
                      A                      A                      A
 Frequencies --    995.5720              1010.7297              1040.4740
 Red. masses --      2.2344                 1.2759                 1.9544
 Frc consts  --      1.3048                 0.7680                 1.2466
 IR Inten    --      6.6949                 3.5485                 1.2273

                     22                     23                     24
                      A                      A                      A
 Frequencies --   1060.2097              1081.7616              1100.7570
 Red. masses --      1.6954                 1.8337                 2.5503
 Frc consts  --      1.1228                 1.2643                 1.8207
 IR Inten    --     21.7201                 4.4041                 1.1775

                     25                     26                     27
                      A                      A                      A
 Frequencies --   1114.0375              1143.6879              1165.2699
 Red. masses --      1.7025                 1.2351                 1.8684
 Frc consts  --      1.2449                 0.9519                 1.4947
 IR Inten    --     17.6638                 2.6319                 1.2887

                     28                     29                     30
                      A                      A                      A
 Frequencies --   1183.8887              1205.8733              1219.2930
 Red. masses --      2.0788                 1.9888                 2.1149
 Frc consts  --      1.7167                 1.7039                 1.8525
 IR Inten    --     33.8910                 8.0656                60.8041

                     31                     32                     33
                      A                      A                      A
 Frequencies --   1232.1240              1283.3277              1298.9653
 Red. masses --      1.6597                 2.0689                 1.3908
 Frc consts  --      1.4845                 2.0076                 1.3827
 IR Inten    --      2.9771                11.8744                 3.3745

                     34                     35                     36
                      A                      A                      A
 Frequencies --   1326.7892              1398.1927              1406.5629
 Red. masses --      1.9315                 1.2231                 1.2003
 Frc consts  --      2.0033                 1.4087                 1.3991
 IR Inten    --      0.7470                 1.9525                 5.9982

                     37                     38                     39
                      A                      A                      A
 Frequencies --   1416.3481              1492.0673              1501.2900
 Red. masses --      1.4712                 1.0653                 1.1186
 Frc consts  --      1.7389                 1.3973                 1.4854
 IR Inten    --      2.8987                 2.2311                 4.4876

                     40                     41                     42
                      A                      A                      A
 Frequencies --   1506.0396              1516.1681              3035.8828
 Red. masses --      1.0830                 1.0671                 1.0385
 Frc consts  --      1.4473                 1.4453                 5.6394
 IR Inten    --      5.6586                 1.8430                26.2935

                     43                     44                     45
                      A                      A                      A
 Frequencies --   3043.8235              3061.7017              3068.0634
 Red. masses --      1.0851                 1.0817                 1.0553
 Frc consts  --      5.9235                 5.9744                 5.8530
 IR Inten    --     29.8394                14.5746                49.5837

                     46                     47                     48
                      A                      A                      A
 Frequencies --   3081.1125              3092.5714              3130.5572
 Red. masses --      1.0576                 1.1002                 1.1066
 Frc consts  --      5.9157                 6.1997                 6.3898
 IR Inten    --     26.2465                27.6455                26.4840

                     49                     50                     51
                      A                      A                      A
 Frequencies --   3136.4610              3149.1708              3157.7089
 Red. masses --      1.1051                 1.1117                 1.0919
 Frc consts  --      6.4054                 6.4958                 6.4145
 IR Inten    --     12.6177                25.3791                28.1964

 - Thermochemistry -
 -------------------
 Temperature   298.150 Kelvin.  Pressure   1.00000 Atm.
 Atom     1 has atomic number  6 and mass  12.00000

 Molecular mass:   126.06808 amu.
 Principal axes and moments of inertia in atomic units:
                           1         2         3
     Eigenvalues --   759.63039 919.090081073.21254
           X            0.99601  -0.01806   0.08735
           Y            0.01519   0.99933   0.03340
           Z           -0.08789  -0.03194   0.99562
 This molecule is an asymmetric top.
 Rotational symmetry number  1.
 Warning -- assumption of classical behavior for rotation
           may cause significant error
 Rotational temperatures (Kelvin)      0.11402     0.09424     0.08071
 Rotational constants (GHZ):           2.37581     1.96362     1.68163
 Zero-point vibrational energy     421823.7 (Joules/Mol)
                                  100.81829 (Kcal/Mol)
 Warning -- explicit consideration of   8 degrees of freedom as
           vibrations may cause significant error
 Vibrational temperatures:    293.16   337.82   385.21   422.26   557.09
          (Kelvin)            626.29   677.62   743.11   900.41   973.40
                             1041.47  1107.29  1117.83  1180.29  1235.02
                             1309.61  1318.91  1408.29  1432.40  1454.21
                             1497.01  1525.40  1556.41  1583.74  1602.85
                             1645.51  1676.56  1703.35  1734.98  1754.29
                             1772.75  1846.42  1868.92  1908.95  2011.68
                             2023.73  2037.81  2146.75  2160.02  2166.85
                             2181.42  4367.95  4379.38  4405.10  4414.25
                             4433.03  4449.51  4504.17  4512.66  4530.95
                             4543.23

 Zero-point correction=                           0.160664 (Hartree/Particle)
 Thermal correction to Energy=                    0.167719
 Thermal correction to Enthalpy=                  0.168663
 Thermal correction to Gibbs Free Energy=         0.129752
 Sum of electronic and zero-point Energies=           -422.939655
 Sum of electronic and thermal Energies=              -422.932600
 Sum of electronic and thermal Enthalpies=            -422.931656
 Sum of electronic and thermal Free Energies=         -422.970567

                     E (Thermal)             CV                S
                      KCal/Mol        Cal/Mol-Kelvin    Cal/Mol-Kelvin
 Total                  105.245             29.548             81.895
 Electronic               0.000              0.000              0.000
 Translational            0.889              2.981             40.409
 Rotational               0.889              2.981             28.107
 Vibrational            103.468             23.586             13.380
 Vibration     1          0.639              1.835              2.099
 Vibration     2          0.655              1.788              1.842
 Vibration     3          0.673              1.732              1.611
 Vibration     4          0.688              1.686              1.454
 Vibration     5          0.756              1.498              1.011
 Vibration     6          0.796              1.393              0.842
 Vibration     7          0.828              1.314              0.735
 Vibration     8          0.872              1.213              0.618

 Optimization completed.
    -- Stationary point found.
 Normal termination of Gaussian 09 at Mon Jan 27 23:58:23 2020.
