 Gaussian 09, Revision D.01,
 Gaussian 09:  ES64L-G09RevD.01 24-Apr-2013

 -----------------------------
 # b3lyp 6-31G(2df,p) opt Freq
 -----------------------------

 -----
 titel
 -----
 Symbolic Z-matrix:
 Charge =  0 Multiplicity = 1

 SCF Done:  E(RB3LYP) =  -423.150232331     A.U. after   13 cycles
 Optimization completed.
    -- Stationary point found.
 Normal termination of Gaussian 09 at Mon Jan 27 22:47:37 2020.

 ----------------------------------------------------------------------
 #N Geom=AllCheck Guess=TCheck SCRF=Check GenChk RB3LYP/6-31G(2df,p) Fr
 eq
 ----------------------------------------------------------------------

 Structure from the checkpoint file:  "/scratch/puck/g09_445a8623-df5f-4b0b-9364-ae85e2447100/Gau-101002.chk"
 -----
 titel
 -----
 Charge =  0 Multiplicity = 1

                         Standard orientation:
 ---------------------------------------------------------------------
 Center     Atomic      Atomic             Coordinates (Angstroms)
 Number     Number       Type             X           Y           Z
 ---------------------------------------------------------------------
      1          6           0        2.606693   -0.150780   -0.073058
      2          6           0        1.186923   -0.600460    0.248187
      3          6           0        0.398546    0.400877    1.097581
      4          6           0       -1.099403    0.117136    0.930764
      5          8           0       -1.511108   -1.165961    0.510256
      6          6           0       -0.996124   -1.344232   -0.820654
      7          6           0        0.162164   -0.353325   -0.914119
      8          6           0       -0.379559    0.880496   -0.119734
      9          8           0       -0.608428    2.161102   -0.574891
     10          1           0        3.069289   -0.811515   -0.814545
     11          1           0        2.614373    0.868413   -0.475097
     12          1           0        3.236160   -0.160366    0.823519
     13          1           0        1.187119   -1.629136    0.628298
     14          1           0        0.771629    0.966399    1.945147
     15          1           0       -1.785728    0.601572    1.615428
     16          1           0       -0.692850   -2.390768   -0.927074
     17          1           0       -1.778678   -1.126258   -1.565684
     18          1           0        0.574865   -0.194328   -1.910300
     19          1           0       -1.515330    2.216593   -0.896410
 ---------------------------------------------------------------------

 SCF Done:  E(RB3LYP) =  -423.150232331     A.U. after    1 cycles

 The electronic state is 1-A.
 Alpha  occ. eigenvalues --  -19.15454 -19.13711 -10.23683 -10.22996 -10.22666
 Alpha  occ. eigenvalues --  -10.19082 -10.18981 -10.18642 -10.17398  -1.04810
 Alpha  occ. eigenvalues --   -1.02917  -0.87920  -0.76639  -0.72692  -0.62861
 Alpha  occ. eigenvalues --   -0.62201  -0.59044  -0.54335  -0.52529  -0.47608
 Alpha  occ. eigenvalues --   -0.46701  -0.45200  -0.41886  -0.41313  -0.39926
 Alpha  occ. eigenvalues --   -0.39267  -0.36862  -0.36076  -0.33467  -0.32757
 Alpha  occ. eigenvalues --   -0.30637  -0.28120  -0.25846  -0.22071
 Alpha virt. eigenvalues --    0.07097   0.09979   0.10882   0.11261   0.13041
 Alpha virt. eigenvalues --    0.13829   0.14715   0.15039   0.15901   0.17341
 Alpha virt. eigenvalues --    0.18118   0.18577   0.19286   0.20724   0.22291

 Mulliken charges:
               1
     1  C   -0.414339
     2  C    0.031167
     3  C   -0.150456
     4  C    0.005742
     5  O   -0.270745
     6  C   -0.097157
     7  C   -0.150720
     8  C    0.342671
     9  O   -0.466346
    10  H    0.111449
    11  H    0.124047
    12  H    0.114488
    13  H    0.072611
    14  H    0.085290
    15  H    0.104363
    16  H    0.108616
    17  H    0.084813
    18  H    0.076934
    19  H    0.287572
 Sum of Mulliken charges =   0.00000

 Dipole moment (field-independent basis, Debye):
    X=             -0.1604    Y=              0.2307    Z=             -0.9384  Tot=              0.9796
 Quadrupole moment (field-independent basis, Debye-Ang):
   XX=            -51.5310   YY=            -56.1104   ZZ=            -51.0620
   XY=             -5.2192   XZ=              2.5351   YZ=              2.4244

  Exact polarizability:  80.451  -1.781  71.831   2.679   3.480  70.415
 Approx polarizability: 109.550  -0.932 107.726   3.245   0.792 108.357

                      1                      2                      3
                      A                      A                      A
 Frequencies --    138.3557               223.8805               244.5143
 Red. masses --      3.4806                 1.8156                 1.0776
 Frc consts  --      0.0393                 0.0536                 0.0380
 IR Inten    --      1.8242                48.3215                 0.8271

                      4                      5                      6
                      A                      A                      A
 Frequencies --    255.0616               279.5737               304.1355
 Red. masses --      2.2555                 2.4382                 1.9939
 Frc consts  --      0.0865                 0.1123                 0.1087
 IR Inten    --      1.3187                 1.1536                46.4658

                      7                      8                      9
                      A                      A                      A
 Frequencies --    367.3000               412.9693               547.6057
 Red. masses --      3.4284                 2.7730                 3.5164
 Frc consts  --      0.2725                 0.2786                 0.6213
 IR Inten    --      4.1086                 2.5659                 2.2244

                     10                     11                     12
                      A                      A                      A
 Frequencies --    594.7703               668.9784               736.8296
 Red. masses --      4.0946                 3.6840                 4.4425
 Frc consts  --      0.8534                 0.9714                 1.4210
 IR Inten    --     10.3182                 1.8906                 8.8627

                     13                     14                     15
                      A                      A                      A
 Frequencies --    759.9813               820.4866               870.4431
 Red. masses --      3.5490                 2.6617                 2.5100
 Frc consts  --      1.2077                 1.0557                 1.1205
 IR Inten    --      3.3997                 2.6528                12.9903

                     16                     17                     18
                      A                      A                      A
 Frequencies --    911.4794               929.8165               946.0993
 Red. masses --      2.2866                 2.7377                 1.6942
 Frc consts  --      1.1193                 1.3945                 0.8935
 IR Inten    --     29.5079                 6.6437                 3.2380

                     19                     20                     21
                      A                      A                      A
 Frequencies --    978.2506               983.0003              1024.4671
 Red. masses --      1.7338                 1.5410                 1.5598
 Frc consts  --      0.9776                 0.8773                 0.9645
 IR Inten    --      9.8025                 8.3377                 3.5792

                     22                     23                     24
                      A                      A                      A
 Frequencies --   1045.4685              1058.6935              1080.6072
 Red. masses --      2.0093                 2.4424                 2.9266
 Frc consts  --      1.2939                 1.6129                 2.0135
 IR Inten    --     29.1735                 7.2694                36.4296

                     25                     26                     27
                      A                      A                      A
 Frequencies --   1106.2931              1140.2704              1159.7671
 Red. masses --      1.5688                 2.1705                 1.8428
 Frc consts  --      1.1312                 1.6628                 1.4604
 IR Inten    --     14.9613                 4.9491                10.8562

                     28                     29                     30
                      A                      A                      A
 Frequencies --   1178.7539              1218.5397              1229.2737
 Red. masses --      2.2030                 1.9501                 1.4778
 Frc consts  --      1.8035                 1.7061                 1.3157
 IR Inten    --     19.7789                51.6564                11.8488

                     31                     32                     33
                      A                      A                      A
 Frequencies --   1265.5365              1282.1390              1295.8792
 Red. masses --      1.4128                 1.5937                 1.5437
 Frc consts  --      1.3332                 1.5436                 1.5273
 IR Inten    --     16.5231                 5.7399                29.8011

                     34                     35                     36
                      A                      A                      A
 Frequencies --   1318.4376              1365.9665              1378.0685
 Red. masses --      1.4236                 1.4689                 1.6439
 Frc consts  --      1.4580                 1.6148                 1.8394
 IR Inten    --     36.2218                 4.2505                10.9814

                     37                     38                     39
                      A                      A                      A
 Frequencies --   1411.7959              1476.5770              1494.9839
 Red. masses --      1.2464                 3.4987                 1.0603
 Frc consts  --      1.4637                 4.4944                 1.3963
 IR Inten    --      2.3694                43.1199                 7.3754

                     40                     41                     42
                      A                      A                      A
 Frequencies --   1499.6503              1513.8464              2970.2814
 Red. masses --      1.0536                 1.1016                 1.0704
 Frc consts  --      1.3960                 1.4874                 5.5640
 IR Inten    --      2.8635                 0.4759                90.6558

                     43                     44                     45
                      A                      A                      A
 Frequencies --   3025.0032              3031.3312              3072.6713
 Red. masses --      1.0356                 1.0829                 1.0934
 Frc consts  --      5.5832                 5.8630                 6.0821
 IR Inten    --     28.6281                27.0403                34.0937

                     46                     47                     48
                      A                      A                      A
 Frequencies --   3092.8181              3097.3824              3120.2226
 Red. masses --      1.1014                 1.1014                 1.0895
 Frc consts  --      6.2074                 6.2254                 6.2496
 IR Inten    --     23.0959                35.3222                21.1316

                     49                     50                     51
                      A                      A                      A
 Frequencies --   3167.6192              3191.7179              3790.3089
 Red. masses --      1.0920                 1.0923                 1.0662
 Frc consts  --      6.4556                 6.5559                 9.0250
 IR Inten    --     12.5441                15.3069                21.4168

 - Thermochemistry -
 -------------------
 Temperature   298.150 Kelvin.  Pressure   1.00000 Atm.
 Atom     1 has atomic number  6 and mass  12.00000

 Molecular mass:   126.06808 amu.
 Principal axes and moments of inertia in atomic units:
                           1         2         3
     Eigenvalues --   794.55561 996.462941295.55651
           X            0.99855  -0.05231   0.01240
           Y            0.05162   0.99738   0.05072
           Z           -0.01502  -0.05000   0.99864
 This molecule is an asymmetric top.
 Rotational symmetry number  1.
 Warning -- assumption of classical behavior for rotation
           may cause significant error
 Rotational temperatures (Kelvin)      0.10901     0.08692     0.06685
 Rotational constants (GHZ):           2.27138     1.81115     1.39302
 Zero-point vibrational energy     419158.9 (Joules/Mol)
                                  100.18139 (Kcal/Mol)
 Warning -- explicit consideration of  10 degrees of freedom as
           vibrations may cause significant error
 Vibrational temperatures:    199.06   322.11   351.80   366.98   402.24
          (Kelvin)            437.58   528.46   594.17   787.88   855.74
                              962.51  1060.13  1093.44  1180.50  1252.37
                             1311.41  1337.80  1361.22  1407.48  1414.32
                             1473.98  1504.19  1523.22  1554.75  1591.71
                             1640.59  1668.64  1695.96  1753.20  1768.65
                             1820.82  1844.71  1864.48  1896.94  1965.32
                             1982.73  2031.26  2124.46  2150.95  2157.66
                             2178.08  4273.57  4352.30  4361.40  4420.88
                             4449.87  4456.44  4489.30  4557.49  4592.16
                             5453.40

 Zero-point correction=                           0.159649 (Hartree/Particle)
 Thermal correction to Energy=                    0.167496
 Thermal correction to Enthalpy=                  0.168441
 Thermal correction to Gibbs Free Energy=         0.127781
 Sum of electronic and zero-point Energies=           -422.990583
 Sum of electronic and thermal Energies=              -422.982736
 Sum of electronic and thermal Enthalpies=            -422.981792
 Sum of electronic and thermal Free Energies=         -423.022451

                     E (Thermal)             CV                S
                      KCal/Mol        Cal/Mol-Kelvin    Cal/Mol-Kelvin
 Total                  105.106             31.366             85.575
 Electronic               0.000              0.000              0.000
 Translational            0.889              2.981             40.409
 Rotational               0.889              2.981             28.419
 Vibrational            103.328             25.404             16.747
 Vibration     1          0.614              1.915              2.826
 Vibration     2          0.649              1.805              1.927
 Vibration     3          0.660              1.772              1.770
 Vibration     4          0.665              1.754              1.695
 Vibration     5          0.680              1.711              1.536
 Vibration     6          0.695              1.666              1.394
 Vibration     7          0.740              1.539              1.091
 Vibration     8          0.777              1.442              0.916
 Vibration     9          0.903              1.145              0.549
 Vibration    10          0.952              1.043              0.459

 Optimization completed.
    -- Stationary point found.
 Normal termination of Gaussian 09 at Mon Jan 27 23:33:28 2020.
