 Gaussian 09, Revision D.01,
 Gaussian 09:  ES64L-G09RevD.01 24-Apr-2013

 -----------------------------
 # b3lyp 6-31G(2df,p) opt Freq
 -----------------------------

 -----
 titel
 -----
 Symbolic Z-matrix:
 Charge =  0 Multiplicity = 1

 SCF Done:  E(RB3LYP) =  -423.132905715     A.U. after   13 cycles
 Optimization completed.
    -- Stationary point found.
 Normal termination of Gaussian 09 at Mon Jan 27 18:36:17 2020.

 ----------------------------------------------------------------------
 #N Geom=AllCheck Guess=TCheck SCRF=Check GenChk RB3LYP/6-31G(2df,p) Fr
 eq
 ----------------------------------------------------------------------

 Structure from the checkpoint file:  "/scratch/puck/g09_1de5c59c-49fc-4e59-92bc-6e82947e1b8a/Gau-43141.chk"
 -----
 titel
 -----
 Charge =  0 Multiplicity = 1

                         Standard orientation:
 ---------------------------------------------------------------------
 Center     Atomic      Atomic             Coordinates (Angstroms)
 Number     Number       Type             X           Y           Z
 ---------------------------------------------------------------------
      1          6           0       -1.299536   -1.543394   -0.864937
      2          6           0       -0.790911   -0.475828    0.061507
      3          6           0       -1.733498    0.714660    0.453362
      4          6           0       -0.748696    1.729300   -0.232178
      5          6           0        0.275397    0.610809   -0.252707
      6          8           0        1.383135    0.413374   -1.114741
      7          6           0        2.104521   -0.290203   -0.057186
      8          6           0        0.991259    0.023578    0.971113
      9          8           0       -0.002054   -0.998345    1.172388
     10          1           0       -1.845888   -1.101889   -1.704347
     11          1           0       -0.471281   -2.136440   -1.262816
     12          1           0       -1.980256   -2.217111   -0.332251
     13          1           0       -2.735649    0.677018    0.022621
     14          1           0       -1.810835    0.834039    1.535090
     15          1           0       -1.081300    1.990094   -1.241556
     16          1           0       -0.493759    2.647078    0.303350
     17          1           0        2.234350   -1.355053   -0.274663
     18          1           0        3.075295    0.180881    0.131750
     19          1           0        1.269450    0.547623    1.887796
 ---------------------------------------------------------------------

 SCF Done:  E(RB3LYP) =  -423.132905715     A.U. after    1 cycles

 The electronic state is 1-A.
 Alpha  occ. eigenvalues --  -19.14132 -19.13516 -10.23587 -10.23425 -10.23390
 Alpha  occ. eigenvalues --  -10.23388 -10.19081 -10.18818 -10.17926  -1.06645
 Alpha  occ. eigenvalues --   -1.01546  -0.83124  -0.74359  -0.71210  -0.66758
 Alpha  occ. eigenvalues --   -0.63095  -0.59437  -0.51427  -0.50446  -0.49027
 Alpha  occ. eigenvalues --   -0.47349  -0.44349  -0.42292  -0.41055  -0.40855
 Alpha  occ. eigenvalues --   -0.38816  -0.37799  -0.35874  -0.34731  -0.33926
 Alpha  occ. eigenvalues --   -0.31399  -0.28216  -0.25526  -0.22786
 Alpha virt. eigenvalues --    0.05603   0.09076   0.10089   0.11558   0.11807
 Alpha virt. eigenvalues --    0.13054   0.13881   0.14875   0.16134   0.17573
 Alpha virt. eigenvalues --    0.17715   0.18105   0.19574   0.20417   0.21467

 Mulliken charges:
               1
     1  C   -0.476657
     2  C    0.378496
     3  C   -0.285885
     4  C   -0.340841
     5  C    0.390549
     6  O   -0.338516
     7  C   -0.117382
     8  C   -0.005603
     9  O   -0.347851
    10  H    0.121543
    11  H    0.129302
    12  H    0.129742
    13  H    0.108240
    14  H    0.117490
    15  H    0.118590
    16  H    0.105541
    17  H    0.115441
    18  H    0.109954
    19  H    0.087845
 Sum of Mulliken charges =   0.00000

 Dipole moment (field-independent basis, Debye):
    X=             -0.4347    Y=              0.6849    Z=              0.3161  Tot=              0.8706
 Quadrupole moment (field-independent basis, Debye-Ang):
   XX=            -49.3333   YY=            -53.3904   ZZ=            -56.0488
   XY=             -1.0418   XZ=              3.7861   YZ=              3.4188

  Exact polarizability:  85.211  -1.616  73.218   2.811   2.329  65.215
 Approx polarizability: 115.015  -1.011 104.380   2.155  -1.949 102.138

                      1                      2                      3
                      A                      A                      A
 Frequencies --    132.3689               175.1083               188.6420
 Red. masses --      2.7425                 1.6924                 1.4060
 Frc consts  --      0.0283                 0.0306                 0.0295
 IR Inten    --      1.9383                 1.4760                 0.6079

                      4                      5                      6
                      A                      A                      A
 Frequencies --    230.5836               330.5028               352.0787
 Red. masses --      2.2701                 2.2193                 2.6646
 Frc consts  --      0.0711                 0.1428                 0.1946
 IR Inten    --      3.4469                 0.6679                 2.4214

                      7                      8                      9
                      A                      A                      A
 Frequencies --    414.8282               480.6347               552.0037
 Red. masses --      3.9863                 3.1506                 3.5603
 Frc consts  --      0.4042                 0.4288                 0.6392
 IR Inten    --      7.7942                 0.7794                 3.5320

                     10                     11                     12
                      A                      A                      A
 Frequencies --    614.5957               683.4174               759.5668
 Red. masses --      3.7204                 2.5481                 1.6126
 Frc consts  --      0.8280                 0.7012                 0.5482
 IR Inten    --      1.4264                 3.7364                 3.0851

                     13                     14                     15
                      A                      A                      A
 Frequencies --    818.9201               836.3064               862.2366
 Red. masses --      3.2976                 2.3132                 2.3812
 Frc consts  --      1.3029                 0.9532                 1.0430
 IR Inten    --      5.0581                 9.2458                20.1310

                     16                     17                     18
                      A                      A                      A
 Frequencies --    870.7665               901.8285               929.7472
 Red. masses --      2.2264                 2.5746                 2.2179
 Frc consts  --      0.9946                 1.2337                 1.1296
 IR Inten    --      7.1171                13.2324                 1.5611

                     19                     20                     21
                      A                      A                      A
 Frequencies --    971.1868               974.2421              1014.6695
 Red. masses --      6.3357                 1.5918                 3.1463
 Frc consts  --      3.5209                 0.8902                 1.9085
 IR Inten    --     87.2028                 0.0850                12.1192

                     22                     23                     24
                      A                      A                      A
 Frequencies --   1066.6413              1103.4262              1121.5867
 Red. masses --      2.2757                 2.9388                 2.0689
 Frc consts  --      1.5255                 2.1081                 1.5334
 IR Inten    --     29.0057                17.8085                26.1505

                     25                     26                     27
                      A                      A                      A
 Frequencies --   1155.1594              1160.7675              1179.3576
 Red. masses --      1.3751                 1.5700                 2.1009
 Frc consts  --      1.0811                 1.2463                 1.7216
 IR Inten    --      4.0027                 4.3672                36.7633

                     28                     29                     30
                      A                      A                      A
 Frequencies --   1192.8653              1198.4126              1232.0775
 Red. masses --      1.8551                 1.4688                 1.4567
 Frc consts  --      1.5552                 1.2429                 1.3028
 IR Inten    --     22.3805                 3.0715                24.1931

                     31                     32                     33
                      A                      A                      A
 Frequencies --   1261.3217              1297.5356              1329.2005
 Red. masses --      1.5920                 2.2842                 2.0995
 Frc consts  --      1.4923                 2.2658                 2.1855
 IR Inten    --      7.6022                20.9719                18.3240

                     34                     35                     36
                      A                      A                      A
 Frequencies --   1332.7948              1361.4832              1410.3409
 Red. masses --      1.9039                 2.1678                 1.3830
 Frc consts  --      1.9926                 2.3675                 1.6207
 IR Inten    --     16.3982                 1.9703                 9.1824

                     37                     38                     39
                      A                      A                      A
 Frequencies --   1469.4007              1478.5854              1486.7277
 Red. masses --      1.0842                 1.0563                 1.0526
 Frc consts  --      1.3793                 1.3606                 1.3708
 IR Inten    --      3.5310                 2.1311                 3.8739

                     40                     41                     42
                      A                      A                      A
 Frequencies --   1490.8782              1502.7564              3032.9191
 Red. masses --      1.1298                 1.1287                 1.0493
 Frc consts  --      1.4796                 1.5018                 5.6867
 IR Inten    --      4.6467                 3.5190                49.0587

                     43                     44                     45
                      A                      A                      A
 Frequencies --   3033.6476              3056.3632              3077.4906
 Red. masses --      1.0421                 1.0581                 1.0593
 Frc consts  --      5.6506                 5.8238                 5.9108
 IR Inten    --     24.3764                29.3530                23.8562

                     46                     47                     48
                      A                      A                      A
 Frequencies --   3086.6638              3096.8091              3101.1204
 Red. masses --      1.0960                 1.1047                 1.0999
 Frc consts  --      6.1522                 6.2418                 6.2320
 IR Inten    --     16.6084                52.3922                12.0857

                     49                     50                     51
                      A                      A                      A
 Frequencies --   3106.3265              3116.2215              3139.6825
 Red. masses --      1.1077                 1.1014                 1.1088
 Frc consts  --      6.2975                 6.3017                 6.4400
 IR Inten    --     16.0963                17.8406                19.8608

 - Thermochemistry -
 -------------------
 Temperature   298.150 Kelvin.  Pressure   1.00000 Atm.
 Atom     1 has atomic number  6 and mass  12.00000

 Molecular mass:   126.06808 amu.
 Principal axes and moments of inertia in atomic units:
                           1         2         3
     Eigenvalues --   717.471341001.984931166.62046
           X            0.99903  -0.02285   0.03752
           Y            0.01750   0.99041   0.13708
           Z           -0.04029  -0.13629   0.98985
 This molecule is an asymmetric top.
 Rotational symmetry number  1.
 Warning -- assumption of classical behavior for rotation
           may cause significant error
 Rotational temperatures (Kelvin)      0.12072     0.08644     0.07424
 Rotational constants (GHZ):           2.51542     1.80117     1.54698
 Zero-point vibrational energy     417334.0 (Joules/Mol)
                                   99.74522 (Kcal/Mol)
 Warning -- explicit consideration of  10 degrees of freedom as
           vibrations may cause significant error
 Vibrational temperatures:    190.45   251.94   271.41   331.76   475.52
          (Kelvin)            506.56   596.84   691.53   794.21   884.27
                              983.28  1092.85  1178.24  1203.26  1240.56
                             1252.84  1297.53  1337.70  1397.32  1401.72
                             1459.88  1534.66  1587.58  1613.71  1662.01
                             1670.08  1696.83  1716.26  1724.25  1772.68
                             1814.76  1866.86  1912.42  1917.59  1958.87
                             2029.16  2114.14  2127.35  2139.07  2145.04
                             2162.13  4363.69  4364.74  4397.42  4427.82
                             4441.02  4455.61  4461.81  4469.31  4483.54
                             4517.30

 Zero-point correction=                           0.158954 (Hartree/Particle)
 Thermal correction to Energy=                    0.166734
 Thermal correction to Enthalpy=                  0.167678
 Thermal correction to Gibbs Free Energy=         0.127047
 Sum of electronic and zero-point Energies=           -422.973952
 Sum of electronic and thermal Energies=              -422.966172
 Sum of electronic and thermal Enthalpies=            -422.965228
 Sum of electronic and thermal Free Energies=         -423.005858

                     E (Thermal)             CV                S
                      KCal/Mol        Cal/Mol-Kelvin    Cal/Mol-Kelvin
 Total                  104.627             30.821             85.514
 Electronic               0.000              0.000              0.000
 Translational            0.889              2.981             40.409
 Rotational               0.889              2.981             28.219
 Vibrational            102.850             24.860             16.887
 Vibration     1          0.612              1.921              2.911
 Vibration     2          0.627              1.873              2.380
 Vibration     3          0.633              1.855              2.241
 Vibration     4          0.652              1.794              1.874
 Vibration     5          0.713              1.615              1.258
 Vibration     6          0.729              1.571              1.157
 Vibration     7          0.778              1.438              0.910
 Vibration     8          0.837              1.293              0.708
 Vibration     9          0.907              1.135              0.540
 Vibration    10          0.974              1.001              0.425

 Optimization completed.
    -- Stationary point found.
 Normal termination of Gaussian 09 at Mon Jan 27 19:31:17 2020.
