 Gaussian 09, Revision D.01,
 Gaussian 09:  ES64L-G09RevD.01 24-Apr-2013

 -----------------------------
 # b3lyp 6-31G(2df,p) opt Freq
 -----------------------------

 -----
 titel
 -----
 Symbolic Z-matrix:
 Charge =  0 Multiplicity = 1

 SCF Done:  E(RB3LYP) =  -423.131531108     A.U. after   14 cycles
 Optimization completed.
    -- Stationary point found.
 Normal termination of Gaussian 09 at Mon Jan 27 18:49:18 2020.

 ----------------------------------------------------------------------
 #N Geom=AllCheck Guess=TCheck SCRF=Check GenChk RB3LYP/6-31G(2df,p) Fr
 eq
 ----------------------------------------------------------------------

 Structure from the checkpoint file:  "/scratch/puck/g09_1272248d-923b-464a-aa99-4dcc07337062/Gau-90750.chk"
 -----
 titel
 -----
 Charge =  0 Multiplicity = 1

                         Standard orientation:
 ---------------------------------------------------------------------
 Center     Atomic      Atomic             Coordinates (Angstroms)
 Number     Number       Type             X           Y           Z
 ---------------------------------------------------------------------
      1          6           0       -2.509003   -0.242419    0.000022
      2          6           0       -1.054107    0.147627   -0.000006
      3          6           0       -0.637224    1.609877   -0.000012
      4          8           0        0.800090    1.515937   -0.000005
      5          6           0        1.036108    0.126926   -0.000002
      6          6           0        2.492136   -0.228484    0.000025
      7          6           0       -0.014525   -0.604150   -0.900230
      8          8           0       -0.013495   -1.761448   -0.000023
      9          6           0       -0.014536   -0.604144    0.900213
     10          1           0       -3.025679    0.146082    0.884608
     11          1           0       -3.025932    0.146835   -0.884083
     12          1           0       -2.595923   -1.332301   -0.000405
     13          1           0       -0.976379    2.153932   -0.890595
     14          1           0       -0.976383    2.153963    0.890550
     15          1           0        2.594613   -1.316013   -0.000322
     16          1           0        2.989054    0.179436   -0.885237
     17          1           0        2.988898    0.178824    0.885658
     18          1           0       -0.029053   -0.789028   -1.975452
     19          1           0       -0.029074   -0.789039    1.975433
 ---------------------------------------------------------------------

 SCF Done:  E(RB3LYP) =  -423.131531108     A.U. after    1 cycles

 The electronic state is 1-A.
 Alpha  occ. eigenvalues --  -19.14249 -19.13708 -10.24409 -10.23964 -10.23961
 Alpha  occ. eigenvalues --  -10.23053 -10.20620 -10.18264 -10.17762  -1.07591
 Alpha  occ. eigenvalues --   -1.02825  -0.80139  -0.76743  -0.70912  -0.67469
 Alpha  occ. eigenvalues --   -0.65687  -0.56292  -0.53212  -0.51946  -0.47795
 Alpha  occ. eigenvalues --   -0.46759  -0.43323  -0.43274  -0.41162  -0.40646
 Alpha  occ. eigenvalues --   -0.38994  -0.37821  -0.36004  -0.33750  -0.33604
 Alpha  occ. eigenvalues --   -0.33019  -0.30421  -0.24500  -0.23618
 Alpha virt. eigenvalues --    0.07553   0.09388   0.11561   0.11708   0.12601
 Alpha virt. eigenvalues --    0.13044   0.14717   0.15190   0.15242   0.16095
 Alpha virt. eigenvalues --    0.17716   0.18914   0.18962   0.19146   0.21238

 Mulliken charges:
               1
     1  C   -0.508803
     2  C    0.289951
     3  C   -0.151605
     4  O   -0.312597
     5  C    0.460522
     6  C   -0.496510
     7  C   -0.061687
     8  O   -0.319421
     9  C   -0.061662
    10  H    0.119360
    11  H    0.119354
    12  H    0.141882
    13  H    0.105743
    14  H    0.105743
    15  H    0.140929
    16  H    0.127896
    17  H    0.127892
    18  H    0.086506
    19  H    0.086506
 Sum of Mulliken charges =   0.00000

 Dipole moment (field-independent basis, Debye):
    X=             -0.9551    Y=              0.7772    Z=              0.0000  Tot=              1.2314
 Quadrupole moment (field-independent basis, Debye-Ang):
   XX=            -51.2192   YY=            -59.3666   ZZ=            -49.5966
   XY=             -3.0160   XZ=              0.0000   YZ=             -0.0001

  Exact polarizability:  85.477  -3.316  70.940   0.000   0.000  68.306
 Approx polarizability: 109.985  -2.777 110.808   0.000   0.000 108.853

                      1                      2                      3
                      A                      A                      A
 Frequencies --    201.2915               232.3617               247.0967
 Red. masses --      2.3988                 1.0417                 1.0846
 Frc consts  --      0.0573                 0.0331                 0.0390
 IR Inten    --      1.0530                 0.2866                 0.2301

                      4                      5                      6
                      A                      A                      A
 Frequencies --    248.5432               260.2548               299.0317
 Red. masses --      2.5395                 2.3947                 3.3546
 Frc consts  --      0.0924                 0.0956                 0.1767
 IR Inten    --      0.6406                 2.6268                 4.0574

                      7                      8                      9
                      A                      A                      A
 Frequencies --    380.1485               445.6958               516.7138
 Red. masses --      2.2042                 3.2413                 4.5168
 Frc consts  --      0.1877                 0.3794                 0.7105
 IR Inten    --      0.2498                 2.3934                 7.8830

                     10                     11                     12
                      A                      A                      A
 Frequencies --    585.5456               691.8847               716.1585
 Red. masses --      4.1017                 5.5170                 3.2869
 Frc consts  --      0.8286                 1.5560                 0.9932
 IR Inten    --      1.4875                 0.7338                 2.5540

                     13                     14                     15
                      A                      A                      A
 Frequencies --    731.9225               743.7674               809.6713
 Red. masses --      3.7064                 3.1772                 3.4322
 Frc consts  --      1.1699                 1.0355                 1.3257
 IR Inten    --      0.9950                 1.1195                 5.5926

                     16                     17                     18
                      A                      A                      A
 Frequencies --    874.6070               879.8652               929.8391
 Red. masses --      2.4982                 3.8088                 2.0057
 Frc consts  --      1.1259                 1.7373                 1.0217
 IR Inten    --      1.1275                 8.2823                32.3838

                     19                     20                     21
                      A                      A                      A
 Frequencies --    944.5039              1001.5275              1018.2966
 Red. masses --      1.9095                 1.3009                 7.1656
 Frc consts  --      1.0036                 0.7688                 4.3777
 IR Inten    --      3.2596                 2.9518                69.9683

                     22                     23                     24
                      A                      A                      A
 Frequencies --   1055.1936              1096.1498              1103.9020
 Red. masses --      1.5046                 1.7973                 3.4174
 Frc consts  --      0.9871                 1.2724                 2.4536
 IR Inten    --      1.5441                11.7551                 1.5192

                     25                     26                     27
                      A                      A                      A
 Frequencies --   1129.2983              1156.0339              1162.3764
 Red. masses --      1.6859                 1.2934                 1.6818
 Frc consts  --      1.2668                 1.0184                 1.3388
 IR Inten    --      2.8290                 0.9175                 1.5229

                     28                     29                     30
                      A                      A                      A
 Frequencies --   1178.1094              1220.1932              1241.4698
 Red. masses --      2.5009                 1.3618                 2.4539
 Frc consts  --      2.0451                 1.1946                 2.2283
 IR Inten    --     50.4120                 0.0120                 6.9962

                     31                     32                     33
                      A                      A                      A
 Frequencies --   1290.5313              1297.3281              1342.9903
 Red. masses --      2.1914                 2.7671                 2.1389
 Frc consts  --      2.1504                 2.7440                 2.2730
 IR Inten    --      4.1827                41.9640                 9.6805

                     34                     35                     36
                      A                      A                      A
 Frequencies --   1392.2860              1408.7744              1425.2385
 Red. masses --      1.5419                 1.3512                 2.1668
 Frc consts  --      1.7610                 1.5800                 2.5933
 IR Inten    --      3.4752                10.0663                14.7071

                     37                     38                     39
                      A                      A                      A
 Frequencies --   1485.2156              1492.5286              1495.5206
 Red. masses --      1.0467                 1.0556                 1.0598
 Frc consts  --      1.3603                 1.3855                 1.3966
 IR Inten    --      3.6520                 2.9071                 3.1205

                     40                     41                     42
                      A                      A                      A
 Frequencies --   1499.1350              1520.0233              3015.8185
 Red. masses --      1.0471                 1.1017                 1.0559
 Frc consts  --      1.3865                 1.4998                 5.6581
 IR Inten    --      5.8270                 0.6104                53.7119

                     43                     44                     45
                      A                      A                      A
 Frequencies --   3031.9964              3046.4878              3053.8427
 Red. masses --      1.0366                 1.0353                 1.1093
 Frc consts  --      5.6145                 5.6613                 6.0951
 IR Inten    --     39.8844                19.2193                27.5403

                     46                     47                     48
                      A                      A                      A
 Frequencies --   3090.9926              3104.9558              3112.0142
 Red. masses --      1.1007                 1.0891                 1.0948
 Frc consts  --      6.1962                 6.1864                 6.2470
 IR Inten    --     21.4141                78.2858                 0.8580

                     49                     50                     51
                      A                      A                      A
 Frequencies --   3112.3615              3118.6035              3136.5419
 Red. masses --      1.1013                 1.0998                 1.1008
 Frc consts  --      6.2855                 6.3023                 6.3809
 IR Inten    --     12.8811                 8.8985                 7.3937

 - Thermochemistry -
 -------------------
 Temperature   298.150 Kelvin.  Pressure   1.00000 Atm.
 Atom     1 has atomic number  6 and mass  12.00000

 Molecular mass:   126.06808 amu.
 Principal axes and moments of inertia in atomic units:
                           1         2         3
     Eigenvalues --   622.06542 984.024281377.03648
           X            0.99926  -0.03857   0.00000
           Y            0.03857   0.99926   0.00000
           Z            0.00000   0.00000   1.00000
 This molecule is an asymmetric top.
 Rotational symmetry number  1.
 Warning -- assumption of classical behavior for rotation
           may cause significant error
 Rotational temperatures (Kelvin)      0.13924     0.08802     0.06290
 Rotational constants (GHZ):           2.90121     1.83404     1.31060
 Zero-point vibrational energy     416148.8 (Joules/Mol)
                                   99.46194 (Kcal/Mol)
 Warning -- explicit consideration of  10 degrees of freedom as
           vibrations may cause significant error
 Vibrational temperatures:    289.61   334.32   355.52   357.60   374.45
          (Kelvin)            430.24   546.95   641.26   743.44   842.47
                              995.47  1030.39  1053.07  1070.11  1164.94
                             1258.36  1265.93  1337.83  1358.93  1440.97
                             1465.10  1518.19  1577.11  1588.27  1624.81
                             1663.27  1672.40  1695.03  1755.58  1786.20
                             1856.78  1866.56  1932.26  2003.19  2026.91
                             2050.60  2136.89  2147.41  2151.72  2156.92
                             2186.97  4339.08  4362.36  4383.21  4393.79
                             4447.24  4467.33  4477.49  4477.99  4486.97
                             4512.78

 Zero-point correction=                           0.158503 (Hartree/Particle)
 Thermal correction to Energy=                    0.166300
 Thermal correction to Enthalpy=                  0.167244
 Thermal correction to Gibbs Free Energy=         0.126930
 Sum of electronic and zero-point Energies=           -422.973028
 Sum of electronic and thermal Energies=              -422.965231
 Sum of electronic and thermal Enthalpies=            -422.964287
 Sum of electronic and thermal Free Energies=         -423.004601

                     E (Thermal)             CV                S
                      KCal/Mol        Cal/Mol-Kelvin    Cal/Mol-Kelvin
 Total                  104.355             31.509             84.848
 Electronic               0.000              0.000              0.000
 Translational            0.889              2.981             40.409
 Rotational               0.889              2.981             28.224
 Vibrational            102.577             25.547             16.216
 Vibration     1          0.638              1.838              2.121
 Vibration     2          0.653              1.791              1.861
 Vibration     3          0.661              1.768              1.751
 Vibration     4          0.662              1.765              1.741
 Vibration     5          0.668              1.745              1.660
 Vibration     6          0.692              1.676              1.422
 Vibration     7          0.750              1.512              1.039
 Vibration     8          0.805              1.370              0.809
 Vibration     9          0.872              1.213              0.618
 Vibration    10          0.943              1.063              0.475

 Optimization completed.
    -- Stationary point found.
 Normal termination of Gaussian 09 at Mon Jan 27 19:30:43 2020.
