 Gaussian 09, Revision D.01,
 Gaussian 09:  ES64L-G09RevD.01 24-Apr-2013

 -----------------------------
 # b3lyp 6-31G(2df,p) opt Freq
 -----------------------------

 -----
 titel
 -----
 Symbolic Z-matrix:
 Charge =  0 Multiplicity = 1

 SCF Done:  E(RB3LYP) =  -423.118918125     A.U. after   14 cycles
 SCF Done:  E(RB3LYP) =  -423.118917850     A.U. after    7 cycles
 SCF Done:  E(RB3LYP) =  -423.118917861     A.U. after    7 cycles
 SCF Done:  E(RB3LYP) =  -423.118917875     A.U. after    7 cycles
 SCF Done:  E(RB3LYP) =  -423.118918131     A.U. after    7 cycles
 Optimization completed.
    -- Stationary point found.
 Normal termination of Gaussian 09 at Tue Jan 28 08:35:16 2020.

 ----------------------------------------------------------------------
 #N Geom=AllCheck Guess=TCheck SCRF=Check GenChk RB3LYP/6-31G(2df,p) Fr
 eq
 ----------------------------------------------------------------------

 Structure from the checkpoint file:  "/scratch/puck/g09_bca6e337-f9ff-4d26-9579-bc367c626476/Gau-8475.chk"
 -----
 titel
 -----
 Charge =  0 Multiplicity = 1

                         Standard orientation:
 ---------------------------------------------------------------------
 Center     Atomic      Atomic             Coordinates (Angstroms)
 Number     Number       Type             X           Y           Z
 ---------------------------------------------------------------------
      1          8           0        2.977677   -0.960481   -0.460601
      2          6           0        1.803516   -1.153471    0.293504
      3          6           0        0.654596   -0.209156   -0.132290
      4          6           0       -0.623311   -0.479001    0.694137
      5          6           0       -1.809552    0.317581    0.210343
      6          6           0       -3.168844   -0.234457    0.203031
      7          8           0       -2.414568   -0.133784   -1.006259
      8          6           0        1.100582    1.178896   -0.019290
      9          6           0        1.519066    2.300836    0.102388
     10          1           0        3.225449   -0.032560   -0.367498
     11          1           0        1.492717   -2.189244    0.123318
     12          1           0        1.984839   -1.028870    1.373444
     13          1           0        0.429527   -0.417732   -1.185932
     14          1           0       -0.860953   -1.546549    0.627489
     15          1           0       -0.432688   -0.244976    1.748706
     16          1           0       -1.698562    1.400794    0.270252
     17          1           0       -3.338398   -1.248246    0.564712
     18          1           0       -4.026656    0.432425    0.277862
     19          1           0        1.863547    3.301707    0.191583
 ---------------------------------------------------------------------

 SCF Done:  E(RB3LYP) =  -423.118918131     A.U. after    1 cycles

 The electronic state is 1-A.
 Alpha  occ. eigenvalues --  -19.15170 -19.13451 -10.24129 -10.23632 -10.23460
 Alpha  occ. eigenvalues --  -10.21647 -10.20087 -10.19169 -10.18362  -1.07169
 Alpha  occ. eigenvalues --   -1.01924  -0.82508  -0.74628  -0.71227  -0.66337
 Alpha  occ. eigenvalues --   -0.63333  -0.59869  -0.53398  -0.51852  -0.50551
 Alpha  occ. eigenvalues --   -0.48678  -0.46843  -0.44057  -0.42238  -0.39929
 Alpha  occ. eigenvalues --   -0.39418  -0.37280  -0.36542  -0.33495  -0.30748
 Alpha  occ. eigenvalues --   -0.28627  -0.27494  -0.27022  -0.26133
 Alpha virt. eigenvalues --    0.04056   0.04295   0.09139   0.10446   0.10942
 Alpha virt. eigenvalues --    0.11311   0.11854   0.12195   0.12862   0.14149
 Alpha virt. eigenvalues --    0.16017   0.16578   0.18551   0.18883   0.21392

 Mulliken charges:
               1
     1  O   -0.420109
     2  C   -0.065152
     3  C   -0.158380
     4  C   -0.242055
     5  C    0.094994
     6  C   -0.182729
     7  O   -0.236170
     8  C    0.315015
     9  C   -0.484859
    10  H    0.286050
    11  H    0.112640
    12  H    0.090681
    13  H    0.132587
    14  H    0.107752
    15  H    0.111184
    16  H    0.105685
    17  H    0.112645
    18  H    0.116821
    19  H    0.203401
 Sum of Mulliken charges =   0.00000

 Dipole moment (field-independent basis, Debye):
    X=             -0.8886    Y=              0.9492    Z=              2.3537  Tot=              2.6889
 Quadrupole moment (field-independent basis, Debye-Ang):
   XX=            -54.5646   YY=            -49.0138   ZZ=            -56.3439
   XY=              5.6724   XZ=             -2.2182   YZ=             -1.0885

  Exact polarizability:  89.577   9.041  86.959  -1.063  -0.009  57.006
 Approx polarizability: 111.349  17.834 135.361  -0.846   4.435  92.382

                      1                      2                      3
                      A                      A                      A
 Frequencies --     59.1870                68.4415               111.8700
 Red. masses --      4.6145                 4.4011                 3.5409
 Frc consts  --      0.0095                 0.0121                 0.0261
 IR Inten    --      2.0726                 0.5934                 2.9113

                      4                      5                      6
                      A                      A                      A
 Frequencies --    142.3364               163.3427               228.5128
 Red. masses --      3.7052                 2.6431                 3.1437
 Frc consts  --      0.0442                 0.0415                 0.0967
 IR Inten    --      3.4402                 0.5791                 0.3344

                      7                      8                      9
                      A                      A                      A
 Frequencies --    287.5885               336.4916               400.3979
 Red. masses --      3.7054                 2.9969                 1.2120
 Frc consts  --      0.1806                 0.1999                 0.1145
 IR Inten    --      1.2613                 3.4718               110.5324

                     10                     11                     12
                      A                      A                      A
 Frequencies --    430.6427               452.8485               535.1135
 Red. masses --      4.3088                 2.7172                 3.2070
 Frc consts  --      0.4708                 0.3283                 0.5411
 IR Inten    --     14.7989                 9.1234                 1.2110

                     13                     14                     15
                      A                      A                      A
 Frequencies --    617.0628               628.5114               659.5708
 Red. masses --      3.5447                 1.2177                 1.2194
 Frc consts  --      0.7952                 0.2834                 0.3126
 IR Inten    --      6.9462                48.1049                44.2536

                     16                     17                     18
                      A                      A                      A
 Frequencies --    783.1421               801.8627               862.8954
 Red. masses --      3.3088                 2.9559                 1.8979
 Frc consts  --      1.1957                 1.1198                 0.8326
 IR Inten    --      8.0858                 6.8142                22.0665

                     19                     20                     21
                      A                      A                      A
 Frequencies --    914.6637               956.5150              1004.8923
 Red. masses --      1.7735                 3.3119                 2.3382
 Frc consts  --      0.8742                 1.7853                 1.3911
 IR Inten    --      9.2469                18.5134                 2.4756

                     22                     23                     24
                      A                      A                      A
 Frequencies --   1056.9506              1073.2038              1090.2271
 Red. masses --      1.7813                 2.3006                 3.6684
 Frc consts  --      1.1724                 1.5612                 2.5690
 IR Inten    --      8.0210                 1.0617               112.1859

                     25                     26                     27
                      A                      A                      A
 Frequencies --   1111.9249              1132.2845              1160.6703
 Red. masses --      1.8020                 1.9621                 1.3914
 Frc consts  --      1.3127                 1.4821                 1.1044
 IR Inten    --      4.2830                 4.8466                 1.7692

                     28                     29                     30
                      A                      A                      A
 Frequencies --   1172.1912              1212.3316              1232.8671
 Red. masses --      1.3295                 1.2349                 1.2938
 Frc consts  --      1.0763                 1.0694                 1.1587
 IR Inten    --      2.5508                 6.1503                10.0599

                     31                     32                     33
                      A                      A                      A
 Frequencies --   1275.5505              1296.5778              1344.8707
 Red. masses --      1.1909                 1.5440                 1.3993
 Frc consts  --      1.1417                 1.5293                 1.4912
 IR Inten    --      5.3722                 3.4088                 6.7798

                     34                     35                     36
                      A                      A                      A
 Frequencies --   1367.2554              1388.0723              1427.7369
 Red. masses --      1.4668                 1.1930                 1.2498
 Frc consts  --      1.6156                 1.3543                 1.5010
 IR Inten    --     14.7256                 0.3744                66.4081

                     37                     38                     39
                      A                      A                      A
 Frequencies --   1450.2162              1468.4517              1505.6959
 Red. masses --      1.5891                 1.1249                 1.0889
 Frc consts  --      1.9691                 1.4292                 1.4545
 IR Inten    --     13.8352                 5.0840                 0.4346

                     40                     41                     42
                      A                      A                      A
 Frequencies --   1531.3522              2224.0639              2973.5703
 Red. masses --      1.3634                 5.9394                 1.0693
 Frc consts  --      1.8838                17.3097                 5.5706
 IR Inten    --      3.0051                 1.5025                51.2592

                     43                     44                     45
                      A                      A                      A
 Frequencies --   3029.5919              3039.6664              3075.7227
 Red. masses --      1.0644                 1.0759                 1.0968
 Frc consts  --      5.7562                 5.8569                 6.1130
 IR Inten    --      8.5485                16.3634                 6.1515

                     46                     47                     48
                      A                      A                      A
 Frequencies --   3080.9942              3083.3083              3112.1896
 Red. masses --      1.0530                 1.0956                 1.0896
 Frc consts  --      5.8893                 6.1366                 6.2181
 IR Inten    --     24.7497                40.0387                22.2751

                     49                     50                     51
                      A                      A                      A
 Frequencies --   3167.2053              3501.0002              3781.7809
 Red. masses --      1.1191                 1.1611                 1.0655
 Frc consts  --      6.6141                 8.3851                 8.9785
 IR Inten    --     28.2031                70.1245                24.7175

 - Thermochemistry -
 -------------------
 Temperature   298.150 Kelvin.  Pressure   1.00000 Atm.
 Atom     1 has atomic number  8 and mass  15.99491

 Molecular mass:   126.06808 amu.
 Principal axes and moments of inertia in atomic units:
                           1         2         3
     Eigenvalues --   623.882452045.533592419.00563
           X            0.99997   0.00493  -0.00644
           Y           -0.00506   0.99977  -0.02090
           Z            0.00634   0.02094   0.99976
 This molecule is an asymmetric top.
 Rotational symmetry number  1.
 Warning -- assumption of classical behavior for rotation
           may cause significant error
 Rotational temperatures (Kelvin)      0.13883     0.04234     0.03581
 Rotational constants (GHZ):           2.89276     0.88228     0.74607
 Zero-point vibrational energy     411595.6 (Joules/Mol)
                                   98.37371 (Kcal/Mol)
 Warning -- explicit consideration of  13 degrees of freedom as
           vibrations may cause significant error
 Vibrational temperatures:     85.16    98.47   160.96   204.79   235.01
          (Kelvin)            328.78   413.78   484.14   576.08   619.60
                              651.55   769.91   887.81   904.29   948.97
                             1126.77  1153.70  1241.51  1316.00  1376.21
                             1445.81  1520.71  1544.10  1568.59  1599.81
                             1629.10  1669.94  1686.52  1744.27  1773.82
                             1835.23  1865.48  1934.97  1967.17  1997.12
                             2054.19  2086.53  2112.77  2166.36  2203.27
                             3199.93  4278.30  4358.90  4373.40  4425.27
                             4432.86  4436.19  4477.74  4556.90  5037.15
                             5441.13

 Zero-point correction=                           0.156768 (Hartree/Particle)
 Thermal correction to Energy=                    0.166638
 Thermal correction to Enthalpy=                  0.167582
 Thermal correction to Gibbs Free Energy=         0.121163
 Sum of electronic and zero-point Energies=           -422.962150
 Sum of electronic and thermal Energies=              -422.952280
 Sum of electronic and thermal Enthalpies=            -422.951336
 Sum of electronic and thermal Free Energies=         -422.997755

                     E (Thermal)             CV                S
                      KCal/Mol        Cal/Mol-Kelvin    Cal/Mol-Kelvin
 Total                  104.567             35.528             97.697
 Electronic               0.000              0.000              0.000
 Translational            0.889              2.981             40.409
 Rotational               0.889              2.981             29.514
 Vibrational            102.789             29.566             27.775
 Vibration     1          0.597              1.974              4.484
 Vibration     2          0.598              1.969              4.198
 Vibration     3          0.607              1.940              3.236
 Vibration     4          0.616              1.911              2.772
 Vibration     5          0.623              1.887              2.511
 Vibration     6          0.651              1.798              1.891
 Vibration     7          0.685              1.697              1.488
 Vibration     8          0.717              1.603              1.229
 Vibration     9          0.766              1.469              0.961
 Vibration    10          0.792              1.404              0.857
 Vibration    11          0.811              1.355              0.787
 Vibration    12          0.890              1.172              0.576
 Vibration    13          0.977              0.996              0.421

 Optimization completed.
    -- Stationary point found.
 Normal termination of Gaussian 09 at Tue Jan 28 09:14:46 2020.
