 Gaussian 09, Revision D.01,
 Gaussian 09:  ES64L-G09RevD.01 24-Apr-2013

 -----------------------------
 # b3lyp 6-31G(2df,p) opt Freq
 -----------------------------

 -----
 titel
 -----
 Symbolic Z-matrix:
 Charge =  0 Multiplicity = 1

 SCF Done:  E(RB3LYP) =  -423.226377626     A.U. after   14 cycles
 Optimization completed.
    -- Stationary point found.
 Normal termination of Gaussian 09 at Tue Jan 28 13:19:25 2020.

 ----------------------------------------------------------------------
 #N Geom=AllCheck Guess=TCheck SCRF=Check GenChk RB3LYP/6-31G(2df,p) Fr
 eq
 ----------------------------------------------------------------------

 Structure from the checkpoint file:  "/scratch/puck/g09_27b7e026-e73a-4ecf-9145-6244df0fdf4d/Gau-7819.chk"
 -----
 titel
 -----
 Charge =  0 Multiplicity = 1

                         Standard orientation:
 ---------------------------------------------------------------------
 Center     Atomic      Atomic             Coordinates (Angstroms)
 Number     Number       Type             X           Y           Z
 ---------------------------------------------------------------------
      1          6           0        2.712688   -1.128269   -0.228306
      2          6           0        1.353999   -0.573713    0.047084
      3          6           0        0.215852   -1.210416    0.355948
      4          6           0       -0.972685   -0.294415    0.542471
      5          6           0       -2.111042   -0.625613   -0.438235
      6          8           0       -3.212476    0.256847   -0.321096
      7          6           0       -0.382175    1.115946    0.341620
      8          6           0        1.097224    0.893338    0.009465
      9          8           0        1.917791    1.748945   -0.232492
     10          1           0        3.444257   -0.717500    0.476024
     11          1           0        2.731306   -2.218672   -0.159876
     12          1           0        3.052149   -0.831683   -1.226723
     13          1           0        0.118403   -2.288526    0.450717
     14          1           0       -1.374743   -0.414432    1.560091
     15          1           0       -1.749441   -0.515229   -1.466535
     16          1           0       -2.419028   -1.675637   -0.310069
     17          1           0       -3.591540    0.146826    0.557063
     18          1           0       -0.877002    1.662998   -0.466050
     19          1           0       -0.460052    1.744373    1.233780
 ---------------------------------------------------------------------

 SCF Done:  E(RB3LYP) =  -423.226377626     A.U. after    1 cycles

 The electronic state is 1-A.
 Alpha  occ. eigenvalues --  -19.14461 -19.11863 -10.25741 -10.23730 -10.20545
 Alpha  occ. eigenvalues --  -10.20446 -10.19735 -10.18656 -10.18617  -1.02852
 Alpha  occ. eigenvalues --   -1.02582  -0.85699  -0.76950  -0.71136  -0.68933
 Alpha  occ. eigenvalues --   -0.63176  -0.57382  -0.51414  -0.49969  -0.48584
 Alpha  occ. eigenvalues --   -0.46727  -0.44431  -0.42658  -0.41650  -0.39769
 Alpha  occ. eigenvalues --   -0.39236  -0.38253  -0.36904  -0.36367  -0.34671
 Alpha  occ. eigenvalues --   -0.33217  -0.28501  -0.25805  -0.23650
 Alpha virt. eigenvalues --   -0.04092   0.05436   0.06691   0.10345   0.11811
 Alpha virt. eigenvalues --    0.12767   0.12995   0.14439   0.16337   0.16544
 Alpha virt. eigenvalues --    0.17703   0.18452   0.20622   0.21010   0.22899

 Mulliken charges:
               1
     1  C   -0.492296
     2  C    0.206748
     3  C   -0.174256
     4  C   -0.072610
     5  C   -0.066344
     6  O   -0.411647
     7  C   -0.345546
     8  C    0.329275
     9  O   -0.327572
    10  H    0.143963
    11  H    0.119856
    12  H    0.144739
    13  H    0.105097
    14  H    0.076871
    15  H    0.117430
    16  H    0.088634
    17  H    0.283480
    18  H    0.144508
    19  H    0.129669
 Sum of Mulliken charges =   0.00000

 Dipole moment (field-independent basis, Debye):
    X=             -1.5398    Y=             -3.1403    Z=              1.6916  Tot=              3.8851
 Quadrupole moment (field-independent basis, Debye-Ang):
   XX=            -56.5462   YY=            -55.8064   ZZ=            -51.5129
   XY=             -3.7335   XZ=             -4.5056   YZ=              1.3035

  Exact polarizability: 100.483   4.370  80.588  -7.087  -1.422  57.784
 Approx polarizability: 140.552  21.151 128.189 -14.181  -7.986  91.847

                      1                      2                      3
                      A                      A                      A
 Frequencies --     56.8044                94.7490               114.2911
 Red. masses --      3.6561                 1.3539                 1.8405
 Frc consts  --      0.0070                 0.0072                 0.0142
 IR Inten    --      2.0637                 1.1314                 1.5463

                      4                      5                      6
                      A                      A                      A
 Frequencies --    129.2007               250.4287               257.8761
 Red. masses --      3.0722                 2.9215                 3.0333
 Frc consts  --      0.0302                 0.1079                 0.1188
 IR Inten    --      0.3580                 2.4975                 8.9374

                      7                      8                      9
                      A                      A                      A
 Frequencies --    309.3765               328.6384               393.9039
 Red. masses --      1.1718                 3.1421                 3.3811
 Frc consts  --      0.0661                 0.1999                 0.3091
 IR Inten    --    100.6591                 3.8132                 3.2432

                     10                     11                     12
                      A                      A                      A
 Frequencies --    430.1976               518.7705               606.1059
 Red. masses --      2.6361                 2.9244                 5.2760
 Frc consts  --      0.2874                 0.4637                 1.1420
 IR Inten    --     29.6643                 2.9574                 1.2516

                     13                     14                     15
                      A                      A                      A
 Frequencies --    618.8006               701.2932               766.7553
 Red. masses --      2.5856                 3.7974                 4.6572
 Frc consts  --      0.5833                 1.1004                 1.6132
 IR Inten    --      1.0385                 2.6067                 7.6093

                     16                     17                     18
                      A                      A                      A
 Frequencies --    862.3388               892.5560               902.7706
 Red. masses --      2.3918                 1.5104                 1.5635
 Frc consts  --      1.0479                 0.7090                 0.7507
 IR Inten    --      6.5035                 1.5282                 8.6146

                     19                     20                     21
                      A                      A                      A
 Frequencies --    970.9966              1015.4492              1031.4479
 Red. masses --      2.0554                 1.8621                 2.2552
 Frc consts  --      1.1418                 1.1313                 1.4136
 IR Inten    --      3.4026                48.2706                24.1580

                     22                     23                     24
                      A                      A                      A
 Frequencies --   1067.7162              1075.4220              1093.8352
 Red. masses --      1.6441                 2.8456                 3.6544
 Frc consts  --      1.1043                 1.9391                 2.5762
 IR Inten    --     12.2327                24.5545                73.7250

                     25                     26                     27
                      A                      A                      A
 Frequencies --   1099.3173              1143.2537              1214.4330
 Red. masses --      1.9328                 1.1552                 1.6875
 Frc consts  --      1.3762                 0.8896                 1.4663
 IR Inten    --      2.1714                11.4616                10.3702

                     28                     29                     30
                      A                      A                      A
 Frequencies --   1228.1574              1263.1225              1295.8704
 Red. masses --      1.4297                 1.4812                 1.7824
 Frc consts  --      1.2706                 1.3924                 1.7635
 IR Inten    --      7.9521                 9.8313                11.4317

                     31                     32                     33
                      A                      A                      A
 Frequencies --   1336.1348              1358.6138              1387.4897
 Red. masses --      2.0178                 1.6178                 1.2964
 Frc consts  --      2.1224                 1.7594                 1.4705
 IR Inten    --     17.9328                 7.0301                 4.1771

                     34                     35                     36
                      A                      A                      A
 Frequencies --   1412.7352              1414.3562              1454.7311
 Red. masses --      1.2476                 1.2702                 1.0836
 Frc consts  --      1.4671                 1.4971                 1.3510
 IR Inten    --     25.2619                28.9150                 5.1824

                     37                     38                     39
                      A                      A                      A
 Frequencies --   1472.7167              1483.2753              1506.3589
 Red. masses --      1.0432                 1.0633                 1.0886
 Frc consts  --      1.3330                 1.3783                 1.4554
 IR Inten    --      5.8300                 8.4852                 1.1784

                     40                     41                     42
                      A                      A                      A
 Frequencies --   1699.3993              1809.1284              2976.4420
 Red. masses --      7.4245                12.7150                 1.0719
 Frc consts  --     12.6330                24.5192                 5.5950
 IR Inten    --     10.5475               260.6253                54.2772

                     43                     44                     45
                      A                      A                      A
 Frequencies --   2986.0146              3037.4822              3066.5367
 Red. masses --      1.0791                 1.0359                 1.0616
 Frc consts  --      5.6689                 5.6313                 5.8815
 IR Inten    --     38.3256                17.2945                 7.0435

                     46                     47                     48
                      A                      A                      A
 Frequencies --   3072.2137              3091.5325              3105.6090
 Red. masses --      1.0943                 1.0984                 1.1017
 Frc consts  --      6.0856                 6.1854                 6.2602
 IR Inten    --     26.7348                 8.9654                 5.4774

                     49                     50                     51
                      A                      A                      A
 Frequencies --   3122.8775              3170.3152              3811.7611
 Red. masses --      1.1023                 1.0931                 1.0661
 Frc consts  --      6.3340                 6.4730                 9.1265
 IR Inten    --     13.6302                13.4983                21.1917

 - Thermochemistry -
 -------------------
 Temperature   298.150 Kelvin.  Pressure   1.00000 Atm.
 Atom     1 has atomic number  6 and mass  12.00000

 Molecular mass:   126.06808 amu.
 Principal axes and moments of inertia in atomic units:
                           1         2         3
     Eigenvalues --   563.800711751.206532167.77762
           X            0.99965  -0.02532  -0.00803
           Y            0.02546   0.99951   0.01808
           Z            0.00757  -0.01828   0.99980
 This molecule is an asymmetric top.
 Rotational symmetry number  1.
 Warning -- assumption of classical behavior for rotation
           may cause significant error
 Rotational temperatures (Kelvin)      0.15362     0.04946     0.03996
 Rotational constants (GHZ):           3.20103     1.03057     0.83253
 Zero-point vibrational energy     415759.7 (Joules/Mol)
                                   99.36896 (Kcal/Mol)
 Warning -- explicit consideration of  13 degrees of freedom as
           vibrations may cause significant error
 Vibrational temperatures:     81.73   136.32   164.44   185.89   360.31
          (Kelvin)            371.03   445.12   472.84   566.74   618.96
                              746.39   872.05   890.31  1009.00  1103.19
                             1240.71  1284.19  1298.88  1397.05  1461.00
                             1484.02  1536.20  1547.29  1573.78  1581.67
                             1644.89  1747.30  1767.04  1817.35  1864.47
                             1922.40  1954.74  1996.29  2032.61  2034.94
                             2093.03  2118.91  2134.10  2167.31  2445.05
                             2602.93  4282.43  4296.20  4370.25  4412.06
                             4420.22  4448.02  4468.27  4493.12  4561.37
                             5484.27

 Zero-point correction=                           0.158355 (Hartree/Particle)
 Thermal correction to Energy=                    0.167738
 Thermal correction to Enthalpy=                  0.168682
 Thermal correction to Gibbs Free Energy=         0.123517
 Sum of electronic and zero-point Energies=           -423.068023
 Sum of electronic and thermal Energies=              -423.058640
 Sum of electronic and thermal Enthalpies=            -423.057696
 Sum of electronic and thermal Free Energies=         -423.102861

                     E (Thermal)             CV                S
                      KCal/Mol        Cal/Mol-Kelvin    Cal/Mol-Kelvin
 Total                  105.257             33.925             95.057
 Electronic               0.000              0.000              0.000
 Translational            0.889              2.981             40.409
 Rotational               0.889              2.981             29.150
 Vibrational            103.480             27.963             25.499
 Vibration     1          0.596              1.975              4.565
 Vibration     2          0.603              1.953              3.560
 Vibration     3          0.607              1.938              3.195
 Vibration     4          0.612              1.924              2.958
 Vibration     5          0.663              1.762              1.728
 Vibration     6          0.667              1.749              1.676
 Vibration     7          0.699              1.656              1.366
 Vibration     8          0.712              1.618              1.267
 Vibration     9          0.761              1.483              0.985
 Vibration    10          0.791              1.404              0.858
 Vibration    11          0.874              1.208              0.613
 Vibration    12          0.965              1.019              0.439
 Vibration    13          0.979              0.992              0.418

 Normal termination of Gaussian 09 at Tue Jan 28 14:06:28 2020.
