 Gaussian 09, Revision D.01,
 Gaussian 09:  ES64L-G09RevD.01 24-Apr-2013

 -----------------------------
 # b3lyp 6-31G(2df,p) opt Freq
 -----------------------------

 -----
 titel
 -----
 Symbolic Z-matrix:
 Charge =  0 Multiplicity = 1

 SCF Done:  E(RB3LYP) =  -423.188283892     A.U. after   13 cycles
 Optimization completed.
    -- Stationary point found.
 Normal termination of Gaussian 09 at Mon Jan 27 18:12:15 2020.

 ----------------------------------------------------------------------
 #N Geom=AllCheck Guess=TCheck SCRF=Check GenChk RB3LYP/6-31G(2df,p) Fr
 eq
 ----------------------------------------------------------------------

 Structure from the checkpoint file:  "/scratch/puck/g09_582c7a06-377b-43ab-97e6-3cd8667abe0a/Gau-171544.chk"
 -----
 titel
 -----
 Charge =  0 Multiplicity = 1

                         Standard orientation:
 ---------------------------------------------------------------------
 Center     Atomic      Atomic             Coordinates (Angstroms)
 Number     Number       Type             X           Y           Z
 ---------------------------------------------------------------------
      1          6           0       -1.855943   -1.388429   -0.096706
      2          6           0       -0.554312   -0.659625   -0.032156
      3          8           0        0.510333   -1.204207   -0.802497
      4          6           0        1.542465   -0.247757   -0.497732
      5          6           0        1.556117   -0.239647    1.050168
      6          6           0        0.059858    0.000481    1.196189
      7          6           0       -0.370733    0.845703    0.001805
      8          8           0       -1.414880    1.748779    0.139617
      9          6           0        0.877707    1.104306   -0.836743
     10          1           0       -2.624699   -0.818074    0.431956
     11          1           0       -2.176230   -1.518411   -1.136195
     12          1           0       -1.784246   -2.380181    0.361043
     13          1           0        2.458174   -0.515534   -1.020753
     14          1           0        1.879667   -1.199407    1.462213
     15          1           0        2.175420    0.561955    1.462552
     16          1           0       -0.463878    0.053681    2.141067
     17          1           0       -1.880128    1.801552   -0.703179
     18          1           0        0.661937    1.201427   -1.905792
     19          1           0        1.459396    1.966222   -0.498815
 ---------------------------------------------------------------------

 SCF Done:  E(RB3LYP) =  -423.188283892     A.U. after    1 cycles

 The electronic state is 1-A.
 Alpha  occ. eigenvalues --  -19.15003 -19.13609 -10.23263 -10.23129 -10.22732
 Alpha  occ. eigenvalues --  -10.18280 -10.18186 -10.18122 -10.18008  -1.05387
 Alpha  occ. eigenvalues --   -1.02816  -0.84659  -0.77643  -0.71316  -0.69820
 Alpha  occ. eigenvalues --   -0.59457  -0.56829  -0.54848  -0.51242  -0.48272
 Alpha  occ. eigenvalues --   -0.46008  -0.43446  -0.42479  -0.40549  -0.40466
 Alpha  occ. eigenvalues --   -0.38108  -0.37540  -0.36819  -0.35139  -0.34093
 Alpha  occ. eigenvalues --   -0.30775  -0.28782  -0.26162  -0.21548
 Alpha virt. eigenvalues --    0.07054   0.09815   0.12537   0.13091   0.13457
 Alpha virt. eigenvalues --    0.14326   0.15773   0.16320   0.16534   0.17116
 Alpha virt. eigenvalues --    0.18244   0.18614   0.20668   0.21267   0.22724

 Mulliken charges:
               1
     1  C   -0.510211
     2  C    0.383620
     3  O   -0.295614
     4  C    0.050730
     5  C   -0.228284
     6  C   -0.192583
     7  C    0.318770
     8  O   -0.476247
     9  C   -0.297894
    10  H    0.130645
    11  H    0.123251
    12  H    0.128583
    13  H    0.080657
    14  H    0.105280
    15  H    0.101218
    16  H    0.094211
    17  H    0.284356
    18  H    0.094672
    19  H    0.104840
 Sum of Mulliken charges =   0.00000

 Dipole moment (field-independent basis, Debye):
    X=             -0.0196    Y=              0.4910    Z=             -0.4245  Tot=              0.6494
 Quadrupole moment (field-independent basis, Debye-Ang):
   XX=            -48.6777   YY=            -56.3786   ZZ=            -52.0607
   XY=              1.4563   XZ=              2.5091   YZ=             -4.3370

  Exact polarizability:  80.250   2.387  71.242   2.021  -2.736  69.421
 Approx polarizability: 109.069   0.291 107.306   2.638   0.153 106.776

                      1                      2                      3
                      A                      A                      A
 Frequencies --    176.9096               194.7728               229.4283
 Red. masses --      1.0755                 2.4902                 2.8463
 Frc consts  --      0.0198                 0.0557                 0.0883
 IR Inten    --      1.3161                 0.2373                 5.2522

                      4                      5                      6
                      A                      A                      A
 Frequencies --    303.1513               335.8290               378.3892
 Red. masses --      1.3103                 2.3591                 3.0518
 Frc consts  --      0.0709                 0.1568                 0.2574
 IR Inten    --     72.2972                14.8188                23.1281

                      7                      8                      9
                      A                      A                      A
 Frequencies --    420.6602               480.8330               554.3378
 Red. masses --      1.7968                 2.7152                 4.4088
 Frc consts  --      0.1873                 0.3699                 0.7982
 IR Inten    --      0.3648                 5.6938                 2.0506

                     10                     11                     12
                      A                      A                      A
 Frequencies --    606.6089               628.4690               701.7201
 Red. masses --      4.3424                 4.4806                 3.9220
 Frc consts  --      0.9415                 1.0427                 1.1378
 IR Inten    --      2.7000                 2.9491                 2.4514

                     13                     14                     15
                      A                      A                      A
 Frequencies --    719.0337               813.2804               889.7380
 Red. masses --      3.7552                 4.7333                 2.1000
 Frc consts  --      1.1439                 1.8446                 0.9795
 IR Inten    --      4.1062                 2.4166                10.6709

                     16                     17                     18
                      A                      A                      A
 Frequencies --    902.8765               915.6093               922.5969
 Red. masses --      2.5260                 2.4047                 1.8033
 Frc consts  --      1.2132                 1.1878                 0.9043
 IR Inten    --     12.7735                10.8238                 0.9502

                     19                     20                     21
                      A                      A                      A
 Frequencies --    924.9808               957.1400               980.7806
 Red. masses --      1.6873                 2.4693                 2.0179
 Frc consts  --      0.8505                 1.3328                 1.1436
 IR Inten    --      6.3097                36.4257                 3.0861

                     22                     23                     24
                      A                      A                      A
 Frequencies --   1013.7381              1070.9285              1109.6273
 Red. masses --      1.4190                 1.8064                 2.0712
 Frc consts  --      0.8592                 1.2206                 1.5026
 IR Inten    --     11.9387                19.7703                16.5782

                     25                     26                     27
                      A                      A                      A
 Frequencies --   1117.5317              1133.1823              1159.4229
 Red. masses --      1.7278                 1.5731                 1.3392
 Frc consts  --      1.2714                 1.1902                 1.0607
 IR Inten    --     19.9750                 8.2484                 2.7600

                     28                     29                     30
                      A                      A                      A
 Frequencies --   1164.6702              1204.5430              1236.0549
 Red. masses --      2.6325                 1.9666                 1.6432
 Frc consts  --      2.1039                 1.6812                 1.4792
 IR Inten    --     25.0815                16.9060                 3.5639

                     31                     32                     33
                      A                      A                      A
 Frequencies --   1277.3018              1296.1180              1325.4897
 Red. masses --      1.9589                 1.5176                 1.7944
 Frc consts  --      1.8830                 1.5021                 1.8574
 IR Inten    --     57.1331                16.9037                60.2615

                     34                     35                     36
                      A                      A                      A
 Frequencies --   1336.7636              1367.0748              1417.4416
 Red. masses --      1.6191                 1.8995                 1.5185
 Frc consts  --      1.7046                 2.0915                 1.7975
 IR Inten    --     10.9247                 1.6688                 3.2786

                     37                     38                     39
                      A                      A                      A
 Frequencies --   1455.8146              1476.6214              1481.0209
 Red. masses --      3.1833                 1.1196                 1.0761
 Frc consts  --      3.9751                 1.4383                 1.3906
 IR Inten    --      8.7995                 2.4235                 2.6083

                     40                     41                     42
                      A                      A                      A
 Frequencies --   1497.5189              1509.6062              3034.5048
 Red. masses --      1.0974                 1.2178                 1.0358
 Frc consts  --      1.4500                 1.6352                 5.6196
 IR Inten    --      1.3178                 6.9620                32.4875

                     43                     44                     45
                      A                      A                      A
 Frequencies --   3050.0535              3058.9913              3096.0714
 Red. masses --      1.0581                 1.0582                 1.1011
 Frc consts  --      5.7997                 5.8341                 6.2188
 IR Inten    --     34.9029                24.7385                18.9337

                     46                     47                     48
                      A                      A                      A
 Frequencies --   3104.7385              3110.0710              3118.5621
 Red. masses --      1.1062                 1.1073                 1.1001
 Frc consts  --      6.2827                 6.3106                 6.3037
 IR Inten    --     13.1852                28.3637                13.1876

                     49                     50                     51
                      A                      A                      A
 Frequencies --   3146.5747              3211.7025              3786.0811
 Red. masses --      1.0913                 1.0929                 1.0660
 Frc consts  --      6.3658                 6.6423                 9.0031
 IR Inten    --     34.3719                 4.3673                17.0505

 - Thermochemistry -
 -------------------
 Temperature   298.150 Kelvin.  Pressure   1.00000 Atm.
 Atom     1 has atomic number  6 and mass  12.00000

 Molecular mass:   126.06808 amu.
 Principal axes and moments of inertia in atomic units:
                           1         2         3
     Eigenvalues --   755.47405 911.168751179.19542
           X            0.98361   0.17951   0.01720
           Y           -0.17835   0.98247  -0.05435
           Z           -0.02665   0.05039   0.99837
 This molecule is an asymmetric top.
 Rotational symmetry number  1.
 Warning -- assumption of classical behavior for rotation
           may cause significant error
 Rotational temperatures (Kelvin)      0.11465     0.09506     0.07345
 Rotational constants (GHZ):           2.38889     1.98069     1.53049
 Zero-point vibrational energy     421115.2 (Joules/Mol)
                                  100.64895 (Kcal/Mol)
 Warning -- explicit consideration of  10 degrees of freedom as
           vibrations may cause significant error
 Vibrational temperatures:    254.53   280.23   330.10   436.17   483.18
          (Kelvin)            544.42   605.24   691.81   797.57   872.77
                              904.23  1009.62  1034.53  1170.13  1280.13
                             1299.04  1317.36  1327.41  1330.84  1377.11
                             1411.12  1458.54  1540.83  1596.50  1607.88
                             1630.39  1668.15  1675.70  1733.07  1778.41
                             1837.75  1864.82  1907.08  1923.30  1966.91
                             2039.38  2094.59  2124.53  2130.86  2154.59
                             2171.98  4365.97  4388.34  4401.20  4454.55
                             4467.02  4474.69  4486.91  4527.21  4620.92
                             5447.32

 Zero-point correction=                           0.160394 (Hartree/Particle)
 Thermal correction to Energy=                    0.167972
 Thermal correction to Enthalpy=                  0.168916
 Thermal correction to Gibbs Free Energy=         0.128982
 Sum of electronic and zero-point Energies=           -423.027890
 Sum of electronic and thermal Energies=              -423.020312
 Sum of electronic and thermal Enthalpies=            -423.019368
 Sum of electronic and thermal Free Energies=         -423.059302

                     E (Thermal)             CV                S
                      KCal/Mol        Cal/Mol-Kelvin    Cal/Mol-Kelvin
 Total                  105.404             31.098             84.049
 Electronic               0.000              0.000              0.000
 Translational            0.889              2.981             40.409
 Rotational               0.889              2.981             28.186
 Vibrational            103.627             25.137             15.454
 Vibration     1          0.628              1.871              2.361
 Vibration     2          0.635              1.847              2.182
 Vibration     3          0.652              1.796              1.883
 Vibration     4          0.695              1.668              1.399
 Vibration     5          0.717              1.604              1.232
 Vibration     6          0.749              1.516              1.046
 Vibration     7          0.783              1.425              0.890
 Vibration     8          0.837              1.293              0.708
 Vibration     9          0.910              1.130              0.535
 Vibration    10          0.965              1.018              0.438

 Optimization completed.
    -- Stationary point found.
 Normal termination of Gaussian 09 at Mon Jan 27 19:01:30 2020.
