 Gaussian 09, Revision D.01,
 Gaussian 09:  ES64L-G09RevD.01 24-Apr-2013

 -----------------------------
 # b3lyp 6-31G(2df,p) opt Freq
 -----------------------------

 -----
 titel
 -----
 Symbolic Z-matrix:
 Charge =  0 Multiplicity = 1

 SCF Done:  E(RB3LYP) =  -423.172060235     A.U. after   14 cycles
 Optimization completed.
    -- Stationary point found.
 Normal termination of Gaussian 09 at Tue Jan 28 09:45:50 2020.

 ----------------------------------------------------------------------
 #N Geom=AllCheck Guess=TCheck SCRF=Check GenChk RB3LYP/6-31G(2df,p) Fr
 eq
 ----------------------------------------------------------------------

 Structure from the checkpoint file:  "/scratch/puck/g09_0f8a2b64-887e-4dec-aa11-52147d801308/Gau-96253.chk"
 -----
 titel
 -----
 Charge =  0 Multiplicity = 1

                         Standard orientation:
 ---------------------------------------------------------------------
 Center     Atomic      Atomic             Coordinates (Angstroms)
 Number     Number       Type             X           Y           Z
 ---------------------------------------------------------------------
      1          6           0       -0.072304    2.088384    0.445300
      2          6           0       -0.462496    0.931928   -0.488761
      3          6           0       -1.925806    0.536378   -0.395122
      4          6           0       -2.096495   -0.757067   -0.111874
      5          6           0       -0.769300   -1.418362    0.064278
      6          8           0        0.001912   -0.866460    1.163432
      7          6           0        0.257028   -0.388470   -0.172932
      8          6           0        1.654404   -0.661941   -0.660333
      9          8           0        2.607641    0.158762    0.001123
     10          1           0        0.990340    2.318727    0.337307
     11          1           0       -0.650661    2.989152    0.217122
     12          1           0       -0.264364    1.809012    1.484790
     13          1           0       -0.222646    1.223604   -1.521842
     14          1           0       -2.721417    1.265365   -0.509288
     15          1           0       -3.041710   -1.270818    0.010876
     16          1           0       -0.615087   -2.479282   -0.111176
     17          1           0        1.883690   -1.729128   -0.524523
     18          1           0        1.740256   -0.429291   -1.727039
     19          1           0        2.514982   -0.020849    0.943998
 ---------------------------------------------------------------------

 SCF Done:  E(RB3LYP) =  -423.172060235     A.U. after    1 cycles

 The electronic state is 1-A.
 Alpha  occ. eigenvalues --  -19.14898 -19.13827 -10.23811 -10.23486 -10.23257
 Alpha  occ. eigenvalues --  -10.19693 -10.18986 -10.18652 -10.17310  -1.06846
 Alpha  occ. eigenvalues --   -1.01715  -0.82665  -0.75184  -0.71946  -0.65219
 Alpha  occ. eigenvalues --   -0.63674  -0.56346  -0.55131  -0.52589  -0.48256
 Alpha  occ. eigenvalues --   -0.45394  -0.44984  -0.43203  -0.41130  -0.40224
 Alpha  occ. eigenvalues --   -0.39051  -0.37655  -0.35461  -0.34062  -0.33905
 Alpha  occ. eigenvalues --   -0.30646  -0.27750  -0.25978  -0.24680
 Alpha virt. eigenvalues --   -0.00223   0.07230   0.10563   0.11749   0.12423
 Alpha virt. eigenvalues --    0.12770   0.13957   0.15820   0.16530   0.17075
 Alpha virt. eigenvalues --    0.17769   0.18315   0.19500   0.20887   0.21238

 Mulliken charges:
               1
     1  C   -0.405252
     2  C   -0.091082
     3  C   -0.083293
     4  C   -0.093235
     5  C   -0.077749
     6  O   -0.311332
     7  C    0.373142
     8  C   -0.157932
     9  O   -0.413209
    10  H    0.134523
    11  H    0.108931
    12  H    0.131649
    13  H    0.084608
    14  H    0.101653
    15  H    0.104578
    16  H    0.095816
    17  H    0.093586
    18  H    0.110329
    19  H    0.294268
 Sum of Mulliken charges =   0.00000

 Dipole moment (field-independent basis, Debye):
    X=             -1.2512    Y=             -0.4890    Z=             -0.9666  Tot=              1.6550
 Quadrupole moment (field-independent basis, Debye-Ang):
   XX=            -54.7292   YY=            -50.1534   ZZ=            -54.0047
   XY=             -1.4802   XZ=              2.0756   YZ=              0.9522

  Exact polarizability:  82.342   2.891  84.752   0.316  -2.242  58.660
 Approx polarizability: 111.383   8.064 129.361   1.511  -9.518  98.405

                      1                      2                      3
                      A                      A                      A
 Frequencies --     70.1841               135.0453               193.3166
 Red. masses --      3.5606                 3.9504                 3.4521
 Frc consts  --      0.0103                 0.0424                 0.0760
 IR Inten    --      4.3422                 0.6977                 1.7063

                      4                      5                      6
                      A                      A                      A
 Frequencies --    237.6013               264.1849               299.7268
 Red. masses --      1.0930                 2.8488                 2.1673
 Frc consts  --      0.0364                 0.1171                 0.1147
 IR Inten    --      0.2851                 3.6695                 4.4297

                      7                      8                      9
                      A                      A                      A
 Frequencies --    347.2339               433.2927               438.8859
 Red. masses --      2.8459                 2.0213                 1.7440
 Frc consts  --      0.2022                 0.2236                 0.1979
 IR Inten    --     15.7616                83.5842                39.4401

                     10                     11                     12
                      A                      A                      A
 Frequencies --    503.8892               571.8236               694.8631
 Red. masses --      2.9850                 4.1085                 4.5109
 Frc consts  --      0.4465                 0.7915                 1.2832
 IR Inten    --      0.8249                 8.5096                14.4936

                     13                     14                     15
                      A                      A                      A
 Frequencies --    702.0492               755.7091               804.0608
 Red. masses --      4.6200                 1.7017                 2.6745
 Frc consts  --      1.3416                 0.5726                 1.0188
 IR Inten    --      9.4789                19.0254                 5.1545

                     16                     17                     18
                      A                      A                      A
 Frequencies --    837.4546               910.6051               925.4833
 Red. masses --      2.9179                 2.0454                 3.9247
 Frc consts  --      1.2057                 0.9993                 1.9806
 IR Inten    --      8.3930                 2.7587                45.3635

                     19                     20                     21
                      A                      A                      A
 Frequencies --    958.5198               968.2728               986.9908
 Red. masses --      1.5068                 1.6165                 1.9856
 Frc consts  --      0.8157                 0.8929                 1.1396
 IR Inten    --     17.3180                 6.6879                17.4407

                     22                     23                     24
                      A                      A                      A
 Frequencies --   1026.0648              1042.6334              1076.6127
 Red. masses --      2.0275                 2.2501                 2.2629
 Frc consts  --      1.2577                 1.4411                 1.5454
 IR Inten    --     14.1685                22.3523                36.3509

                     25                     26                     27
                      A                      A                      A
 Frequencies --   1103.4653              1117.6887              1147.6106
 Red. masses --      1.6962                 2.0042                 1.2451
 Frc consts  --      1.2169                 1.4751                 0.9661
 IR Inten    --      4.1452                 3.7641                 1.1747

                     28                     29                     30
                      A                      A                      A
 Frequencies --   1170.3517              1251.5473              1268.1859
 Red. masses --      1.5232                 1.4991                 1.3789
 Frc consts  --      1.2293                 1.3835                 1.3066
 IR Inten    --      9.3972                 8.7117                 5.2852

                     31                     32                     33
                      A                      A                      A
 Frequencies --   1306.2923              1331.3486              1360.4386
 Red. masses --      1.4868                 1.9994                 1.5319
 Frc consts  --      1.4948                 2.0880                 1.6704
 IR Inten    --      1.6230                 7.4317                 5.6422

                     34                     35                     36
                      A                      A                      A
 Frequencies --   1381.0296              1402.7096              1421.7135
 Red. masses --      1.3860                 1.2855                 1.2979
 Frc consts  --      1.5575                 1.4902                 1.5456
 IR Inten    --      1.3157                 3.8571                41.5854

                     37                     38                     39
                      A                      A                      A
 Frequencies --   1449.5881              1490.4120              1493.4334
 Red. masses --      3.1937                 1.0819                 1.0568
 Frc consts  --      3.9540                 1.4159                 1.3887
 IR Inten    --     19.6205                 2.9388                 2.4344

                     40                     41                     42
                      A                      A                      A
 Frequencies --   1510.9085              1662.3889              2996.3741
 Red. masses --      1.0544                 6.3723                 1.0676
 Frc consts  --      1.4182                10.3755                 5.6475
 IR Inten    --      3.3240                 3.7005                46.0337

                     43                     44                     45
                      A                      A                      A
 Frequencies --   2999.7869              3042.5552              3076.6547
 Red. masses --      1.0817                 1.0348                 1.0958
 Frc consts  --      5.7350                 5.6440                 6.1115
 IR Inten    --     23.6772                26.7610                24.2726

                     46                     47                     48
                      A                      A                      A
 Frequencies --   3114.0925              3130.8788              3156.4005
 Red. masses --      1.1010                 1.1027                 1.0905
 Frc consts  --      6.2906                 6.3685                 6.4011
 IR Inten    --     19.1634                12.3823                24.9398

                     49                     50                     51
                      A                      A                      A
 Frequencies --   3183.8378              3218.0834              3798.6662
 Red. masses --      1.0876                 1.1023                 1.0659
 Frc consts  --      6.4954                 6.7261                 9.0620
 IR Inten    --      9.9976                16.9625                22.4331

 - Thermochemistry -
 -------------------
 Temperature   298.150 Kelvin.  Pressure   1.00000 Atm.
 Atom     1 has atomic number  6 and mass  12.00000

 Molecular mass:   126.06808 amu.
 Principal axes and moments of inertia in atomic units:
                           1         2         3
     Eigenvalues --   686.154481159.669421534.37565
           X            0.99982  -0.01882  -0.00057
           Y            0.01883   0.99929   0.03269
           Z           -0.00004  -0.03270   0.99947
 This molecule is an asymmetric top.
 Rotational symmetry number  1.
 Warning -- assumption of classical behavior for rotation
           may cause significant error
 Rotational temperatures (Kelvin)      0.12623     0.07469     0.05645
 Rotational constants (GHZ):           2.63023     1.55625     1.17621
 Zero-point vibrational energy     417322.9 (Joules/Mol)
                                   99.74257 (Kcal/Mol)
 Warning -- explicit consideration of  11 degrees of freedom as
           vibrations may cause significant error
 Vibrational temperatures:    100.98   194.30   278.14   341.85   380.10
          (Kelvin)            431.24   499.59   623.41   631.46   724.98
                              822.73   999.75  1010.09  1087.30  1156.86
                             1204.91  1310.16  1331.56  1379.09  1393.13
                             1420.06  1476.28  1500.12  1549.00  1587.64
                             1608.10  1651.15  1683.87  1800.70  1824.63
                             1879.46  1915.51  1957.37  1986.99  2018.18
                             2045.53  2085.63  2144.37  2148.71  2173.86
                             2391.80  4311.11  4316.02  4377.55  4426.61
                             4480.48  4504.63  4541.35  4580.83  4630.10
                             5465.43

 Zero-point correction=                           0.158950 (Hartree/Particle)
 Thermal correction to Energy=                    0.167491
 Thermal correction to Enthalpy=                  0.168435
 Thermal correction to Gibbs Free Energy=         0.125858
 Sum of electronic and zero-point Energies=           -423.013110
 Sum of electronic and thermal Energies=              -423.004569
 Sum of electronic and thermal Enthalpies=            -423.003625
 Sum of electronic and thermal Free Energies=         -423.046203

                     E (Thermal)             CV                S
                      KCal/Mol        Cal/Mol-Kelvin    Cal/Mol-Kelvin
 Total                  105.102             32.802             89.612
 Electronic               0.000              0.000              0.000
 Translational            0.889              2.981             40.409
 Rotational               0.889              2.981             28.592
 Vibrational            103.325             26.841             20.612
 Vibration     1          0.598              1.968              4.148
 Vibration     2          0.613              1.918              2.873
 Vibration     3          0.635              1.849              2.196
 Vibration     4          0.656              1.783              1.821
 Vibration     5          0.671              1.739              1.634
 Vibration     6          0.692              1.674              1.418
 Vibration     7          0.725              1.581              1.179
 Vibration     8          0.794              1.398              0.848
 Vibration     9          0.799              1.385              0.830
 Vibration    10          0.859              1.241              0.648
 Vibration    11          0.928              1.092              0.501

 Optimization completed.
    -- Stationary point found.
 Normal termination of Gaussian 09 at Tue Jan 28 10:29:14 2020.
