 Gaussian 09, Revision D.01,
 Gaussian 09:  ES64L-G09RevD.01 24-Apr-2013

 -----------------------------
 # b3lyp 6-31G(2df,p) opt Freq
 -----------------------------

 -----
 titel
 -----
 Symbolic Z-matrix:
 Charge =  0 Multiplicity = 1

 SCF Done:  E(RB3LYP) =  -423.125300522     A.U. after   13 cycles
 Optimization completed.
    -- Stationary point found.
 Normal termination of Gaussian 09 at Mon Jan 27 12:07:01 2020.

 ----------------------------------------------------------------------
 #N Geom=AllCheck Guess=TCheck SCRF=Check GenChk RB3LYP/6-31G(2df,p) Fr
 eq
 ----------------------------------------------------------------------

 Structure from the checkpoint file:  "/scratch/puck/g09_c5d96bae-537f-4dd0-8da2-434a254c7071/Gau-18770.chk"
 -----
 titel
 -----
 Charge =  0 Multiplicity = 1

                         Standard orientation:
 ---------------------------------------------------------------------
 Center     Atomic      Atomic             Coordinates (Angstroms)
 Number     Number       Type             X           Y           Z
 ---------------------------------------------------------------------
      1          6           0       -3.042280    0.616965   -0.138747
      2          8           0       -2.857694   -0.799250   -0.118199
      3          6           0       -1.819267    0.025102    0.419207
      4          6           0       -0.511564    0.034382   -0.316017
      5          6           0        0.543114    1.108119    0.106020
      6          6           0        1.600536    0.005851    0.021882
      7          6           0        2.885583    0.024027   -0.677595
      8          8           0        2.805692   -0.027268    0.756315
      9          6           0        0.526659   -1.082762    0.026860
     10          1           0       -3.012502    1.077618   -1.125758
     11          1           0       -3.813901    1.000017    0.527743
     12          1           0       -1.735579   -0.026806    1.507716
     13          1           0       -0.703688    0.068903   -1.391697
     14          1           0        0.659392    1.987482   -0.531194
     15          1           0        0.398185    1.435771    1.141177
     16          1           0        3.256888   -0.881892   -1.155580
     17          1           0        3.268013    0.957683   -1.088996
     18          1           0        0.628952   -1.914406   -0.672985
     19          1           0        0.373573   -1.482322    1.034990
 ---------------------------------------------------------------------

 SCF Done:  E(RB3LYP) =  -423.125300522     A.U. after    1 cycles

 The electronic state is 1-A.
 Alpha  occ. eigenvalues --  -19.15065 -19.14996 -10.24338 -10.23965 -10.23484
 Alpha  occ. eigenvalues --  -10.23296 -10.20086 -10.19136 -10.18811  -1.07177
 Alpha  occ. eigenvalues --   -1.07056  -0.84964  -0.70099  -0.67672  -0.66297
 Alpha  occ. eigenvalues --   -0.65162  -0.58837  -0.54910  -0.50787  -0.49134
 Alpha  occ. eigenvalues --   -0.48467  -0.48397  -0.43118  -0.41963  -0.39897
 Alpha  occ. eigenvalues --   -0.39721  -0.36579  -0.35935  -0.33951  -0.33006
 Alpha  occ. eigenvalues --   -0.29729  -0.29151  -0.26775  -0.26223
 Alpha virt. eigenvalues --    0.07027   0.09307   0.09646   0.10528   0.11483
 Alpha virt. eigenvalues --    0.12170   0.12633   0.13354   0.14928   0.15214
 Alpha virt. eigenvalues --    0.16736   0.17896   0.18622   0.18818   0.20673

 Mulliken charges:
               1
     1  C   -0.185557
     2  O   -0.239018
     3  C    0.084065
     4  C    0.009559
     5  C   -0.345416
     6  C    0.468414
     7  C   -0.267303
     8  O   -0.270835
     9  C   -0.335710
    10  H    0.111440
    11  H    0.115698
    12  H    0.089492
    13  H    0.080724
    14  H    0.108952
    15  H    0.114641
    16  H    0.116613
    17  H    0.115021
    18  H    0.113276
    19  H    0.115947
 Sum of Mulliken charges =   0.00000

 Dipole moment (field-independent basis, Debye):
    X=             -0.2124    Y=              1.5697    Z=             -1.1756  Tot=              1.9726
 Quadrupole moment (field-independent basis, Debye-Ang):
   XX=            -59.1447   YY=            -53.0250   ZZ=            -51.9081
   XY=             -5.1757   XZ=             -6.1634   YZ=             -0.5221

  Exact polarizability:  96.392  -3.951  68.270  -3.872  -0.980  65.392
 Approx polarizability: 118.012  -2.537 103.066  -0.343  -1.030 104.068

                      1                      2                      3
                      A                      A                      A
 Frequencies --     58.6789                67.7372               164.3077
 Red. masses --      4.0903                 3.9450                 3.1297
 Frc consts  --      0.0083                 0.0107                 0.0498
 IR Inten    --      1.7989                 3.0971                 2.7963

                      4                      5                      6
                      A                      A                      A
 Frequencies --    275.4252               310.6214               314.2249
 Red. masses --      2.9591                 4.4394                 2.3608
 Frc consts  --      0.1323                 0.2524                 0.1373
 IR Inten    --      0.9160                 1.0113                 2.2940

                      7                      8                      9
                      A                      A                      A
 Frequencies --    351.1218               402.5546               494.4457
 Red. masses --      3.6564                 2.0655                 2.9837
 Frc consts  --      0.2656                 0.1972                 0.4298
 IR Inten    --      3.8551                 3.6381                 3.5427

                     10                     11                     12
                      A                      A                      A
 Frequencies --    570.7407               717.4822               819.5641
 Red. masses --      3.7932                 2.1757                 1.3630
 Frc consts  --      0.7280                 0.6599                 0.5394
 IR Inten    --     11.7400                 2.9826                 2.1266

                     13                     14                     15
                      A                      A                      A
 Frequencies --    839.9863               860.1859               878.0640
 Red. masses --      2.6575                 5.2878                 3.9257
 Frc consts  --      1.1048                 2.3052                 1.7833
 IR Inten    --     32.1728                 8.8151                26.7450

                     16                     17                     18
                      A                      A                      A
 Frequencies --    886.4819               908.1232               951.1758
 Red. masses --      1.5778                 2.7606                 2.2461
 Frc consts  --      0.7305                 1.3414                 1.1973
 IR Inten    --      2.3470                29.0212                13.2823

                     19                     20                     21
                      A                      A                      A
 Frequencies --    975.7087              1000.5258              1045.7533
 Red. masses --      3.1312                 1.8429                 1.1763
 Frc consts  --      1.7563                 1.0869                 0.7579
 IR Inten    --      5.0546                 1.9404                 1.3622

                     22                     23                     24
                      A                      A                      A
 Frequencies --   1063.8707              1101.9637              1126.1329
 Red. masses --      2.6850                 1.3284                 1.2757
 Frc consts  --      1.7905                 0.9504                 0.9532
 IR Inten    --      5.4673                 3.0598                 2.3057

                     25                     26                     27
                      A                      A                      A
 Frequencies --   1150.2672              1156.3347              1169.4235
 Red. masses --      1.4648                 1.3390                 1.3720
 Frc consts  --      1.1419                 1.0549                 1.1054
 IR Inten    --      2.1221                 0.2566                 3.1576

                     28                     29                     30
                      A                      A                      A
 Frequencies --   1188.0992              1194.9504              1219.6999
 Red. masses --      2.0406                 2.3212                 1.6730
 Frc consts  --      1.6972                 1.9528                 1.4664
 IR Inten    --     11.3505                 2.9662                 3.8358

                     31                     32                     33
                      A                      A                      A
 Frequencies --   1224.2344              1251.6318              1266.1328
 Red. masses --      1.4272                 1.4265                 1.3957
 Frc consts  --      1.2603                 1.3166                 1.3183
 IR Inten    --      0.1996                 1.9891                 0.9245

                     34                     35                     36
                      A                      A                      A
 Frequencies --   1294.0147              1323.7182              1432.5343
 Red. masses --      1.6874                 1.3930                 2.0973
 Frc consts  --      1.6648                 1.4381                 2.5358
 IR Inten    --      6.6627                15.6023                16.8420

                     37                     38                     39
                      A                      A                      A
 Frequencies --   1457.6186              1466.8029              1493.1403
 Red. masses --      1.6064                 1.0964                 1.1613
 Frc consts  --      2.0109                 1.3898                 1.5255
 IR Inten    --     19.8191                 3.6564                 3.2889

                     40                     41                     42
                      A                      A                      A
 Frequencies --   1529.1842              1539.3641              3049.5979
 Red. masses --      1.3703                 1.7344                 1.0595
 Frc consts  --      1.8880                 2.4215                 5.8054
 IR Inten    --      2.0352                15.6910                25.9344

                     43                     44                     45
                      A                      A                      A
 Frequencies --   3055.5239              3069.1267              3077.4804
 Red. masses --      1.0623                 1.0830                 1.0503
 Frc consts  --      5.8437                 6.0103                 5.8605
 IR Inten    --      7.4714                 0.3141                26.5537

                     46                     47                     48
                      A                      A                      A
 Frequencies --   3079.7675              3083.6843              3112.1511
 Red. masses --      1.0554                 1.0841                 1.1050
 Frc consts  --      5.8981                 6.0738                 6.3055
 IR Inten    --     36.2366                20.6642                20.4306

                     49                     50                     51
                      A                      A                      A
 Frequencies --   3118.3404              3164.4147              3166.2164
 Red. masses --      1.1048                 1.1195                 1.1194
 Frc consts  --      6.3299                 6.6047                 6.6117
 IR Inten    --     24.9240                23.2226                29.0839

 - Thermochemistry -
 -------------------
 Temperature   298.150 Kelvin.  Pressure   1.00000 Atm.
 Atom     1 has atomic number  6 and mass  12.00000

 Molecular mass:   126.06808 amu.
 Principal axes and moments of inertia in atomic units:
                           1         2         3
     Eigenvalues --   318.866692242.650032347.84805
           X            0.99984  -0.01251  -0.01291
           Y            0.01232   0.99981  -0.01520
           Z            0.01309   0.01504   0.99980
 This molecule is an asymmetric top.
 Rotational symmetry number  1.
 Rotational temperatures (Kelvin)      0.27163     0.03862     0.03689
 Rotational constants (GHZ):           5.65986     0.80474     0.76868
 Zero-point vibrational energy     415812.0 (Joules/Mol)
                                   99.38144 (Kcal/Mol)
 Warning -- explicit consideration of  10 degrees of freedom as
           vibrations may cause significant error
 Vibrational temperatures:     84.43    97.46   236.40   396.27   446.91
          (Kelvin)            452.10   505.19   579.19   711.40   821.17
                             1032.30  1179.17  1208.55  1237.61  1263.34
                             1275.45  1306.59  1368.53  1403.83  1439.53
                             1504.60  1530.67  1585.48  1620.25  1654.98
                             1663.71  1682.54  1709.41  1719.26  1754.87
                             1761.40  1800.82  1821.68  1861.80  1904.53
                             2061.09  2097.19  2110.40  2148.29  2200.15
                             2214.80  4387.69  4396.21  4415.78  4427.80
                             4431.09  4436.73  4477.69  4486.59  4552.88
                             4555.47

 Zero-point correction=                           0.158374 (Hartree/Particle)
 Thermal correction to Energy=                    0.166684
 Thermal correction to Enthalpy=                  0.167628
 Thermal correction to Gibbs Free Energy=         0.124667
 Sum of electronic and zero-point Energies=           -422.966926
 Sum of electronic and thermal Energies=              -422.958616
 Sum of electronic and thermal Enthalpies=            -422.957672
 Sum of electronic and thermal Free Energies=         -423.000634

                     E (Thermal)             CV                S
                      KCal/Mol        Cal/Mol-Kelvin    Cal/Mol-Kelvin
 Total                  104.596             31.303             90.420
 Electronic               0.000              0.000              0.000
 Translational            0.889              2.981             40.409
 Rotational               0.889              2.981             28.908
 Vibrational            102.818             25.341             21.103
 Vibration     1          0.596              1.974              4.501
 Vibration     2          0.598              1.970              4.218
 Vibration     3          0.623              1.886              2.500
 Vibration     4          0.677              1.719              1.562
 Vibration     5          0.699              1.653              1.359
 Vibration     6          0.702              1.647              1.340
 Vibration     7          0.728              1.573              1.161
 Vibration     8          0.768              1.465              0.953
 Vibration     9          0.850              1.262              0.672
 Vibration    10          0.927              1.095              0.503

 Optimization completed.
    -- Stationary point found.
 Normal termination of Gaussian 09 at Mon Jan 27 12:51:22 2020.
