 Gaussian 09, Revision D.01,
 Gaussian 09:  ES64L-G09RevD.01 24-Apr-2013

 -----------------------------
 # b3lyp 6-31G(2df,p) opt Freq
 -----------------------------

 -----
 titel
 -----
 Symbolic Z-matrix:
 Charge =  0 Multiplicity = 1

 SCF Done:  E(RB3LYP) =  -423.213088721     A.U. after   14 cycles
 Optimization completed.
    -- Stationary point found.
 Normal termination of Gaussian 09 at Mon Jan 27 10:22:03 2020.

 ----------------------------------------------------------------------
 #N Geom=AllCheck Guess=TCheck SCRF=Check GenChk RB3LYP/6-31G(2df,p) Fr
 eq
 ----------------------------------------------------------------------

 Structure from the checkpoint file:  "/scratch/puck/g09_c9565d89-fac4-44bb-a5bf-da9597113dc7/Gau-19670.chk"
 -----
 titel
 -----
 Charge =  0 Multiplicity = 1

                         Standard orientation:
 ---------------------------------------------------------------------
 Center     Atomic      Atomic             Coordinates (Angstroms)
 Number     Number       Type             X           Y           Z
 ---------------------------------------------------------------------
      1          6           0       -2.752989   -1.225500   -0.563606
      2          6           0       -2.307528   -0.239903    0.531305
      3          6           0       -1.018911    0.443183    0.238292
      4          6           0       -0.649648    1.730288    0.019075
      5          6           0        0.771129    1.746211   -0.201121
      6          6           0        1.157748    0.447428   -0.104256
      7          8           0        2.363564   -0.111101   -0.260481
      8          6           0        2.519825   -1.454767    0.189244
      9          8           0        0.104678   -0.364255    0.159356
     10          1           0       -3.696610   -1.708728   -0.291842
     11          1           0       -2.892779   -0.709713   -1.518415
     12          1           0       -2.001694   -2.006553   -0.711407
     13          1           0       -3.066986    0.537316    0.666808
     14          1           0       -2.237395   -0.774778    1.488536
     15          1           0       -1.311639    2.582920    0.020573
     16          1           0        1.410220    2.590100   -0.398211
     17          1           0        2.278187   -1.547393    1.253871
     18          1           0        1.885464   -2.140939   -0.380424
     19          1           0        3.569540   -1.701017    0.025919
 ---------------------------------------------------------------------

 SCF Done:  E(RB3LYP) =  -423.213088721     A.U. after    1 cycles

 The electronic state is 1-A.
 Alpha  occ. eigenvalues --  -19.19449 -19.17576 -10.27275 -10.23879 -10.21703
 Alpha  occ. eigenvalues --  -10.19053 -10.17465 -10.16980 -10.16190  -1.11572
 Alpha  occ. eigenvalues --   -1.05336  -0.79270  -0.78329  -0.73197  -0.68303
 Alpha  occ. eigenvalues --   -0.61795  -0.59584  -0.54227  -0.53231  -0.48190
 Alpha  occ. eigenvalues --   -0.46016  -0.45306  -0.43415  -0.43153  -0.40496
 Alpha  occ. eigenvalues --   -0.39113  -0.37725  -0.36801  -0.35843  -0.34595
 Alpha  occ. eigenvalues --   -0.34008  -0.32285  -0.26441  -0.18587
 Alpha virt. eigenvalues --    0.03714   0.08914   0.10084   0.11077   0.12588
 Alpha virt. eigenvalues --    0.13211   0.14866   0.15659   0.15813   0.17132
 Alpha virt. eigenvalues --    0.17187   0.18155   0.18642   0.20651   0.22397

 Mulliken charges:
               1
     1  C   -0.369258
     2  C   -0.290389
     3  C    0.353460
     4  C   -0.264902
     5  C   -0.309878
     6  C    0.432939
     7  O   -0.269217
     8  C   -0.245546
     9  O   -0.229387
    10  H    0.110219
    11  H    0.121030
    12  H    0.125381
    13  H    0.112823
    14  H    0.109612
    15  H    0.104083
    16  H    0.107587
    17  H    0.129915
    18  H    0.135111
    19  H    0.136417
 Sum of Mulliken charges =   0.00000

 Dipole moment (field-independent basis, Debye):
    X=             -0.3188    Y=             -1.0672    Z=              0.5071  Tot=              1.2238
 Quadrupole moment (field-independent basis, Debye-Ang):
   XX=            -49.4496   YY=            -49.7003   ZZ=            -54.7002
   XY=             -3.6900   XZ=              0.4546   YZ=             -0.7439

  Exact polarizability: 100.574  -0.880  87.597  -3.041  -2.989  53.626
 Approx polarizability: 136.155  -1.117 134.568  -7.611  -7.420  81.032

                      1                      2                      3
                      A                      A                      A
 Frequencies --     16.7176                67.9785               127.8004
 Red. masses --      2.8133                 2.5415                 3.2192
 Frc consts  --      0.0005                 0.0069                 0.0310
 IR Inten    --      4.6486                 0.2222                 0.4205

                      4                      5                      6
                      A                      A                      A
 Frequencies --    163.0173               181.2394               231.5897
 Red. masses --      1.5545                 1.3012                 1.4566
 Frc consts  --      0.0243                 0.0252                 0.0460
 IR Inten    --      1.4535                 0.4894                 1.8448

                      7                      8                      9
                      A                      A                      A
 Frequencies --    294.2241               336.1746               402.5674
 Red. masses --      5.1780                 2.3747                 3.7378
 Frc consts  --      0.2641                 0.1581                 0.3569
 IR Inten    --      0.8455                 2.4440                 2.1125

                     10                     11                     12
                      A                      A                      A
 Frequencies --    514.4557               596.0884               654.1157
 Red. masses --      3.8955                 4.1868                 3.6766
 Frc consts  --      0.6074                 0.8765                 0.9268
 IR Inten    --      1.7987                 5.6058                 2.8160

                     13                     14                     15
                      A                      A                      A
 Frequencies --    673.1574               714.8873               758.5549
 Red. masses --      5.7925                 4.4499                 1.3000
 Frc consts  --      1.5465                 1.3399                 0.4407
 IR Inten    --      1.5742                 6.1531                40.3722

                     16                     17                     18
                      A                      A                      A
 Frequencies --    785.5256               821.0327               943.9322
 Red. masses --      1.2224                 1.2907                 3.2251
 Frc consts  --      0.4444                 0.5126                 1.6930
 IR Inten    --      0.8625                 9.7878                 1.8720

                     19                     20                     21
                      A                      A                      A
 Frequencies --    974.0138               990.1343              1024.1085
 Red. masses --      4.6855                 3.5753                 1.3597
 Frc consts  --      2.6190                 2.0651                 0.8402
 IR Inten    --      0.4495                 6.3549                19.6254

                     22                     23                     24
                      A                      A                      A
 Frequencies --   1060.8232              1080.5947              1093.4899
 Red. masses --      2.8030                 2.1674                 1.9487
 Frc consts  --      1.8585                 1.4911                 1.3729
 IR Inten    --     56.6301                20.8452                25.9458

                     25                     26                     27
                      A                      A                      A
 Frequencies --   1177.0916              1201.2900              1222.7311
 Red. masses --      1.2701                 1.5632                 1.8087
 Frc consts  --      1.0368                 1.3292                 1.5932
 IR Inten    --      1.0208                 5.2509                 7.4959

                     28                     29                     30
                      A                      A                      A
 Frequencies --   1229.9061              1293.1164              1305.6931
 Red. masses --      2.4096                 1.2976                 4.3221
 Frc consts  --      2.1475                 1.2784                 4.3413
 IR Inten    --     17.7793                 8.1492               131.7663

                     31                     32                     33
                      A                      A                      A
 Frequencies --   1359.9822              1395.6074              1407.5569
 Red. masses --      1.5687                 2.4456                 1.3215
 Frc consts  --      1.7095                 2.8064                 1.5425
 IR Inten    --     15.4320                43.9279                 6.8509

                     34                     35                     36
                      A                      A                      A
 Frequencies --   1471.7641              1479.5156              1485.9523
 Red. masses --      1.0787                 1.2461                 1.0519
 Frc consts  --      1.3766                 1.6070                 1.3685
 IR Inten    --      1.8557                11.6227                 6.2846

                     37                     38                     39
                      A                      A                      A
 Frequencies --   1495.8955              1503.2636              1506.1675
 Red. masses --      1.0423                 1.0499                 1.0600
 Frc consts  --      1.3741                 1.3979                 1.4168
 IR Inten    --      4.3172                25.4924                 4.7569

                     40                     41                     42
                      A                      A                      A
 Frequencies --   1631.0009              1670.8869              3011.4448
 Red. masses --      7.6366                 6.9627                 1.0678
 Frc consts  --     11.9690                11.4530                 5.7052
 IR Inten    --    160.1055               159.7433                32.4677

                     43                     44                     45
                      A                      A                      A
 Frequencies --   3029.9416              3039.1658              3073.8462
 Red. masses --      1.0325                 1.0345                 1.0931
 Frc consts  --      5.5848                 5.6296                 6.0853
 IR Inten    --     46.4897                30.7826                 8.4281

                     46                     47                     48
                      A                      A                      A
 Frequencies --   3097.3152              3110.4454              3118.2443
 Red. masses --      1.1048                 1.1020                 1.1021
 Frc consts  --      6.2443                 6.2819                 6.3140
 IR Inten    --     29.1958                37.0816                29.3034

                     49                     50                     51
                      A                      A                      A
 Frequencies --   3147.0044              3248.3528              3277.4425
 Red. masses --      1.1030                 1.0948                 1.0992
 Frc consts  --      6.4361                 6.8062                 6.9565
 IR Inten    --     19.3205                 6.7051                 1.5100

 - Thermochemistry -
 -------------------
 Temperature   298.150 Kelvin.  Pressure   1.00000 Atm.
 Atom     1 has atomic number  6 and mass  12.00000

 Molecular mass:   126.06808 amu.
 Principal axes and moments of inertia in atomic units:
                           1         2         3
     Eigenvalues --   618.670791589.487602080.38636
           X            0.99997  -0.00244   0.00764
           Y            0.00243   1.00000   0.00036
           Z           -0.00764  -0.00034   0.99997
 This molecule is an asymmetric top.
 Rotational symmetry number  1.
 Warning -- assumption of classical behavior for rotation
           may cause significant error
 Rotational temperatures (Kelvin)      0.14000     0.05449     0.04163
 Rotational constants (GHZ):           2.91713     1.13542     0.86750
 Zero-point vibrational energy     415683.5 (Joules/Mol)
                                   99.35073 (Kcal/Mol)
 Warning -- explicit consideration of  11 degrees of freedom as
           vibrations may cause significant error
 Vibrational temperatures:     24.05    97.81   183.88   234.55   260.76
          (Kelvin)            333.21   423.32   483.68   579.20   740.19
                              857.64   941.13   968.52  1028.56  1091.39
                             1130.19  1181.28  1358.11  1401.39  1424.58
                             1473.46  1526.29  1554.73  1573.29  1693.57
                             1728.39  1759.24  1769.56  1860.50  1878.60
                             1956.71  2007.97  2025.16  2117.54  2128.69
                             2137.95  2152.26  2162.86  2167.04  2346.64
                             2404.03  4332.79  4359.40  4372.68  4422.57
                             4456.34  4475.23  4486.45  4527.83  4673.65
                             4715.50

 Zero-point correction=                           0.158325 (Hartree/Particle)
 Thermal correction to Energy=                    0.167753
 Thermal correction to Enthalpy=                  0.168698
 Thermal correction to Gibbs Free Energy=         0.122269
 Sum of electronic and zero-point Energies=           -423.054763
 Sum of electronic and thermal Energies=              -423.045335
 Sum of electronic and thermal Enthalpies=            -423.044391
 Sum of electronic and thermal Free Energies=         -423.090820

                     E (Thermal)             CV                S
                      KCal/Mol        Cal/Mol-Kelvin    Cal/Mol-Kelvin
 Total                  105.267             33.484             97.717
 Electronic               0.000              0.000              0.000
 Translational            0.889              2.981             40.409
 Rotational               0.889              2.981             29.105
 Vibrational            103.489             27.523             28.204
 Vibration     1          0.593              1.986              6.990
 Vibration     2          0.598              1.969              4.211
 Vibration     3          0.611              1.925              2.979
 Vibration     4          0.623              1.888              2.514
 Vibration     5          0.630              1.865              2.316
 Vibration     6          0.653              1.793              1.867
 Vibration     7          0.689              1.685              1.450
 Vibration     8          0.717              1.603              1.230
 Vibration     9          0.768              1.465              0.953
 Vibration    10          0.870              1.218              0.623
 Vibration    11          0.954              1.040              0.456

 Optimization completed.
    -- Stationary point found.
 Normal termination of Gaussian 09 at Mon Jan 27 11:04:26 2020.
