 Gaussian 09, Revision D.01,
 Gaussian 09:  ES64L-G09RevD.01 24-Apr-2013

 -----------------------------
 # b3lyp 6-31G(2df,p) opt Freq
 -----------------------------

 -----
 titel
 -----
 Symbolic Z-matrix:
 Charge =  0 Multiplicity = 1

 SCF Done:  E(RB3LYP) =  -423.159736615     A.U. after   14 cycles
 Optimization completed.
    -- Stationary point found.
 Normal termination of Gaussian 09 at Mon Jan 27 23:06:06 2020.

 ----------------------------------------------------------------------
 #N Geom=AllCheck Guess=TCheck SCRF=Check GenChk RB3LYP/6-31G(2df,p) Fr
 eq
 ----------------------------------------------------------------------

 Structure from the checkpoint file:  "/scratch/puck/g09_6d9c20ee-77d1-43d4-869b-86709d54c295/Gau-103036.chk"
 -----
 titel
 -----
 Charge =  0 Multiplicity = 1

                         Standard orientation:
 ---------------------------------------------------------------------
 Center     Atomic      Atomic             Coordinates (Angstroms)
 Number     Number       Type             X           Y           Z
 ---------------------------------------------------------------------
      1          6           0        2.395478    0.034304   -0.505479
      2          6           0        0.964211   -0.116431   -0.046687
      3          6           0        0.674856   -0.900245    1.209743
      4          6           0        0.201474   -1.425786   -0.126790
      5          6           0       -1.227505   -1.087892   -0.499576
      6          8           0       -1.917477   -0.263233    0.459427
      7          6           0       -1.353539    0.358727   -0.708368
      8          6           0       -0.008682    1.026868   -0.422659
      9          8           0       -0.099293    2.074874    0.524609
     10          1           0        2.995399   -0.838937   -0.230381
     11          1           0        2.458658    0.154566   -1.593520
     12          1           0        2.857403    0.915367   -0.045349
     13          1           0        1.521592   -1.401984    1.667066
     14          1           0       -0.079838   -0.560250    1.907845
     15          1           0        0.639563   -2.324857   -0.545334
     16          1           0       -1.851462   -1.819464   -1.004722
     17          1           0       -2.072439    0.830614   -1.373762
     18          1           0        0.354038    1.499669   -1.343013
     19          1           0       -0.566506    1.714879    1.287777
 ---------------------------------------------------------------------

 SCF Done:  E(RB3LYP) =  -423.159736615     A.U. after    1 cycles

 The electronic state is 1-A.
 Alpha  occ. eigenvalues --  -19.15656 -19.13391 -10.24246 -10.23563 -10.23343
 Alpha  occ. eigenvalues --  -10.19688 -10.19471 -10.18660 -10.17991  -1.07731
 Alpha  occ. eigenvalues --   -1.01522  -0.87373  -0.73284  -0.72122  -0.67193
 Alpha  occ. eigenvalues --   -0.61034  -0.57252  -0.55919  -0.53055  -0.48991
 Alpha  occ. eigenvalues --   -0.46270  -0.44725  -0.44090  -0.40868  -0.40039
 Alpha  occ. eigenvalues --   -0.38409  -0.38121  -0.36712  -0.34414  -0.31983
 Alpha  occ. eigenvalues --   -0.29762  -0.28841  -0.25944  -0.24939
 Alpha virt. eigenvalues --    0.06636   0.07790   0.09052   0.11636   0.12602
 Alpha virt. eigenvalues --    0.14144   0.15009   0.15672   0.16188   0.16608
 Alpha virt. eigenvalues --    0.17522   0.18043   0.18814   0.20836   0.22688

 Mulliken charges:
               1
     1  C   -0.489396
     2  C    0.321796
     3  C   -0.336756
     4  C   -0.105339
     5  C    0.027928
     6  O   -0.266839
     7  C   -0.004804
     8  C    0.036990
     9  O   -0.434728
    10  H    0.113218
    11  H    0.114028
    12  H    0.131534
    13  H    0.107944
    14  H    0.123965
    15  H    0.084529
    16  H    0.099312
    17  H    0.100952
    18  H    0.085729
    19  H    0.289937
 Sum of Mulliken charges =   0.00000

 Dipole moment (field-independent basis, Debye):
    X=              0.6427    Y=             -1.5196    Z=             -1.1931  Tot=              2.0361
 Quadrupole moment (field-independent basis, Debye-Ang):
   XX=            -54.0845   YY=            -55.7552   ZZ=            -50.4357
   XY=             -1.4992   XZ=              2.0320   YZ=              0.3872

  Exact polarizability:  77.519   0.098  74.709   2.023  -1.960  67.505
 Approx polarizability: 104.743   1.082 113.795  -1.348  -1.986 107.333

                      1                      2                      3
                      A                      A                      A
 Frequencies --    112.2149               201.4266               218.8470
 Red. masses --      3.7270                 1.8616                 1.7501
 Frc consts  --      0.0277                 0.0445                 0.0494
 IR Inten    --      3.4269                 4.1676                 2.7443

                      4                      5                      6
                      A                      A                      A
 Frequencies --    245.6243               290.5860               344.4193
 Red. masses --      2.4520                 2.5980                 1.2540
 Frc consts  --      0.0872                 0.1293                 0.0876
 IR Inten    --      0.2764                 0.8862                64.3602

                      7                      8                      9
                      A                      A                      A
 Frequencies --    379.5336               450.4202               528.7330
 Red. masses --      3.5536                 3.0792                 2.7711
 Frc consts  --      0.3016                 0.3681                 0.4564
 IR Inten    --     16.2565                16.3260                 3.1606

                     10                     11                     12
                      A                      A                      A
 Frequencies --    561.9147               660.5773               692.1570
 Red. masses --      4.3497                 3.5066                 4.9577
 Frc consts  --      0.8092                 0.9015                 1.3994
 IR Inten    --      3.3410                11.3890                 0.9407

                     13                     14                     15
                      A                      A                      A
 Frequencies --    731.6740               806.1070               830.7895
 Red. masses --      4.1250                 2.4568                 2.1907
 Frc consts  --      1.3011                 0.9406                 0.8909
 IR Inten    --      7.6936                 9.8754                 0.9980

                     16                     17                     18
                      A                      A                      A
 Frequencies --    874.4471               881.8152               910.9989
 Red. masses --      3.2910                 2.9847                 1.6929
 Frc consts  --      1.4827                 1.3674                 0.8278
 IR Inten    --      9.7514                24.4421                14.5375

                     19                     20                     21
                      A                      A                      A
 Frequencies --    971.9540               981.8910               997.0618
 Red. masses --      1.5322                 2.1745                 2.0103
 Frc consts  --      0.8528                 1.2352                 1.1775
 IR Inten    --      0.8038                 6.2675                 6.4864

                     22                     23                     24
                      A                      A                      A
 Frequencies --   1056.5850              1068.8333              1077.2208
 Red. masses --      1.5575                 1.4502                 1.5216
 Frc consts  --      1.0244                 0.9761                 1.0403
 IR Inten    --      4.2606                 0.0646                 9.2455

                     25                     26                     27
                      A                      A                      A
 Frequencies --   1089.8675              1097.1431              1115.1999
 Red. masses --      2.9406                 1.6280                 1.4482
 Frc consts  --      2.0579                 1.1546                 1.0612
 IR Inten    --    107.5832                 5.5083                11.3312

                     28                     29                     30
                      A                      A                      A
 Frequencies --   1124.1959              1223.2599              1259.6472
 Red. masses --      1.6402                 1.8421                 1.3675
 Frc consts  --      1.2213                 1.6241                 1.2785
 IR Inten    --      1.8429                 8.5744                 2.2175

                     31                     32                     33
                      A                      A                      A
 Frequencies --   1276.6122              1280.3166              1316.5335
 Red. masses --      1.4999                 1.8803                 1.8542
 Frc consts  --      1.4403                 1.8160                 1.8935
 IR Inten    --      7.2680                 4.0459                 4.0278

                     34                     35                     36
                      A                      A                      A
 Frequencies --   1338.0498              1398.2031              1417.0220
 Red. masses --      1.5252                 1.9628                 1.5170
 Frc consts  --      1.6089                 2.2609                 1.7947
 IR Inten    --      1.0436                 5.5496                 2.6296

                     37                     38                     39
                      A                      A                      A
 Frequencies --   1423.9903              1433.1560              1486.3545
 Red. masses --      2.1562                 1.3223                 1.2376
 Frc consts  --      2.5761                 1.6002                 1.6109
 IR Inten    --     11.1633                62.9579                 9.2073

                     40                     41                     42
                      A                      A                      A
 Frequencies --   1489.9357              1502.1697              3021.5304
 Red. masses --      1.1149                 1.0864                 1.0359
 Frc consts  --      1.4582                 1.4443                 5.5723
 IR Inten    --      2.0475                 4.7693                29.5162

                     43                     44                     45
                      A                      A                      A
 Frequencies --   3046.6065              3083.0018              3098.4412
 Red. masses --      1.0843                 1.1006                 1.1008
 Frc consts  --      5.9299                 6.1635                 6.2263
 IR Inten    --     27.6588                23.6017                20.5255

                     46                     47                     48
                      A                      A                      A
 Frequencies --   3135.8472              3142.3415              3158.3216
 Red. masses --      1.0555                 1.0887                 1.0929
 Frc consts  --      6.1151                 6.3339                 6.4233
 IR Inten    --     17.3398                20.7220                27.1369

                     49                     50                     51
                      A                      A                      A
 Frequencies --   3176.6931              3226.8748              3793.8395
 Red. masses --      1.0927                 1.1144                 1.0655
 Frc consts  --      6.4969                 6.8367                 9.0357
 IR Inten    --     20.8239                 4.2856                16.7022

 - Thermochemistry -
 -------------------
 Temperature   298.150 Kelvin.  Pressure   1.00000 Atm.
 Atom     1 has atomic number  6 and mass  12.00000

 Molecular mass:   126.06808 amu.
 Principal axes and moments of inertia in atomic units:
                           1         2         3
     Eigenvalues --   738.23963 980.787281322.33146
           X            0.99958  -0.02870   0.00461
           Y            0.02876   0.99949  -0.01387
           Z           -0.00421   0.01399   0.99989
 This molecule is an asymmetric top.
 Rotational symmetry number  1.
 Warning -- assumption of classical behavior for rotation
           may cause significant error
 Rotational temperatures (Kelvin)      0.11732     0.08831     0.06550
 Rotational constants (GHZ):           2.44465     1.84009     1.36482
 Zero-point vibrational energy     418878.3 (Joules/Mol)
                                  100.11432 (Kcal/Mol)
 Warning -- explicit consideration of  10 degrees of freedom as
           vibrations may cause significant error
 Vibrational temperatures:    161.45   289.81   314.87   353.40   418.09
          (Kelvin)            495.54   546.06   648.05   760.73   808.47
                              950.42   995.86  1052.71  1159.81  1195.32
                             1258.13  1268.73  1310.72  1398.42  1412.72
                             1434.55  1520.19  1537.81  1549.88  1568.07
                             1578.54  1604.52  1617.47  1760.00  1812.35
                             1836.76  1842.09  1894.20  1925.15  2011.70
                             2038.78  2048.80  2061.99  2138.53  2143.68
                             2161.28  4347.30  4383.38  4435.75  4457.96
                             4511.78  4521.12  4544.11  4570.55  4642.75
                             5458.48

 Zero-point correction=                           0.159542 (Hartree/Particle)
 Thermal correction to Energy=                    0.167526
 Thermal correction to Enthalpy=                  0.168470
 Thermal correction to Gibbs Free Energy=         0.127488
 Sum of electronic and zero-point Energies=           -423.000194
 Sum of electronic and thermal Energies=              -422.992211
 Sum of electronic and thermal Enthalpies=            -422.991267
 Sum of electronic and thermal Free Energies=         -423.032248

                     E (Thermal)             CV                S
                      KCal/Mol        Cal/Mol-Kelvin    Cal/Mol-Kelvin
 Total                  105.124             31.872             86.253
 Electronic               0.000              0.000              0.000
 Translational            0.889              2.981             40.409
 Rotational               0.889              2.981             28.350
 Vibrational            103.346             25.910             17.494
 Vibration     1          0.607              1.939              3.230
 Vibration     2          0.638              1.838              2.120
 Vibration     3          0.647              1.812              1.969
 Vibration     4          0.660              1.770              1.762
 Vibration     5          0.687              1.691              1.471
 Vibration     6          0.723              1.587              1.192
 Vibration     7          0.750              1.514              1.041
 Vibration     8          0.809              1.360              0.795
 Vibration     9          0.884              1.186              0.590
 Vibration    10          0.918              1.114              0.520

 Optimization completed.
    -- Stationary point found.
 Normal termination of Gaussian 09 at Mon Jan 27 23:53:27 2020.
