 Gaussian 09, Revision D.01,
 Gaussian 09:  ES64L-G09RevD.01 24-Apr-2013

 -----------------------------
 # b3lyp 6-31G(2df,p) opt Freq
 -----------------------------

 -----
 titel
 -----
 Symbolic Z-matrix:
 Charge =  0 Multiplicity = 1

 SCF Done:  E(RB3LYP) =  -423.164256627     A.U. after   14 cycles
 Optimization completed.
    -- Stationary point found.
 Normal termination of Gaussian 09 at Tue Jan 28 08:47:11 2020.

 ----------------------------------------------------------------------
 #N Geom=AllCheck Guess=TCheck SCRF=Check GenChk RB3LYP/6-31G(2df,p) Fr
 eq
 ----------------------------------------------------------------------

 Structure from the checkpoint file:  "/scratch/puck/g09_a2356d1e-34e2-402c-b2e4-91a9eb5dc782/Gau-129458.chk"
 -----
 titel
 -----
 Charge =  0 Multiplicity = 1

                         Standard orientation:
 ---------------------------------------------------------------------
 Center     Atomic      Atomic             Coordinates (Angstroms)
 Number     Number       Type             X           Y           Z
 ---------------------------------------------------------------------
      1          6           0       -1.020763    1.395842    1.034503
      2          6           0       -0.358869    0.432040    0.035840
      3          6           0       -1.409769   -0.237866   -0.876461
      4          8           0       -2.417657   -0.929764   -0.155844
      5          6           0        0.701199    1.145520   -0.793263
      6          6           0        1.938432    0.706222   -0.549862
      7          6           0        1.897030   -0.419788    0.429499
      8          8           0        1.144752   -1.559531   -0.057014
      9          6           0        0.480591   -0.617433    0.782187
     10          1           0       -1.540769    2.207791    0.513616
     11          1           0       -1.746154    0.866582    1.662196
     12          1           0       -0.275133    1.848845    1.694398
     13          1           0       -1.847314    0.515637   -1.549759
     14          1           0       -0.903460   -0.986841   -1.490193
     15          1           0       -3.030875   -0.281556    0.202118
     16          1           0        0.436688    1.911002   -1.516028
     17          1           0        2.848678    1.071226   -1.009417
     18          1           0        2.731133   -0.666316    1.079053
     19          1           0        0.143338   -0.999231    1.742220
 ---------------------------------------------------------------------

 SCF Done:  E(RB3LYP) =  -423.164256627     A.U. after    1 cycles

 The electronic state is 1-A.
 Alpha  occ. eigenvalues --  -19.14510 -19.13655 -10.23447 -10.22937 -10.22517
 Alpha  occ. eigenvalues --  -10.20053 -10.18923 -10.18744 -10.18549  -1.06563
 Alpha  occ. eigenvalues --   -1.01679  -0.83416  -0.75781  -0.68876  -0.66120
 Alpha  occ. eigenvalues --   -0.64025  -0.56703  -0.54616  -0.52151  -0.49790
 Alpha  occ. eigenvalues --   -0.45480  -0.44283  -0.43538  -0.41943  -0.39971
 Alpha  occ. eigenvalues --   -0.38721  -0.37264  -0.35987  -0.34755  -0.32655
 Alpha  occ. eigenvalues --   -0.31214  -0.26907  -0.25967  -0.24509
 Alpha virt. eigenvalues --   -0.00337   0.06787   0.10633   0.11067   0.12733
 Alpha virt. eigenvalues --    0.13657   0.14305   0.15586   0.15667   0.16803
 Alpha virt. eigenvalues --    0.17870   0.18620   0.19786   0.21116   0.21483

 Mulliken charges:
               1
     1  C   -0.455272
     2  C    0.199207
     3  C   -0.098837
     4  O   -0.423612
     5  C   -0.119451
     6  C   -0.103154
     7  C   -0.009718
     8  O   -0.262076
     9  C    0.019303
    10  H    0.113961
    11  H    0.115545
    12  H    0.126417
    13  H    0.081763
    14  H    0.134440
    15  H    0.284784
    16  H    0.099411
    17  H    0.105209
    18  H    0.097240
    19  H    0.094839
 Sum of Mulliken charges =   0.00000

 Dipole moment (field-independent basis, Debye):
    X=             -0.1407    Y=              2.9943    Z=              0.7589  Tot=              3.0921
 Quadrupole moment (field-independent basis, Debye-Ang):
   XX=            -48.4430   YY=            -58.0751   ZZ=            -51.3202
   XY=             -2.3593   XZ=             -0.1068   YZ=             -2.3389

  Exact polarizability:  91.629  -3.349  68.690  -1.696  -5.415  65.756
 Approx polarizability: 134.933  -7.214 108.160  -1.590  -7.045  98.074

                      1                      2                      3
                      A                      A                      A
 Frequencies --     98.7962               151.5674               189.7942
 Red. masses --      4.1388                 3.4694                 3.1540
 Frc consts  --      0.0238                 0.0470                 0.0669
 IR Inten    --      1.1539                 1.3757                 3.8001

                      4                      5                      6
                      A                      A                      A
 Frequencies --    226.8739               282.7652               313.7863
 Red. masses --      1.0425                 2.8711                 2.0297
 Frc consts  --      0.0316                 0.1353                 0.1177
 IR Inten    --     13.1665                32.7225                 7.5595

                      7                      8                      9
                      A                      A                      A
 Frequencies --    341.0792               399.4613               414.7135
 Red. masses --      1.2320                 3.3309                 3.9374
 Frc consts  --      0.0844                 0.3132                 0.3990
 IR Inten    --     71.0943                13.6024                 1.8233

                     10                     11                     12
                      A                      A                      A
 Frequencies --    478.8323               601.7516               653.9903
 Red. masses --      3.3494                 3.7397                 3.9254
 Frc consts  --      0.4525                 0.7979                 0.9892
 IR Inten    --      1.0463                 6.6303                 9.6483

                     13                     14                     15
                      A                      A                      A
 Frequencies --    754.5303               771.1841               823.3423
 Red. masses --      3.0978                 2.0822                 3.0849
 Frc consts  --      1.0391                 0.7296                 1.2321
 IR Inten    --     12.3331                10.1034                 9.4229

                     16                     17                     18
                      A                      A                      A
 Frequencies --    853.3613               866.1474               905.4048
 Red. masses --      3.2740                 2.5961                 1.7868
 Frc consts  --      1.4048                 1.1475                 0.8630
 IR Inten    --      3.4326                37.0967                 8.0755

                     19                     20                     21
                      A                      A                      A
 Frequencies --    934.5936               954.1079               971.7313
 Red. masses --      1.9509                 1.4686                 1.4864
 Frc consts  --      1.0040                 0.7877                 0.8270
 IR Inten    --      9.5216                 3.4129                 5.2342

                     22                     23                     24
                      A                      A                      A
 Frequencies --    989.5522              1033.0956              1066.1858
 Red. masses --      2.3630                 1.7400                 5.1833
 Frc consts  --      1.3633                 1.0941                 3.4715
 IR Inten    --      9.4456                12.7199               113.7994

                     25                     26                     27
                      A                      A                      A
 Frequencies --   1105.9638              1107.8464              1134.5910
 Red. masses --      1.2820                 1.4269                 1.4760
 Frc consts  --      0.9239                 1.0318                 1.1195
 IR Inten    --      0.4830                 6.8715                 1.1961

                     28                     29                     30
                      A                      A                      A
 Frequencies --   1183.1571              1216.4909              1253.3275
 Red. masses --      2.5733                 2.1413                 1.5128
 Frc consts  --      2.1224                 1.8670                 1.4001
 IR Inten    --      2.2864                20.8607                 4.0269

                     31                     32                     33
                      A                      A                      A
 Frequencies --   1272.9530              1305.8459              1376.2612
 Red. masses --      1.4902                 1.5465                 1.8116
 Frc consts  --      1.4227                 1.5537                 2.0217
 IR Inten    --      8.6844                 4.0610                 7.2086

                     34                     35                     36
                      A                      A                      A
 Frequencies --   1383.6093              1399.1530              1409.4534
 Red. masses --      1.2554                 1.9249                 1.3804
 Frc consts  --      1.4160                 2.2201                 1.6156
 IR Inten    --      2.0106                 5.4323                12.9501

                     37                     38                     39
                      A                      A                      A
 Frequencies --   1417.3876              1492.9815              1496.6070
 Red. masses --      1.3904                 1.0650                 1.0631
 Frc consts  --      1.6457                 1.3986                 1.4029
 IR Inten    --     24.6568                 5.4901                 0.1928

                     40                     41                     42
                      A                      A                      A
 Frequencies --   1507.3777              1659.0680              2981.7495
 Red. masses --      1.0596                 6.5064                 1.0706
 Frc consts  --      1.4185                10.5516                 5.6081
 IR Inten    --      6.5354                 2.2972                54.9517

                     43                     44                     45
                      A                      A                      A
 Frequencies --   3026.8980              3093.9321              3106.4024
 Red. masses --      1.0354                 1.1013                 1.0942
 Frc consts  --      5.5892                 6.2111                 6.2213
 IR Inten    --     25.1402                20.0390                13.4350

                     46                     47                     48
                      A                      A                      A
 Frequencies --   3107.3666              3146.5210              3166.5809
 Red. masses --      1.0990                 1.0888                 1.0928
 Frc consts  --      6.2522                 6.3515                 6.4561
 IR Inten    --     16.7499                15.2280                28.5804

                     49                     50                     51
                      A                      A                      A
 Frequencies --   3178.9633              3215.4341              3833.1109
 Red. masses --      1.0878                 1.1019                 1.0662
 Frc consts  --      6.4769                 6.7120                 9.2295
 IR Inten    --     11.2495                14.4280                20.6150

 - Thermochemistry -
 -------------------
 Temperature   298.150 Kelvin.  Pressure   1.00000 Atm.
 Atom     1 has atomic number  6 and mass  12.00000

 Molecular mass:   126.06808 amu.
 Principal axes and moments of inertia in atomic units:
                           1         2         3
     Eigenvalues --   661.907091234.497621457.49957
           X            0.99984  -0.01760  -0.00416
           Y            0.01760   0.99984  -0.00074
           Z            0.00417   0.00066   0.99999
 This molecule is an asymmetric top.
 Rotational symmetry number  1.
 Warning -- assumption of classical behavior for rotation
           may cause significant error
 Rotational temperatures (Kelvin)      0.13085     0.07016     0.05943
 Rotational constants (GHZ):           2.72658     1.46192     1.23824
 Zero-point vibrational energy     416633.5 (Joules/Mol)
                                   99.57779 (Kcal/Mol)
 Warning -- explicit consideration of  11 degrees of freedom as
           vibrations may cause significant error
 Vibrational temperatures:    142.15   218.07   273.07   326.42   406.84
          (Kelvin)            451.47   490.74   574.74   596.68   688.93
                              865.79   940.94  1085.60  1109.56  1184.60
                             1227.79  1246.19  1302.67  1344.67  1372.75
                             1398.10  1423.74  1486.39  1534.00  1591.23
                             1593.94  1632.42  1702.30  1750.26  1803.26
                             1831.49  1878.82  1980.13  1990.70  2013.07
                             2027.89  2039.30  2148.06  2153.28  2168.78
                             2387.03  4290.07  4355.03  4451.47  4469.41
                             4470.80  4527.14  4556.00  4573.81  4626.29
                             5514.98

 Zero-point correction=                           0.158687 (Hartree/Particle)
 Thermal correction to Energy=                    0.167205
 Thermal correction to Enthalpy=                  0.168150
 Thermal correction to Gibbs Free Energy=         0.125905
 Sum of electronic and zero-point Energies=           -423.005569
 Sum of electronic and thermal Energies=              -422.997051
 Sum of electronic and thermal Enthalpies=            -422.996107
 Sum of electronic and thermal Free Energies=         -423.038351

                     E (Thermal)             CV                S
                      KCal/Mol        Cal/Mol-Kelvin    Cal/Mol-Kelvin
 Total                  104.923             33.045             88.910
 Electronic               0.000              0.000              0.000
 Translational            0.889              2.981             40.409
 Rotational               0.889              2.981             28.567
 Vibrational            103.146             27.084             19.935
 Vibration     1          0.604              1.950              3.478
 Vibration     2          0.619              1.901              2.652
 Vibration     3          0.633              1.854              2.230
 Vibration     4          0.651              1.800              1.904
 Vibration     5          0.682              1.706              1.517
 Vibration     6          0.702              1.647              1.342
 Vibration     7          0.721              1.593              1.207
 Vibration     8          0.766              1.471              0.965
 Vibration     9          0.778              1.438              0.910
 Vibration    10          0.835              1.297              0.713
 Vibration    11          0.960              1.028              0.447

 Optimization completed.
    -- Stationary point found.
 Normal termination of Gaussian 09 at Tue Jan 28 09:31:30 2020.
