 Gaussian 09, Revision D.01,
 Gaussian 09:  ES64L-G09RevD.01 24-Apr-2013

 -----------------------------
 # b3lyp 6-31G(2df,p) opt Freq
 -----------------------------

 -----
 titel
 -----
 Symbolic Z-matrix:
 Charge =  0 Multiplicity = 1

 SCF Done:  E(RB3LYP) =  -423.169445019     A.U. after   13 cycles
 Optimization completed.
    -- Stationary point found.
 Normal termination of Gaussian 09 at Mon Jan 27 12:44:58 2020.

 ----------------------------------------------------------------------
 #N Geom=AllCheck Guess=TCheck SCRF=Check GenChk RB3LYP/6-31G(2df,p) Fr
 eq
 ----------------------------------------------------------------------

 Structure from the checkpoint file:  "/scratch/puck/g09_eef7a9b0-3dfe-4287-be53-540539d1d1ca/Gau-44488.chk"
 -----
 titel
 -----
 Charge =  0 Multiplicity = 1

                         Standard orientation:
 ---------------------------------------------------------------------
 Center     Atomic      Atomic             Coordinates (Angstroms)
 Number     Number       Type             X           Y           Z
 ---------------------------------------------------------------------
      1          6           0       -0.884061    1.311285   -0.571857
      2          8           0       -1.792089    0.217141   -0.705371
      3          6           0       -1.468589   -0.776903    0.215616
      4          6           0       -0.088704   -1.391751    0.186310
      5          8           0        0.781004   -1.034025   -0.843734
      6          6           0        1.924091   -0.339440   -0.341155
      7          6           0        1.538614    1.026460    0.276681
      8          6           0        0.040126    1.055401    0.659305
      9          6           0       -0.428283   -0.300832    1.187727
     10          1           0       -0.292989    1.397998   -1.489384
     11          1           0       -1.474251    2.228847   -0.454715
     12          1           0       -2.321395   -1.384521    0.497495
     13          1           0        0.026080   -2.415003    0.545602
     14          1           0        2.432897   -0.967166    0.404221
     15          1           0        2.599018   -0.220387   -1.191963
     16          1           0        2.155499    1.211418    1.162531
     17          1           0        1.749067    1.841180   -0.424711
     18          1           0       -0.124877    1.827743    1.414293
     19          1           0       -0.459529   -0.490354    2.253701
 ---------------------------------------------------------------------

 SCF Done:  E(RB3LYP) =  -423.169445019     A.U. after    1 cycles

 The electronic state is 1-A.
 Alpha  occ. eigenvalues --  -19.14345 -19.13619 -10.23064 -10.22879 -10.22814
 Alpha  occ. eigenvalues --  -10.22286 -10.19866 -10.18758 -10.18616  -1.05186
 Alpha  occ. eigenvalues --   -1.02498  -0.84095  -0.79513  -0.71664  -0.63998
 Alpha  occ. eigenvalues --   -0.62696  -0.58077  -0.53882  -0.52664  -0.47566
 Alpha  occ. eigenvalues --   -0.47411  -0.45616  -0.43890  -0.42343  -0.42148
 Alpha  occ. eigenvalues --   -0.38879  -0.36984  -0.35169  -0.33063  -0.32144
 Alpha  occ. eigenvalues --   -0.31814  -0.27678  -0.25706  -0.22052
 Alpha virt. eigenvalues --    0.07689   0.09333   0.10684   0.12124   0.12622
 Alpha virt. eigenvalues --    0.12670   0.15326   0.16085   0.16676   0.17495
 Alpha virt. eigenvalues --    0.17722   0.18521   0.20936   0.21846   0.22892

 Mulliken charges:
               1
     1  C   -0.075424
     2  O   -0.254804
     3  C    0.079979
     4  C    0.042773
     5  O   -0.244229
     6  C   -0.064091
     7  C   -0.238887
     8  C   -0.038766
     9  C   -0.169795
    10  H    0.105774
    11  H    0.096424
    12  H    0.101823
    13  H    0.083226
    14  H    0.094040
    15  H    0.110376
    16  H    0.099406
    17  H    0.103604
    18  H    0.079438
    19  H    0.089133
 Sum of Mulliken charges =   0.00000

 Dipole moment (field-independent basis, Debye):
    X=              1.3708    Y=              0.7322    Z=              2.0966  Tot=              2.6098
 Quadrupole moment (field-independent basis, Debye-Ang):
   XX=            -53.5177   YY=            -50.6167   ZZ=            -54.0115
   XY=              1.6255   XZ=             -2.1322   YZ=             -2.4543

  Exact polarizability:  77.602   1.790  75.796  -1.339  -3.012  65.036
 Approx polarizability: 107.736   2.540 107.824   0.545  -1.807 102.696

                      1                      2                      3
                      A                      A                      A
 Frequencies --    112.7486               145.8340               274.4248
 Red. masses --      2.5285                 2.4482                 4.2239
 Frc consts  --      0.0189                 0.0307                 0.1874
 IR Inten    --      3.6079                 0.2352                 4.1278

                      4                      5                      6
                      A                      A                      A
 Frequencies --    327.8084               446.5221               517.6300
 Red. masses --      2.5448                 4.4662                 3.6070
 Frc consts  --      0.1611                 0.5247                 0.5694
 IR Inten    --      0.5959                 6.0963                 0.8950

                      7                      8                      9
                      A                      A                      A
 Frequencies --    603.6529               656.1064               734.9039
 Red. masses --      5.8669                 4.4619                 5.5116
 Frc consts  --      1.2596                 1.1317                 1.7538
 IR Inten    --      8.3253                 2.3868                 4.6369

                     10                     11                     12
                      A                      A                      A
 Frequencies --    762.0886               770.4718               784.2337
 Red. masses --      2.2036                 2.1151                 1.9603
 Frc consts  --      0.7540                 0.7398                 0.7103
 IR Inten    --      0.9542                20.4761                11.3650

                     13                     14                     15
                      A                      A                      A
 Frequencies --    833.4878               858.9183               914.7224
 Red. masses --      2.2650                 2.0324                 2.9996
 Frc consts  --      0.9271                 0.8834                 1.4787
 IR Inten    --      0.9653                 0.9618                 4.2681

                     16                     17                     18
                      A                      A                      A
 Frequencies --    949.1981               991.0039               995.9303
 Red. masses --      3.1230                 2.0849                 2.8719
 Frc consts  --      1.6578                 1.2064                 1.6784
 IR Inten    --     16.9161                13.9897                 2.9834

                     19                     20                     21
                      A                      A                      A
 Frequencies --   1017.3678              1044.1368              1062.5270
 Red. masses --      1.8161                 1.7939                 2.4520
 Frc consts  --      1.1075                 1.1523                 1.6310
 IR Inten    --     18.4294                15.9714                11.8261

                     22                     23                     24
                      A                      A                      A
 Frequencies --   1077.9944              1097.7996              1102.8224
 Red. masses --      1.9537                 1.8207                 1.8406
 Frc consts  --      1.3376                 1.2928                 1.3189
 IR Inten    --      3.1518                26.4999                20.2515

                     25                     26                     27
                      A                      A                      A
 Frequencies --   1135.9274              1153.6861              1212.1837
 Red. masses --      1.9190                 3.4040                 1.9745
 Frc consts  --      1.4589                 2.6694                 1.7094
 IR Inten    --      2.6221                35.7813                71.6833

                     28                     29                     30
                      A                      A                      A
 Frequencies --   1233.3172              1248.4021              1273.8387
 Red. masses --      1.1983                 1.2503                 1.6942
 Frc consts  --      1.0739                 1.1481                 1.6197
 IR Inten    --     12.5872                 0.5499                 9.5917

                     31                     32                     33
                      A                      A                      A
 Frequencies --   1300.0185              1301.2809              1316.7541
 Red. masses --      1.2777                 1.4058                 1.2219
 Frc consts  --      1.2722                 1.4026                 1.2483
 IR Inten    --      5.9773                 3.0352                 3.3988

                     34                     35                     36
                      A                      A                      A
 Frequencies --   1336.3282              1369.1598              1389.1339
 Red. masses --      1.3094                 1.3828                 1.4646
 Frc consts  --      1.3777                 1.5272                 1.6651
 IR Inten    --      7.1290                 8.9633                 3.2702

                     37                     38                     39
                      A                      A                      A
 Frequencies --   1411.2049              1433.3144              1494.4001
 Red. masses --      1.3349                 2.0398                 1.0848
 Frc consts  --      1.5663                 2.4690                 1.4273
 IR Inten    --      5.4702                 9.5111                 1.1473

                     40                     41                     42
                      A                      A                      A
 Frequencies --   1510.5913              1521.4816              2998.6838
 Red. masses --      1.0937                 1.0886                 1.0707
 Frc consts  --      1.4704                 1.4848                 5.6725
 IR Inten    --      1.3121                 0.5292                54.1499

                     43                     44                     45
                      A                      A                      A
 Frequencies --   3018.1387              3036.9042              3061.1819
 Red. masses --      1.0625                 1.0619                 1.0978
 Frc consts  --      5.7025                 5.7705                 6.0610
 IR Inten    --     58.9537                27.3993                22.0747

                     46                     47                     48
                      A                      A                      A
 Frequencies --   3070.0289              3080.8377              3093.0190
 Red. masses --      1.0969                 1.0939                 1.0879
 Frc consts  --      6.0914                 6.1176                 6.1319
 IR Inten    --     34.1495                37.1639                44.7171

                     49                     50                     51
                      A                      A                      A
 Frequencies --   3101.4362              3171.8639              3183.3256
 Red. masses --      1.0970                 1.0895                 1.0947
 Frc consts  --      6.2172                 6.4579                 6.5360
 IR Inten    --     38.6550                16.9377                20.5329

 - Thermochemistry -
 -------------------
 Temperature   298.150 Kelvin.  Pressure   1.00000 Atm.
 Atom     1 has atomic number  6 and mass  12.00000

 Molecular mass:   126.06808 amu.
 Principal axes and moments of inertia in atomic units:
                           1         2         3
     Eigenvalues --   655.25622 934.542001148.82646
           X            0.99948   0.03014  -0.01168
           Y           -0.03069   0.99823  -0.05100
           Z            0.01012   0.05134   0.99863
 This molecule is an asymmetric top.
 Rotational symmetry number  1.
 Warning -- assumption of classical behavior for rotation
           may cause significant error
 Rotational temperatures (Kelvin)      0.13218     0.09268     0.07539
 Rotational constants (GHZ):           2.75425     1.93115     1.57094
 Zero-point vibrational energy     427896.9 (Joules/Mol)
                                  102.26981 (Kcal/Mol)
 Warning -- explicit consideration of   7 degrees of freedom as
           vibrations may cause significant error
 Vibrational temperatures:    162.22   209.82   394.84   471.64   642.44
          (Kelvin)            744.75   868.52   943.99  1057.36  1096.47
                             1108.54  1128.34  1199.20  1235.79  1316.08
                             1365.68  1425.83  1432.92  1463.76  1502.28
                             1528.74  1550.99  1579.49  1586.71  1634.34
                             1659.89  1744.06  1774.47  1796.17  1832.77
                             1870.43  1872.25  1894.51  1922.68  1969.91
                             1998.65  2030.41  2062.22  2150.11  2173.40
                             2189.07  4314.43  4342.42  4369.42  4404.35
                             4417.08  4432.63  4450.16  4462.27  4563.60
                             4580.09

 Zero-point correction=                           0.162977 (Hartree/Particle)
 Thermal correction to Energy=                    0.169798
 Thermal correction to Enthalpy=                  0.170743
 Thermal correction to Gibbs Free Energy=         0.131736
 Sum of electronic and zero-point Energies=           -423.006468
 Sum of electronic and thermal Energies=              -422.999647
 Sum of electronic and thermal Enthalpies=            -422.998702
 Sum of electronic and thermal Free Energies=         -423.037709

                     E (Thermal)             CV                S
                      KCal/Mol        Cal/Mol-Kelvin    Cal/Mol-Kelvin
 Total                  106.550             27.643             82.096
 Electronic               0.000              0.000              0.000
 Translational            0.889              2.981             40.409
 Rotational               0.889              2.981             28.044
 Vibrational            104.773             21.681             13.643
 Vibration     1          0.607              1.939              3.221
 Vibration     2          0.617              1.907              2.726
 Vibration     3          0.677              1.721              1.568
 Vibration     4          0.711              1.620              1.271
 Vibration     5          0.806              1.369              0.806
 Vibration     6          0.873              1.211              0.615
 Vibration     7          0.962              1.024              0.443

 Normal termination of Gaussian 09 at Mon Jan 27 13:28:51 2020.
