 Gaussian 09, Revision D.01,
 Gaussian 09:  ES64L-G09RevD.01 24-Apr-2013

 -----------------------------
 # b3lyp 6-31G(2df,p) opt Freq
 -----------------------------

 -----
 titel
 -----
 Symbolic Z-matrix:
 Charge =  0 Multiplicity = 1

 SCF Done:  E(RB3LYP) =  -423.122644169     A.U. after   14 cycles
 Optimization completed.
    -- Stationary point found.
 Normal termination of Gaussian 09 at Tue Jan 28 13:25:34 2020.

 ----------------------------------------------------------------------
 #N Geom=AllCheck Guess=TCheck SCRF=Check GenChk RB3LYP/6-31G(2df,p) Fr
 eq
 ----------------------------------------------------------------------

 Structure from the checkpoint file:  "/scratch/puck/g09_db2f4d9e-3656-4d6f-a380-3f77c6ee4daa/Gau-118414.chk"
 -----
 titel
 -----
 Charge =  0 Multiplicity = 1

                         Standard orientation:
 ---------------------------------------------------------------------
 Center     Atomic      Atomic             Coordinates (Angstroms)
 Number     Number       Type             X           Y           Z
 ---------------------------------------------------------------------
      1          6           0        3.135320   -0.735532   -0.146450
      2          8           0        2.024436   -0.015995   -0.636376
      3          6           0        0.976822    0.089093    0.278725
      4          6           0        0.039600   -1.127687    0.531814
      5          6           0       -1.161946   -0.128595    0.556728
      6          6           0       -2.427953   -0.522837   -0.017814
      7          6           0       -3.469363   -0.852538   -0.521324
      8          6           0       -0.245710    0.879994   -0.225285
      9          8           0       -0.357515    2.254960   -0.014608
     10          1           0        2.878464   -1.778503    0.091189
     11          1           0        3.896204   -0.730284   -0.930123
     12          1           0        3.553579   -0.267823    0.758794
     13          1           0        1.333826    0.502587    1.239512
     14          1           0       -0.003943   -1.769851   -0.350537
     15          1           0        0.197566   -1.733877    1.424166
     16          1           0       -1.308689    0.244988    1.577851
     17          1           0       -4.391296   -1.140630   -0.961954
     18          1           0       -0.357274    0.716326   -1.300254
     19          1           0       -0.214432    2.433952    0.920857
 ---------------------------------------------------------------------

 SCF Done:  E(RB3LYP) =  -423.122644169     A.U. after    1 cycles

 The electronic state is 1-A.
 Alpha  occ. eigenvalues --  -19.14680 -19.14502 -10.23805 -10.23750 -10.22922
 Alpha  occ. eigenvalues --  -10.21343 -10.19236 -10.17795 -10.16863  -1.04435
 Alpha  occ. eigenvalues --   -1.02765  -0.85197  -0.74964  -0.70479  -0.66241
 Alpha  occ. eigenvalues --   -0.64877  -0.58731  -0.54051  -0.52138  -0.50200
 Alpha  occ. eigenvalues --   -0.46190  -0.46044  -0.43757  -0.41850  -0.41134
 Alpha  occ. eigenvalues --   -0.39913  -0.37621  -0.35968  -0.33511  -0.31084
 Alpha  occ. eigenvalues --   -0.28644  -0.26628  -0.25198  -0.24672
 Alpha virt. eigenvalues --    0.04688   0.05180   0.07798   0.08139   0.10898
 Alpha virt. eigenvalues --    0.11258   0.13393   0.14260   0.15360   0.15772
 Alpha virt. eigenvalues --    0.17321   0.17777   0.18891   0.19724   0.21831

 Mulliken charges:
               1
     1  C   -0.242785
     2  O   -0.240208
     3  C    0.106675
     4  C   -0.284750
     5  C   -0.224898
     6  C    0.308062
     7  C   -0.438050
     8  C    0.114135
     9  O   -0.422512
    10  H    0.110370
    11  H    0.131844
    12  H    0.105279
    13  H    0.054146
    14  H    0.125525
    15  H    0.109655
    16  H    0.094808
    17  H    0.193958
    18  H    0.118817
    19  H    0.279929
 Sum of Mulliken charges =   0.00000

 Dipole moment (field-independent basis, Debye):
    X=              1.1598    Y=             -1.1689    Z=              2.1043  Tot=              2.6719
 Quadrupole moment (field-independent basis, Debye-Ang):
   XX=            -49.6773   YY=            -55.4515   ZZ=            -51.0806
   XY=             -0.3978   XZ=              2.9888   YZ=              4.3851

  Exact polarizability: 105.844   4.984  68.890   8.196   3.788  64.391
 Approx polarizability: 137.827  11.060  99.853  16.645   6.795 102.868

                      1                      2                      3
                      A                      A                      A
 Frequencies --     64.1021                90.4526               132.9994
 Red. masses --      3.4636                 2.7464                 4.1564
 Frc consts  --      0.0084                 0.0132                 0.0433
 IR Inten    --      0.2011                 2.6521                 0.3009

                      4                      5                      6
                      A                      A                      A
 Frequencies --    176.1006               212.3466               220.4594
 Red. masses --      1.4489                 2.7788                 2.0577
 Frc consts  --      0.0265                 0.0738                 0.0589
 IR Inten    --      1.4772                 6.2418                 0.5517

                      7                      8                      9
                      A                      A                      A
 Frequencies --    260.5434               323.5934               376.8496
 Red. masses --      1.7648                 2.0993                 3.3721
 Frc consts  --      0.0706                 0.1295                 0.2822
 IR Inten    --     22.5087                68.7108                15.4155

                     10                     11                     12
                      A                      A                      A
 Frequencies --    415.6199               487.3895               505.3645
 Red. masses --      5.3372                 3.5558                 4.7011
 Frc consts  --      0.5432                 0.4977                 0.7074
 IR Inten    --      5.4553                13.6465                 1.9629

                     13                     14                     15
                      A                      A                      A
 Frequencies --    565.3276               586.4433               618.9178
 Red. masses --      2.8933                 3.0403                 1.2063
 Frc consts  --      0.5448                 0.6160                 0.2722
 IR Inten    --      3.0440                 0.5728                45.0305

                     16                     17                     18
                      A                      A                      A
 Frequencies --    625.6354               827.9899               841.2950
 Red. masses --      1.2183                 2.4033                 2.0445
 Frc consts  --      0.2810                 0.9708                 0.8526
 IR Inten    --     44.7345                 4.2042                 5.3437

                     19                     20                     21
                      A                      A                      A
 Frequencies --    936.9158              1007.3750              1024.8470
 Red. masses --      5.1088                 2.5538                 3.3850
 Frc consts  --      2.6422                 1.5269                 2.0947
 IR Inten    --     19.4648                 9.5921                29.2347

                     22                     23                     24
                      A                      A                      A
 Frequencies --   1052.8585              1085.6748              1096.7447
 Red. masses --      2.3670                 2.6417                 1.8675
 Frc consts  --      1.5459                 1.8346                 1.3235
 IR Inten    --     22.2145                11.7448                11.2855

                     25                     26                     27
                      A                      A                      A
 Frequencies --   1152.4294              1174.7191              1183.2767
 Red. masses --      3.3172                 2.2210                 1.2952
 Frc consts  --      2.5956                 1.8058                 1.0684
 IR Inten    --    187.6435                80.7506                 7.1246

                     28                     29                     30
                      A                      A                      A
 Frequencies --   1198.4450              1203.7706              1214.0605
 Red. masses --      1.2244                 1.4505                 1.3070
 Frc consts  --      1.0361                 1.2384                 1.1350
 IR Inten    --      4.1313                33.1563                 2.7537

                     31                     32                     33
                      A                      A                      A
 Frequencies --   1254.3909              1265.1775              1322.9585
 Red. masses --      1.4185                 1.8602                 1.5050
 Frc consts  --      1.3151                 1.7543                 1.5520
 IR Inten    --      7.6219                54.4379                 0.6159

                     34                     35                     36
                      A                      A                      A
 Frequencies --   1354.8459              1398.6624              1437.8435
 Red. masses --      1.4343                 1.3615                 1.2517
 Frc consts  --      1.5513                 1.5692                 1.5247
 IR Inten    --     21.8436                35.0924                49.4421

                     37                     38                     39
                      A                      A                      A
 Frequencies --   1481.1672              1486.7059              1493.8356
 Red. masses --      1.1213                 1.0640                 1.1632
 Frc consts  --      1.4494                 1.3856                 1.5294
 IR Inten    --      0.7513                14.5258                 8.2055

                     40                     41                     42
                      A                      A                      A
 Frequencies --   1508.6076              2234.4838              2938.8455
 Red. masses --      1.0807                 5.9884                 1.0813
 Frc consts  --      1.4491                17.6163                 5.5023
 IR Inten    --      6.3762                 7.1318                48.2243

                     43                     44                     45
                      A                      A                      A
 Frequencies --   2976.2123              3025.0146              3028.2995
 Red. masses --      1.0384                 1.1019                 1.0825
 Frc consts  --      5.4192                 5.9406                 5.8489
 IR Inten    --     64.0707                46.4063                20.8253

                     46                     47                     48
                      A                      A                      A
 Frequencies --   3079.5879              3096.7088              3119.3132
 Red. masses --      1.0584                 1.0854                 1.0964
 Frc consts  --      5.9141                 6.1326                 6.2854
 IR Inten    --     15.9026                13.2994                28.6336

                     49                     50                     51
                      A                      A                      A
 Frequencies --   3142.8175              3505.5820              3806.9008
 Red. masses --      1.1097                 1.1608                 1.0658
 Frc consts  --      6.4580                 8.4050                 9.1009
 IR Inten    --     18.4343                76.3197                17.8352

 - Thermochemistry -
 -------------------
 Temperature   298.150 Kelvin.  Pressure   1.00000 Atm.
 Atom     1 has atomic number  6 and mass  12.00000

 Molecular mass:   126.06808 amu.
 Principal axes and moments of inertia in atomic units:
                           1         2         3
     Eigenvalues --   615.538481850.736102253.94439
           X            0.99987  -0.01402   0.00805
           Y            0.01390   0.99978   0.01558
           Z           -0.00827  -0.01547   0.99985
 This molecule is an asymmetric top.
 Rotational symmetry number  1.
 Warning -- assumption of classical behavior for rotation
           may cause significant error
 Rotational temperatures (Kelvin)      0.14071     0.04680     0.03843
 Rotational constants (GHZ):           2.93197     0.97515     0.80070
 Zero-point vibrational energy     410441.8 (Joules/Mol)
                                   98.09794 (Kcal/Mol)
 Warning -- explicit consideration of  15 degrees of freedom as
           vibrations may cause significant error
 Vibrational temperatures:     92.23   130.14   191.36   253.37   305.52
          (Kelvin)            317.19   374.86   465.58   542.20   597.98
                              701.24   727.11   813.38   843.76   890.48
                              900.15  1191.29  1210.43  1348.01  1449.39
                             1474.52  1514.83  1562.04  1577.97  1658.09
                             1690.16  1702.47  1724.29  1731.96  1746.76
                             1804.79  1820.31  1903.44  1949.32  2012.36
                             2068.73  2131.07  2139.04  2149.29  2170.55
                             3214.92  4228.34  4282.10  4352.32  4357.04
                             4430.83  4455.47  4487.99  4521.81  5043.74
                             5477.27

 Zero-point correction=                           0.156329 (Hartree/Particle)
 Thermal correction to Energy=                    0.166173
 Thermal correction to Enthalpy=                  0.167118
 Thermal correction to Gibbs Free Energy=         0.121343
 Sum of electronic and zero-point Energies=           -422.966315
 Sum of electronic and thermal Energies=              -422.956471
 Sum of electronic and thermal Enthalpies=            -422.955526
 Sum of electronic and thermal Free Energies=         -423.001301

                     E (Thermal)             CV                S
                      KCal/Mol        Cal/Mol-Kelvin    Cal/Mol-Kelvin
 Total                  104.275             35.947             96.341
 Electronic               0.000              0.000              0.000
 Translational            0.889              2.981             40.409
 Rotational               0.889              2.981             29.331
 Vibrational            102.498             29.986             26.602
 Vibration     1          0.597              1.971              4.327
 Vibration     2          0.602              1.956              3.650
 Vibration     3          0.613              1.920              2.902
 Vibration     4          0.628              1.872              2.369
 Vibration     5          0.643              1.822              2.023
 Vibration     6          0.647              1.810              1.955
 Vibration     7          0.669              1.745              1.658
 Vibration     8          0.708              1.628              1.292
 Vibration     9          0.747              1.519              1.052
 Vibration    10          0.779              1.436              0.907
 Vibration    11          0.843              1.278              0.690
 Vibration    12          0.861              1.238              0.645
 Vibration    13          0.921              1.106              0.513
 Vibration    14          0.944              1.061              0.474
 Vibration    15          0.979              0.992              0.418

 Normal termination of Gaussian 09 at Tue Jan 28 14:02:58 2020.
