 Gaussian 09, Revision D.01,
 Gaussian 09:  ES64L-G09RevD.01 24-Apr-2013

 -----------------------------
 # b3lyp 6-31G(2df,p) opt Freq
 -----------------------------

 -----
 titel
 -----
 Symbolic Z-matrix:
 Charge =  0 Multiplicity = 1

 SCF Done:  E(RB3LYP) =  -423.184685330     A.U. after   14 cycles
 Optimization completed.
    -- Stationary point found.
 Normal termination of Gaussian 09 at Mon Jan 27 13:41:43 2020.

 ----------------------------------------------------------------------
 #N Geom=AllCheck Guess=TCheck SCRF=Check GenChk RB3LYP/6-31G(2df,p) Fr
 eq
 ----------------------------------------------------------------------

 Structure from the checkpoint file:  "/scratch/puck/g09_6a8b33b8-3239-45c2-be96-6ff4d10dc817/Gau-53134.chk"
 -----
 titel
 -----
 Charge =  0 Multiplicity = 1

                         Standard orientation:
 ---------------------------------------------------------------------
 Center     Atomic      Atomic             Coordinates (Angstroms)
 Number     Number       Type             X           Y           Z
 ---------------------------------------------------------------------
      1          8           0        3.195317   -0.382404    0.589044
      2          6           0        2.152205   -0.530693    0.005306
      3          6           0        1.347146    0.601492   -0.604901
      4          6           0       -0.134273    0.448857   -0.364757
      5          6           0       -1.059014    1.625481   -0.177150
      6          6           0       -0.844899    0.625601    0.950753
      7          6           0       -1.822551   -0.533450    1.049516
      8          6           0       -1.879255   -1.061931   -0.402103
      9          8           0       -0.650871   -0.684366   -1.027949
     10          1           0        1.702041   -1.537524   -0.131282
     11          1           0        1.721363    1.550711   -0.214158
     12          1           0        1.525760    0.591836   -1.690054
     13          1           0       -0.602787    2.602653   -0.060044
     14          1           0       -2.007585    1.638306   -0.704057
     15          1           0       -0.319994    0.947771    1.842651
     16          1           0       -1.421036   -1.292294    1.729246
     17          1           0       -2.814785   -0.249874    1.413128
     18          1           0       -1.969361   -2.149363   -0.468889
     19          1           0       -2.725334   -0.620208   -0.945287
 ---------------------------------------------------------------------

 SCF Done:  E(RB3LYP) =  -423.184685330     A.U. after    1 cycles

 The electronic state is 1-A.
 Alpha  occ. eigenvalues --  -19.14992 -19.13581 -10.26739 -10.24906 -10.23610
 Alpha  occ. eigenvalues --  -10.19842 -10.19716 -10.19636 -10.19153  -1.05179
 Alpha  occ. eigenvalues --   -1.04202  -0.85839  -0.78513  -0.73596  -0.65417
 Alpha  occ. eigenvalues --   -0.58960  -0.58053  -0.55830  -0.51784  -0.48665
 Alpha  occ. eigenvalues --   -0.46018  -0.45789  -0.43910  -0.43128  -0.41465
 Alpha  occ. eigenvalues --   -0.40398  -0.38745  -0.36481  -0.35954  -0.33773
 Alpha  occ. eigenvalues --   -0.32757  -0.28992  -0.25796  -0.22994
 Alpha virt. eigenvalues --   -0.01844   0.08051   0.09284   0.10955   0.11508
 Alpha virt. eigenvalues --    0.12684   0.13577   0.14485   0.15727   0.16362
 Alpha virt. eigenvalues --    0.17943   0.17981   0.19617   0.21044   0.22116

 Mulliken charges:
               1
     1  O   -0.245712
     2  C    0.163015
     3  C   -0.369755
     4  C    0.442680
     5  C   -0.367177
     6  C   -0.110853
     7  C   -0.239432
     8  C   -0.097995
     9  O   -0.299965
    10  H    0.090145
    11  H    0.123610
    12  H    0.135747
    13  H    0.117246
    14  H    0.118565
    15  H    0.099807
    16  H    0.113194
    17  H    0.109031
    18  H    0.114221
    19  H    0.103629
 Sum of Mulliken charges =   0.00000

 Dipole moment (field-independent basis, Debye):
    X=             -3.0092    Y=              0.5499    Z=             -0.0837  Tot=              3.0601
 Quadrupole moment (field-independent basis, Debye-Ang):
   XX=            -60.8893   YY=            -50.8895   ZZ=            -54.2133
   XY=              2.4499   XZ=             -4.1155   YZ=             -0.7302

  Exact polarizability:  85.094   2.468  75.021   2.115  -1.708  65.349
 Approx polarizability: 116.454   2.100 107.866   6.537  -0.472 102.653

                      1                      2                      3
                      A                      A                      A
 Frequencies --     54.1274                75.4796               130.2619
 Red. masses --      5.2384                 2.8218                 2.8871
 Frc consts  --      0.0090                 0.0095                 0.0289
 IR Inten    --      5.2711                 1.8606                 2.7528

                      4                      5                      6
                      A                      A                      A
 Frequencies --    218.1458               258.0764               312.4220
 Red. masses --      1.8694                 3.7791                 2.2852
 Frc consts  --      0.0524                 0.1483                 0.1314
 IR Inten    --      1.3530                 5.9883                 1.8318

                      7                      8                      9
                      A                      A                      A
 Frequencies --    395.0446               447.4982               494.7042
 Red. masses --      2.5113                 3.3454                 3.5362
 Frc consts  --      0.2309                 0.3947                 0.5099
 IR Inten    --      1.4099                10.8721                 1.2349

                     10                     11                     12
                      A                      A                      A
 Frequencies --    620.4837               674.7190               713.9827
 Red. masses --      2.5081                 2.2759                 3.1783
 Frc consts  --      0.5689                 0.6104                 0.9546
 IR Inten    --      0.7217                 2.3108                 4.7911

                     13                     14                     15
                      A                      A                      A
 Frequencies --    783.1499               836.3889               860.4245
 Red. masses --      2.0483                 1.9641                 1.9220
 Frc consts  --      0.7402                 0.8095                 0.8384
 IR Inten    --      9.8221                 2.1020                 5.9457

                     16                     17                     18
                      A                      A                      A
 Frequencies --    873.9715               925.9426               952.0917
 Red. masses --      1.6704                 2.1017                 1.7400
 Frc consts  --      0.7517                 1.0616                 0.9293
 IR Inten    --      5.6500                 3.0423                11.9048

                     19                     20                     21
                      A                      A                      A
 Frequencies --    961.9491              1010.8916              1025.8837
 Red. masses --      2.5403                 2.0883                 1.7955
 Frc consts  --      1.3850                 1.2574                 1.1134
 IR Inten    --      9.0006                 6.1437                38.4134

                     22                     23                     24
                      A                      A                      A
 Frequencies --   1048.2415              1074.6729              1090.9378
 Red. masses --      1.3794                 3.3799                 2.1062
 Frc consts  --      0.8930                 2.2999                 1.4769
 IR Inten    --      2.1336                53.0743                 4.7350

                     25                     26                     27
                      A                      A                      A
 Frequencies --   1099.1796              1135.0074              1182.5864
 Red. masses --      2.0788                 1.8820                 1.6422
 Frc consts  --      1.4798                 1.4285                 1.3531
 IR Inten    --     31.9465                 0.7118                25.0206

                     28                     29                     30
                      A                      A                      A
 Frequencies --   1221.6594              1237.5401              1258.4531
 Red. masses --      1.2647                 1.4127                 1.7988
 Frc consts  --      1.1120                 1.2747                 1.6785
 IR Inten    --      2.9270                17.4757                29.9042

                     31                     32                     33
                      A                      A                      A
 Frequencies --   1284.6547              1298.9757              1332.9416
 Red. masses --      1.3966                 1.4907                 1.6012
 Frc consts  --      1.3580                 1.4820                 1.6762
 IR Inten    --      4.5757                 2.5207                 8.4677

                     34                     35                     36
                      A                      A                      A
 Frequencies --   1392.7456              1406.5728              1425.1023
 Red. masses --      1.3745                 1.7366                 1.3224
 Frc consts  --      1.5709                 2.0242                 1.5824
 IR Inten    --      3.3425                 5.7467                 9.1346

                     37                     38                     39
                      A                      A                      A
 Frequencies --   1442.5666              1483.1995              1498.2207
 Red. masses --      1.1249                 1.4446                 1.1329
 Frc consts  --      1.3793                 1.8724                 1.4982
 IR Inten    --      6.3773                12.0645                 2.9209

                     40                     41                     42
                      A                      A                      A
 Frequencies --   1529.6220              1832.2572              2906.4224
 Red. masses --      1.0957                10.0203                 1.0834
 Frc consts  --      1.5104                19.8200                 5.3920
 IR Inten    --      1.1935               177.5662                75.0026

                     43                     44                     45
                      A                      A                      A
 Frequencies --   3011.3114              3015.8827              3047.6957
 Red. masses --      1.0701                 1.0668                 1.0604
 Frc consts  --      5.7173                 5.7169                 5.8032
 IR Inten    --     49.3068                11.7730                28.9371

                     46                     47                     48
                      A                      A                      A
 Frequencies --   3084.3557              3096.8030              3110.3053
 Red. masses --      1.0959                 1.1037                 1.0938
 Frc consts  --      6.1423                 6.2364                 6.2347
 IR Inten    --     26.7713                34.5907                 6.0253

                     49                     50                     51
                      A                      A                      A
 Frequencies --   3129.7340              3176.7991              3215.6931
 Red. masses --      1.0545                 1.0919                 1.1160
 Frc consts  --      6.0860                 6.4922                 6.7992
 IR Inten    --     10.8434                 7.0513                 7.9323

 - Thermochemistry -
 -------------------
 Temperature   298.150 Kelvin.  Pressure   1.00000 Atm.
 Atom     1 has atomic number  8 and mass  15.99491

 Molecular mass:   126.06808 amu.
 Principal axes and moments of inertia in atomic units:
                           1         2         3
     Eigenvalues --   583.424291619.606821719.94540
           X            0.99977   0.01313  -0.01722
           Y           -0.01417   0.99799  -0.06171
           Z            0.01638   0.06194   0.99795
 This molecule is an asymmetric top.
 Rotational symmetry number  1.
 Warning -- assumption of classical behavior for rotation
           may cause significant error
 Rotational temperatures (Kelvin)      0.14846     0.05348     0.05036
 Rotational constants (GHZ):           3.09336     1.11431     1.04930
 Zero-point vibrational energy     416873.3 (Joules/Mol)
                                   99.63512 (Kcal/Mol)
 Warning -- explicit consideration of  10 degrees of freedom as
           vibrations may cause significant error
 Vibrational temperatures:     77.88   108.60   187.42   313.86   371.31
          (Kelvin)            449.51   568.38   643.85   711.77   892.74
                              970.77  1027.26  1126.78  1203.38  1237.96
                             1257.45  1332.22  1369.85  1384.03  1454.45
                             1476.02  1508.18  1546.21  1569.61  1581.47
                             1633.02  1701.48  1757.69  1780.54  1810.63
                             1848.33  1868.93  1917.80  2003.85  2023.74
                             2050.40  2075.53  2133.99  2155.60  2200.78
                             2636.21  4181.69  4332.60  4339.18  4384.95
                             4437.69  4455.60  4475.03  4502.98  4570.70
                             4626.66

 Zero-point correction=                           0.158779 (Hartree/Particle)
 Thermal correction to Energy=                    0.167246
 Thermal correction to Enthalpy=                  0.168190
 Thermal correction to Gibbs Free Energy=         0.124813
 Sum of electronic and zero-point Energies=           -423.025907
 Sum of electronic and thermal Energies=              -423.017439
 Sum of electronic and thermal Enthalpies=            -423.016495
 Sum of electronic and thermal Free Energies=         -423.059872

                     E (Thermal)             CV                S
                      KCal/Mol        Cal/Mol-Kelvin    Cal/Mol-Kelvin
 Total                  104.948             31.508             91.295
 Electronic               0.000              0.000              0.000
 Translational            0.889              2.981             40.409
 Rotational               0.889              2.981             28.876
 Vibrational            103.171             25.547             22.010
 Vibration     1          0.596              1.976              4.661
 Vibration     2          0.599              1.965              4.005
 Vibration     3          0.612              1.923              2.942
 Vibration     4          0.646              1.813              1.974
 Vibration     5          0.667              1.749              1.675
 Vibration     6          0.701              1.650              1.349
 Vibration     7          0.762              1.481              0.981
 Vibration     8          0.807              1.366              0.803
 Vibration     9          0.850              1.262              0.671
 Vibration    10          0.981              0.989              0.416

 Normal termination of Gaussian 09 at Mon Jan 27 14:21:27 2020.
