 Gaussian 09, Revision D.01,
 Gaussian 09:  ES64L-G09RevD.01 24-Apr-2013

 -----------------------------
 # b3lyp 6-31G(2df,p) opt Freq
 -----------------------------

 -----
 titel
 -----
 Symbolic Z-matrix:
 Charge =  0 Multiplicity = 1

 SCF Done:  E(RB3LYP) =  -423.170976920     A.U. after   14 cycles
 Optimization completed.
    -- Stationary point found.
 Normal termination of Gaussian 09 at Tue Jan 28 09:25:11 2020.

 ----------------------------------------------------------------------
 #N Geom=AllCheck Guess=TCheck SCRF=Check GenChk RB3LYP/6-31G(2df,p) Fr
 eq
 ----------------------------------------------------------------------

 Structure from the checkpoint file:  "/scratch/puck/g09_36a9f771-eb0e-4b51-b598-45027ca963e4/Gau-82688.chk"
 -----
 titel
 -----
 Charge =  0 Multiplicity = 1

                         Standard orientation:
 ---------------------------------------------------------------------
 Center     Atomic      Atomic             Coordinates (Angstroms)
 Number     Number       Type             X           Y           Z
 ---------------------------------------------------------------------
      1          8           0       -2.950452    0.386774   -0.131035
      2          6           0       -1.842108   -0.188424   -0.814284
      3          6           0       -0.639591   -0.093344    0.082160
      4          6           0       -0.385873   -1.151128    1.143033
      5          6           0        0.568191   -1.011978   -0.012509
      6          6           0        1.825658   -0.156554    0.177712
      7          8           0        2.654743   -0.127585   -0.981773
      8          6           0        1.266471    1.206923    0.532165
      9          6           0       -0.065500    1.242492    0.426035
     10          1           0       -3.688345    0.436141   -0.746184
     11          1           0       -2.030864   -1.244395   -1.065809
     12          1           0       -1.646916    0.344290   -1.759092
     13          1           0       -0.075842   -0.815610    2.127212
     14          1           0       -1.035317   -2.021544    1.143960
     15          1           0        0.621940   -1.808805   -0.746016
     16          1           0        2.471575   -0.560498    0.965912
     17          1           0        2.177349    0.373894   -1.652460
     18          1           0        1.907159    2.031451    0.822842
     19          1           0       -0.698560    2.103634    0.606222
 ---------------------------------------------------------------------

 SCF Done:  E(RB3LYP) =  -423.170976920     A.U. after    1 cycles

 The electronic state is 1-A.
 Alpha  occ. eigenvalues --  -19.13639 -19.13035 -10.23278 -10.23100 -10.19676
 Alpha  occ. eigenvalues --  -10.18747 -10.18713 -10.18521 -10.17592  -1.01707
 Alpha  occ. eigenvalues --   -1.01224  -0.88662  -0.76335  -0.71629  -0.66858
 Alpha  occ. eigenvalues --   -0.60120  -0.56807  -0.53587  -0.51120  -0.50935
 Alpha  occ. eigenvalues --   -0.46350  -0.45386  -0.44174  -0.41221  -0.40994
 Alpha  occ. eigenvalues --   -0.37986  -0.36360  -0.33915  -0.32477  -0.31479
 Alpha  occ. eigenvalues --   -0.28614  -0.26930  -0.26252  -0.23999
 Alpha virt. eigenvalues --    0.00845   0.07025   0.09934   0.10434   0.12829
 Alpha virt. eigenvalues --    0.13302   0.13837   0.15695   0.16385   0.16984
 Alpha virt. eigenvalues --    0.17536   0.18281   0.21547   0.22298   0.22889

 Mulliken charges:
               1
     1  O   -0.420203
     2  C   -0.186503
     3  C    0.347742
     4  C   -0.313801
     5  C   -0.152569
     6  C    0.094698
     7  O   -0.432447
     8  C   -0.152222
     9  C   -0.135798
    10  H    0.287246
    11  H    0.084898
    12  H    0.084173
    13  H    0.114854
    14  H    0.111706
    15  H    0.090778
    16  H    0.095067
    17  H    0.272788
    18  H    0.098449
    19  H    0.111145
 Sum of Mulliken charges =   0.00000

 Dipole moment (field-independent basis, Debye):
    X=             -1.7826    Y=              0.1735    Z=             -1.2162  Tot=              2.1649
 Quadrupole moment (field-independent basis, Debye-Ang):
   XX=            -55.8253   YY=            -51.5884   ZZ=            -50.3539
   XY=              2.4159   XZ=              6.7087   YZ=             -1.0804

  Exact polarizability:  92.875   1.068  72.451   1.334   0.003  65.559
 Approx polarizability: 136.455  -2.230 106.769  -0.981  -0.219 100.410

                      1                      2                      3
                      A                      A                      A
 Frequencies --     80.3475               118.1881               200.8487
 Red. masses --      4.4481                 4.4474                 4.0951
 Frc consts  --      0.0169                 0.0366                 0.0973
 IR Inten    --      1.8252                 2.0050                 4.5583

                      4                      5                      6
                      A                      A                      A
 Frequencies --    238.8653               268.1764               333.5767
 Red. masses --      1.7325                 1.3676                 1.5580
 Frc consts  --      0.0582                 0.0580                 0.1021
 IR Inten    --     24.6947                79.2204                10.4892

                      7                      8                      9
                      A                      A                      A
 Frequencies --    353.8157               385.0302               416.5800
 Red. masses --      1.7456                 2.5157                 4.1789
 Frc consts  --      0.1287                 0.2197                 0.4273
 IR Inten    --     63.4690                 7.4260                 5.9361

                     10                     11                     12
                      A                      A                      A
 Frequencies --    422.9665               600.6991               666.8644
 Red. masses --      3.0252                 3.2352                 3.1101
 Frc consts  --      0.3189                 0.6878                 0.8149
 IR Inten    --      0.9761                 0.3498                 5.9442

                     13                     14                     15
                      A                      A                      A
 Frequencies --    748.8197               777.3390               802.9500
 Red. masses --      2.9235                 3.0775                 2.1614
 Frc consts  --      0.9658                 1.0956                 0.8210
 IR Inten    --      2.4338                 7.9993                12.9096

                     16                     17                     18
                      A                      A                      A
 Frequencies --    827.3264               896.4475               949.8749
 Red. masses --      1.5856                 3.1522                 1.8395
 Frc consts  --      0.6394                 1.4925                 0.9779
 IR Inten    --     31.4890                 4.0535                22.4812

                     19                     20                     21
                      A                      A                      A
 Frequencies --    959.9944               968.4172               985.9316
 Red. masses --      1.8943                 1.3861                 1.7522
 Frc consts  --      1.0286                 0.7659                 1.0035
 IR Inten    --     17.6371                 4.6585                 6.4112

                     22                     23                     24
                      A                      A                      A
 Frequencies --   1027.1432              1059.7673              1065.1771
 Red. masses --      2.1148                 3.4041                 2.2996
 Frc consts  --      1.3146                 2.2525                 1.5372
 IR Inten    --     62.3733                29.3985                28.2279

                     25                     26                     27
                      A                      A                      A
 Frequencies --   1072.9987              1080.4348              1099.0352
 Red. masses --      1.3221                 2.3872                 1.3486
 Frc consts  --      0.8969                 1.6419                 0.9597
 IR Inten    --      4.6030                62.1806                19.6807

                     28                     29                     30
                      A                      A                      A
 Frequencies --   1132.5600              1221.1611              1240.2527
 Red. masses --      1.3446                 1.4032                 1.3881
 Frc consts  --      1.0161                 1.2328                 1.2580
 IR Inten    --     12.5028                13.9118                63.1305

                     31                     32                     33
                      A                      A                      A
 Frequencies --   1252.7919              1267.2820              1278.6112
 Red. masses --      1.3808                 1.4487                 1.2845
 Frc consts  --      1.2769                 1.3708                 1.2373
 IR Inten    --      3.9770                 7.3295                 7.2236

                     34                     35                     36
                      A                      A                      A
 Frequencies --   1309.7072              1356.7283              1397.0273
 Red. masses --      1.7233                 2.4935                 1.7413
 Frc consts  --      1.7417                 2.7042                 2.0023
 IR Inten    --      0.7386                 4.8337                 3.7174

                     37                     38                     39
                      A                      A                      A
 Frequencies --   1425.5826              1464.4646              1481.3325
 Red. masses --      1.2792                 1.4687                 1.3987
 Frc consts  --      1.5317                 1.8558                 1.8084
 IR Inten    --     84.8524                17.9678                 0.2993

                     40                     41                     42
                      A                      A                      A
 Frequencies --   1518.5326              1656.3177              2962.1847
 Red. masses --      1.0862                 6.5843                 1.0551
 Frc consts  --      1.4758                10.6426                 5.4545
 IR Inten    --      2.3491                 4.7086                58.7182

                     43                     44                     45
                      A                      A                      A
 Frequencies --   2991.6697              3047.2453              3120.5468
 Red. masses --      1.1063                 1.0841                 1.0538
 Frc consts  --      5.8340                 5.9311                 6.0460
 IR Inten    --     54.2025                31.5271                17.3492

                     46                     47                     48
                      A                      A                      A
 Frequencies --   3177.1187              3191.8037              3209.6383
 Red. masses --      1.0915                 1.0849                 1.1160
 Frc consts  --      6.4917                 6.5120                 6.7736
 IR Inten    --      6.3340                 3.9236                10.8988

                     49                     50                     51
                      A                      A                      A
 Frequencies --   3215.5877              3796.4477              3825.1815
 Red. masses --      1.1040                 1.0660                 1.0663
 Frc consts  --      6.7260                 9.0520                 9.1923
 IR Inten    --     12.9196                12.2255                18.2515

 - Thermochemistry -
 -------------------
 Temperature   298.150 Kelvin.  Pressure   1.00000 Atm.
 Atom     1 has atomic number  8 and mass  15.99491

 Molecular mass:   126.06808 amu.
 Principal axes and moments of inertia in atomic units:
                           1         2         3
     Eigenvalues --   528.291661646.570511737.30835
           X            0.99980   0.01055   0.01722
           Y           -0.01025   0.99979  -0.01781
           Z           -0.01740   0.01763   0.99969
 This molecule is an asymmetric top.
 Rotational symmetry number  1.
 Warning -- assumption of classical behavior for rotation
           may cause significant error
 Rotational temperatures (Kelvin)      0.16395     0.05260     0.04986
 Rotational constants (GHZ):           3.41618     1.09606     1.03881
 Zero-point vibrational energy     418378.3 (Joules/Mol)
                                   99.99482 (Kcal/Mol)
 Warning -- explicit consideration of  11 degrees of freedom as
           vibrations may cause significant error
 Vibrational temperatures:    115.60   170.05   288.98   343.67   385.85
          (Kelvin)            479.94   509.06   553.97   599.36   608.55
                              864.27   959.47  1077.38  1118.42  1155.26
                             1190.34  1289.79  1366.66  1381.22  1393.33
                             1418.53  1477.83  1524.77  1532.55  1543.80
                             1554.50  1581.26  1629.50  1756.98  1784.44
                             1802.49  1823.33  1839.63  1884.37  1952.03
                             2010.01  2051.09  2107.04  2131.30  2184.83
                             2383.07  4261.92  4304.34  4384.30  4489.77
                             4571.16  4592.29  4617.95  4626.51  5462.23
                             5503.58

 Zero-point correction=                           0.159352 (Hartree/Particle)
 Thermal correction to Energy=                    0.167973
 Thermal correction to Enthalpy=                  0.168918
 Thermal correction to Gibbs Free Energy=         0.126165
 Sum of electronic and zero-point Energies=           -423.011625
 Sum of electronic and thermal Energies=              -423.003004
 Sum of electronic and thermal Enthalpies=            -423.002059
 Sum of electronic and thermal Free Energies=         -423.044812

                     E (Thermal)             CV                S
                      KCal/Mol        Cal/Mol-Kelvin    Cal/Mol-Kelvin
 Total                  105.405             33.244             89.981
 Electronic               0.000              0.000              0.000
 Translational            0.889              2.981             40.409
 Rotational               0.889              2.981             28.804
 Vibrational            103.627             27.282             20.768
 Vibration     1          0.600              1.962              3.882
 Vibration     2          0.608              1.934              3.130
 Vibration     3          0.638              1.839              2.125
 Vibration     4          0.657              1.781              1.811
 Vibration     5          0.673              1.732              1.608
 Vibration     6          0.715              1.608              1.243
 Vibration     7          0.730              1.567              1.149
 Vibration     8          0.754              1.502              1.019
 Vibration     9          0.780              1.434              0.904
 Vibration    10          0.785              1.420              0.882
 Vibration    11          0.959              1.030              0.448

 Optimization completed.
    -- Stationary point found.
 Normal termination of Gaussian 09 at Tue Jan 28 10:19:26 2020.
