 Gaussian 09, Revision D.01,
 Gaussian 09:  ES64L-G09RevD.01 24-Apr-2013

 -----------------------------
 # b3lyp 6-31G(2df,p) opt Freq
 -----------------------------

 -----
 titel
 -----
 Symbolic Z-matrix:
 Charge =  0 Multiplicity = 1

 SCF Done:  E(RB3LYP) =  -423.151219842     A.U. after   14 cycles
 Optimization completed.
    -- Stationary point found.
 Normal termination of Gaussian 09 at Tue Jan 28 08:20:45 2020.

 ----------------------------------------------------------------------
 #N Geom=AllCheck Guess=TCheck SCRF=Check GenChk RB3LYP/6-31G(2df,p) Fr
 eq
 ----------------------------------------------------------------------

 Structure from the checkpoint file:  "/scratch/puck/g09_f96e6b00-f4da-44cd-b79f-40e112a0d735/Gau-79847.chk"
 -----
 titel
 -----
 Charge =  0 Multiplicity = 1

                         Standard orientation:
 ---------------------------------------------------------------------
 Center     Atomic      Atomic             Coordinates (Angstroms)
 Number     Number       Type             X           Y           Z
 ---------------------------------------------------------------------
      1          8           0       -0.737804    2.052749    0.270766
      2          6           0       -0.006973    0.972421   -0.282062
      3          6           0        1.493319    1.080015    0.016583
      4          6           0        2.228687   -0.209961   -0.368645
      5          6           0        1.526699   -1.405933    0.272786
      6          8           0        0.155288   -1.455339   -0.091211
      7          6           0       -0.573591   -0.316622    0.354798
      8          6           0       -1.981331   -0.520104    0.030808
      9          6           0       -3.139613   -0.683516   -0.239272
     10          1           0       -0.423916    2.865893   -0.136900
     11          1           0       -0.167686    0.896450   -1.368558
     12          1           0        1.914546    1.945465   -0.509942
     13          1           0        1.607590    1.272967    1.091390
     14          1           0        2.223347   -0.339006   -1.457485
     15          1           0        3.276116   -0.171175   -0.049232
     16          1           0        1.957154   -2.353445   -0.062563
     17          1           0        1.624586   -1.357244    1.371203
     18          1           0       -0.469626   -0.209393    1.449464
     19          1           0       -4.165165   -0.827593   -0.473796
 ---------------------------------------------------------------------

 SCF Done:  E(RB3LYP) =  -423.151219842     A.U. after    1 cycles

 The electronic state is 1-A.
 Alpha  occ. eigenvalues --  -19.14353 -19.14006 -10.25196 -10.23640 -10.23047
 Alpha  occ. eigenvalues --  -10.18882 -10.18852 -10.17509 -10.16978  -1.04116
 Alpha  occ. eigenvalues --   -1.02172  -0.79731  -0.78662  -0.72334  -0.65930
 Alpha  occ. eigenvalues --   -0.63756  -0.57731  -0.53574  -0.51777  -0.49577
 Alpha  occ. eigenvalues --   -0.48136  -0.45809  -0.44420  -0.41642  -0.40812
 Alpha  occ. eigenvalues --   -0.38555  -0.36716  -0.35025  -0.33436  -0.31172
 Alpha  occ. eigenvalues --   -0.27573  -0.27051  -0.26474  -0.24836
 Alpha virt. eigenvalues --    0.03995   0.05764   0.07551   0.09375   0.11234
 Alpha virt. eigenvalues --    0.13164   0.14256   0.15396   0.15942   0.16304
 Alpha virt. eigenvalues --    0.17624   0.17823   0.19058   0.20089   0.22044

 Mulliken charges:
               1
     1  O   -0.430325
     2  C    0.114075
     3  C   -0.243684
     4  C   -0.209996
     5  C   -0.061246
     6  O   -0.260632
     7  C   -0.071183
     8  C    0.317901
     9  C   -0.413364
    10  H    0.284505
    11  H    0.080487
    12  H    0.088395
    13  H    0.106645
    14  H    0.108915
    15  H    0.099018
    16  H    0.109740
    17  H    0.088186
    18  H    0.099304
    19  H    0.193260
 Sum of Mulliken charges =   0.00000

 Dipole moment (field-independent basis, Debye):
    X=              2.0633    Y=              1.3625    Z=             -0.4575  Tot=              2.5146
 Quadrupole moment (field-independent basis, Debye-Ang):
   XX=            -48.1280   YY=            -51.7640   ZZ=            -53.1515
   XY=              0.8907   XZ=              1.6573   YZ=             -2.9463

  Exact polarizability: 102.123   1.851  71.697   3.697  -0.265  60.355
 Approx polarizability: 141.052   3.818  98.890   8.725   2.359  95.562

                      1                      2                      3
                      A                      A                      A
 Frequencies --     92.6936               137.6882               177.8163
 Red. masses --      3.9475                 4.2504                 3.0295
 Frc consts  --      0.0200                 0.0475                 0.0564
 IR Inten    --      3.9214                 1.8938                 2.6071

                      4                      5                      6
                      A                      A                      A
 Frequencies --    203.2181               256.5253               316.1136
 Red. masses --      1.0663                 2.8009                 5.0589
 Frc consts  --      0.0259                 0.1086                 0.2978
 IR Inten    --     90.4522                 2.7497                 4.9802

                      7                      8                      9
                      A                      A                      A
 Frequencies --    349.8451               403.3592               435.8882
 Red. masses --      2.1900                 4.2634                 2.7769
 Frc consts  --      0.1579                 0.4087                 0.3109
 IR Inten    --      3.2404                 0.6445                 3.3878

                     10                     11                     12
                      A                      A                      A
 Frequencies --    444.6845               519.9131               555.1524
 Red. masses --      5.7892                 4.9250                 5.2573
 Frc consts  --      0.6745                 0.7844                 0.9546
 IR Inten    --      3.7764                 8.3636                 1.1223

                     13                     14                     15
                      A                      A                      A
 Frequencies --    583.4210               623.7000               664.0346
 Red. masses --      2.2813                 1.2154                 1.2614
 Frc consts  --      0.4575                 0.2786                 0.3277
 IR Inten    --      2.2419                42.8073                33.2645

                     16                     17                     18
                      A                      A                      A
 Frequencies --    843.6201               861.6788               906.5478
 Red. masses --      1.9299                 2.2410                 2.3802
 Frc consts  --      0.8092                 0.9803                 1.1525
 IR Inten    --      6.2207                 3.3825                 5.0650

                     19                     20                     21
                      A                      A                      A
 Frequencies --    935.1837               961.4070              1040.0192
 Red. masses --      1.7355                 3.1233                 2.5946
 Frc consts  --      0.8942                 1.7009                 1.6535
 IR Inten    --      6.2194                40.1253                32.9864

                     22                     23                     24
                      A                      A                      A
 Frequencies --   1052.9240              1075.0499              1112.6291
 Red. masses --      2.3615                 2.1111                 3.8124
 Frc consts  --      1.5425                 1.4376                 2.7807
 IR Inten    --      8.2930                21.4454                20.3725

                     25                     26                     27
                      A                      A                      A
 Frequencies --   1119.9847              1135.5866              1206.1843
 Red. masses --      5.8768                 2.1444                 1.4330
 Frc consts  --      4.3432                 1.6292                 1.2284
 IR Inten    --    195.6068                 4.0135                 4.5599

                     28                     29                     30
                      A                      A                      A
 Frequencies --   1227.5552              1241.8718              1291.1150
 Red. masses --      1.4061                 1.2113                 1.1729
 Frc consts  --      1.2484                 1.1006                 1.1520
 IR Inten    --      5.3902                28.5225                19.9820

                     31                     32                     33
                      A                      A                      A
 Frequencies --   1323.2205              1339.4049              1356.6769
 Red. masses --      1.2287                 1.2769                 1.3073
 Frc consts  --      1.2675                 1.3497                 1.4177
 IR Inten    --      8.0971                 0.5215                37.9057

                     34                     35                     36
                      A                      A                      A
 Frequencies --   1373.1255              1390.4827              1406.7309
 Red. masses --      1.3907                 1.4810                 1.3191
 Frc consts  --      1.5449                 1.6871                 1.5380
 IR Inten    --      1.4442                 6.4467                 7.2623

                     37                     38                     39
                      A                      A                      A
 Frequencies --   1430.1905              1479.7554              1489.3735
 Red. masses --      1.5623                 1.0941                 1.0957
 Frc consts  --      1.8828                 1.4115                 1.4320
 IR Inten    --     10.1049                 5.0417                 1.1013

                     40                     41                     42
                      A                      A                      A
 Frequencies --   1500.7058              2248.1840              2945.3919
 Red. masses --      1.0977                 5.9046                 1.0792
 Frc consts  --      1.4565                17.5834                 5.5161
 IR Inten    --      3.1859                 2.1076                10.5173

                     43                     44                     45
                      A                      A                      A
 Frequencies --   2960.0278              2988.5634              3018.6538
 Red. masses --      1.0710                 1.0839                 1.0590
 Frc consts  --      5.5289                 5.7040                 5.6856
 IR Inten    --     59.1326                40.0045                33.2581

                     46                     47                     48
                      A                      A                      A
 Frequencies --   3034.1264              3059.8354              3080.4891
 Red. masses --      1.0620                 1.1012                 1.1023
 Frc consts  --      5.7604                 6.0746                 6.1630
 IR Inten    --     18.3854                36.6096                45.4618

                     49                     50                     51
                      A                      A                      A
 Frequencies --   3091.3566              3505.7996              3821.8752
 Red. masses --      1.0936                 1.1636                 1.0663
 Frc consts  --      6.1574                 8.4258                 9.1768
 IR Inten    --     37.1916                61.3521                20.5403

 - Thermochemistry -
 -------------------
 Temperature   298.150 Kelvin.  Pressure   1.00000 Atm.
 Atom     1 has atomic number  8 and mass  15.99491

 Molecular mass:   126.06808 amu.
 Principal axes and moments of inertia in atomic units:
                           1         2         3
     Eigenvalues --   716.009281269.863241866.48916
           X            0.99999  -0.00044   0.00324
           Y            0.00048   0.99990  -0.01392
           Z           -0.00324   0.01392   0.99990
 This molecule is an asymmetric top.
 Rotational symmetry number  1.
 Warning -- assumption of classical behavior for rotation
           may cause significant error
 Rotational temperatures (Kelvin)      0.12097     0.06821     0.04640
 Rotational constants (GHZ):           2.52056     1.42121     0.96692
 Zero-point vibrational energy     416416.4 (Joules/Mol)
                                   99.52590 (Kcal/Mol)
 Warning -- explicit consideration of  13 degrees of freedom as
           vibrations may cause significant error
 Vibrational temperatures:    133.37   198.10   255.84   292.39   369.08
          (Kelvin)            454.82   503.35   580.34   627.15   639.80
                              748.04   798.74   839.41   897.36   955.40
                             1213.78  1239.76  1304.32  1345.52  1383.25
                             1496.35  1514.92  1546.76  1600.82  1611.41
                             1633.85  1735.43  1766.18  1786.77  1857.62
                             1903.82  1927.10  1951.95  1975.62  2000.59
                             2023.97  2057.72  2129.04  2142.87  2159.18
                             3234.63  4237.76  4258.81  4299.87  4343.16
                             4365.43  4402.42  4432.13  4447.77  5044.06
                             5498.82

 Zero-point correction=                           0.158605 (Hartree/Particle)
 Thermal correction to Energy=                    0.167494
 Thermal correction to Enthalpy=                  0.168438
 Thermal correction to Gibbs Free Energy=         0.125292
 Sum of electronic and zero-point Energies=           -422.992615
 Sum of electronic and thermal Energies=              -422.983726
 Sum of electronic and thermal Enthalpies=            -422.982782
 Sum of electronic and thermal Free Energies=         -423.025928

                     E (Thermal)             CV                S
                      KCal/Mol        Cal/Mol-Kelvin    Cal/Mol-Kelvin
 Total                  105.104             34.036             90.808
 Electronic               0.000              0.000              0.000
 Translational            0.889              2.981             40.409
 Rotational               0.889              2.981             28.919
 Vibrational            103.327             28.074             21.480
 Vibration     1          0.602              1.954              3.602
 Vibration     2          0.614              1.916              2.836
 Vibration     3          0.628              1.870              2.351
 Vibration     4          0.639              1.835              2.104
 Vibration     5          0.666              1.752              1.685
 Vibration     6          0.703              1.643              1.330
 Vibration     7          0.727              1.576              1.167
 Vibration     8          0.769              1.463              0.950
 Vibration     9          0.796              1.392              0.840
 Vibration    10          0.804              1.373              0.812
 Vibration    11          0.875              1.206              0.610
 Vibration    12          0.911              1.128              0.534
 Vibration    13          0.940              1.067              0.479

 Optimization completed.
    -- Stationary point found.
 Normal termination of Gaussian 09 at Tue Jan 28 09:12:26 2020.
