 Gaussian 09, Revision D.01,
 Gaussian 09:  ES64L-G09RevD.01 24-Apr-2013

 -----------------------------
 # b3lyp 6-31G(2df,p) opt Freq
 -----------------------------

 -----
 titel
 -----
 Symbolic Z-matrix:
 Charge =  0 Multiplicity = 1

 SCF Done:  E(RB3LYP) =  -423.123818021     A.U. after   13 cycles
 Optimization completed.
    -- Stationary point found.
 Normal termination of Gaussian 09 at Tue Jan 28 01:58:34 2020.

 ----------------------------------------------------------------------
 #N Geom=AllCheck Guess=TCheck SCRF=Check GenChk RB3LYP/6-31G(2df,p) Fr
 eq
 ----------------------------------------------------------------------

 Structure from the checkpoint file:  "/scratch/puck/g09_9b1f638f-b7fa-46ab-ad20-782d20c230e3/Gau-26597.chk"
 -----
 titel
 -----
 Charge =  0 Multiplicity = 1

                         Standard orientation:
 ---------------------------------------------------------------------
 Center     Atomic      Atomic             Coordinates (Angstroms)
 Number     Number       Type             X           Y           Z
 ---------------------------------------------------------------------
      1          6           0        2.752388   -0.072105   -0.699652
      2          6           0        1.482046   -0.750175   -0.235806
      3          6           0        1.084719   -0.714399    1.235228
      4          6           0        0.323889    0.077528    0.222456
      5          8           0        0.330321    1.511243    0.189740
      6          6           0       -1.094922    1.559907   -0.071170
      7          6           0       -1.144568    0.034730   -0.112401
      8          6           0       -1.955269   -0.902345   -0.883352
      9          8           0       -2.102407   -0.765949    0.542798
     10          1           0        2.712824    0.146316   -1.772076
     11          1           0        2.900210    0.877019   -0.177399
     12          1           0        3.626594   -0.705405   -0.515715
     13          1           0        1.223155   -1.661192   -0.772043
     14          1           0        0.595049   -1.576850    1.675578
     15          1           0        1.723993   -0.152237    1.908840
     16          1           0       -1.653679    2.006331    0.759220
     17          1           0       -1.322871    2.086560   -1.004300
     18          1           0       -2.792827   -0.536400   -1.475972
     19          1           0       -1.525451   -1.845340   -1.218258
 ---------------------------------------------------------------------

 SCF Done:  E(RB3LYP) =  -423.123818021     A.U. after    1 cycles

 The electronic state is 1-A.
 Alpha  occ. eigenvalues --  -19.15997 -19.14191 -10.25059 -10.24124 -10.23928
 Alpha  occ. eigenvalues --  -10.23582 -10.19404 -10.18259 -10.17745  -1.08420
 Alpha  occ. eigenvalues --   -1.04355  -0.85599  -0.72337  -0.70934  -0.66981
 Alpha  occ. eigenvalues --   -0.64014  -0.58158  -0.53002  -0.52197  -0.50020
 Alpha  occ. eigenvalues --   -0.47102  -0.45590  -0.43437  -0.41916  -0.40601
 Alpha  occ. eigenvalues --   -0.39050  -0.37106  -0.36025  -0.34495  -0.33162
 Alpha  occ. eigenvalues --   -0.30659  -0.29522  -0.26361  -0.23121
 Alpha virt. eigenvalues --    0.06953   0.07802   0.09165   0.11152   0.12297
 Alpha virt. eigenvalues --    0.12655   0.14108   0.14373   0.15181   0.16363
 Alpha virt. eigenvalues --    0.17461   0.18000   0.18986   0.21144   0.22415

 Mulliken charges:
               1
     1  C   -0.402690
     2  C   -0.088944
     3  C   -0.358695
     4  C    0.382588
     5  O   -0.323011
     6  C   -0.152408
     7  C    0.289842
     8  C   -0.262622
     9  O   -0.261628
    10  H    0.118774
    11  H    0.134264
    12  H    0.117027
    13  H    0.085094
    14  H    0.124463
    15  H    0.123349
    16  H    0.120503
    17  H    0.112429
    18  H    0.120628
    19  H    0.121037
 Sum of Mulliken charges =   0.00000

 Dipole moment (field-independent basis, Debye):
    X=             -0.1046    Y=             -0.5571    Z=             -1.5929  Tot=              1.6907
 Quadrupole moment (field-independent basis, Debye-Ang):
   XX=            -53.2445   YY=            -53.3016   ZZ=            -52.1054
   XY=             -3.3474   XZ=              3.8026   YZ=              1.2884

  Exact polarizability:  86.484  -2.876  73.215   3.328   0.978  69.177
 Approx polarizability: 110.449  -0.987 107.037   2.469   1.346 105.506

                      1                      2                      3
                      A                      A                      A
 Frequencies --     81.2667               121.6134               151.7093
 Red. masses --      3.0525                 3.2804                 2.3352
 Frc consts  --      0.0119                 0.0286                 0.0317
 IR Inten    --      2.5610                 1.2917                 0.4709

                      4                      5                      6
                      A                      A                      A
 Frequencies --    180.9176               237.1776               285.1425
 Red. masses --      1.2542                 3.0481                 3.2463
 Frc consts  --      0.0242                 0.1010                 0.1555
 IR Inten    --      0.4406                 1.9160                 5.7629

                      7                      8                      9
                      A                      A                      A
 Frequencies --    334.7492               421.4204               450.1915
 Red. masses --      2.5011                 2.3189                 3.0114
 Frc consts  --      0.1651                 0.2426                 0.3596
 IR Inten    --      0.9689                 1.8236                 4.5192

                     10                     11                     12
                      A                      A                      A
 Frequencies --    545.4542               575.3865               613.7065
 Red. masses --      3.5596                 3.8624                 4.1912
 Frc consts  --      0.6240                 0.7534                 0.9301
 IR Inten    --      1.5180                 0.7260                 2.1424

                     13                     14                     15
                      A                      A                      A
 Frequencies --    795.5428               843.1548               868.9498
 Red. masses --      2.2452                 2.2590                 1.4660
 Frc consts  --      0.8372                 0.9462                 0.6522
 IR Inten    --      9.3307                18.9639                 5.9676

                     16                     17                     18
                      A                      A                      A
 Frequencies --    888.8685               890.6078               921.9952
 Red. masses --      1.7390                 1.7781                 4.0803
 Frc consts  --      0.8095                 0.8310                 2.0436
 IR Inten    --      8.8934                23.8731                 7.9518

                     19                     20                     21
                      A                      A                      A
 Frequencies --    964.2914               988.4523              1007.7389
 Red. masses --      4.3915                 1.3648                 6.5254
 Frc consts  --      2.4059                 0.7856                 3.9044
 IR Inten    --     35.4799                15.1591                96.9339

                     22                     23                     24
                      A                      A                      A
 Frequencies --   1036.4839              1083.4194              1103.4026
 Red. masses --      1.3685                 2.0505                 2.9106
 Frc consts  --      0.8662                 1.4181                 2.0878
 IR Inten    --     20.4226                 4.7856                 1.7350

                     25                     26                     27
                      A                      A                      A
 Frequencies --   1119.9822              1123.5816              1146.0918
 Red. masses --      1.6592                 1.4734                 1.6820
 Frc consts  --      1.2263                 1.0959                 1.3017
 IR Inten    --      5.3244                 2.1037                 1.4900

                     28                     29                     30
                      A                      A                      A
 Frequencies --   1148.2463              1167.8607              1183.4768
 Red. masses --      1.1432                 1.4572                 1.7519
 Frc consts  --      0.8880                 1.1710                 1.4457
 IR Inten    --      2.0802                 1.5870                 3.5033

                     31                     32                     33
                      A                      A                      A
 Frequencies --   1227.4979              1295.5001              1328.6635
 Red. masses --      3.0736                 1.6029                 1.5295
 Frc consts  --      2.7286                 1.5851                 1.5909
 IR Inten    --     28.7764                12.9134                 5.7750

                     34                     35                     36
                      A                      A                      A
 Frequencies --   1402.4255              1417.2504              1459.0687
 Red. masses --      1.4810                 1.4247                 1.4616
 Frc consts  --      1.7161                 1.6860                 1.8333
 IR Inten    --      2.2073                 2.0119                12.8306

                     37                     38                     39
                      A                      A                      A
 Frequencies --   1483.2224              1491.6959              1502.2126
 Red. masses --      1.4010                 1.0671                 1.1157
 Frc consts  --      1.8160                 1.3990                 1.4834
 IR Inten    --      7.2014                 1.4184                 6.1543

                     40                     41                     42
                      A                      A                      A
 Frequencies --   1515.1449              1552.4259              3028.8258
 Red. masses --      1.2565                 2.4331                 1.0549
 Frc consts  --      1.6996                 3.4549                 5.7019
 IR Inten    --      1.9034                21.0626                57.7090

                     43                     44                     45
                      A                      A                      A
 Frequencies --   3034.5571              3080.1767              3081.8347
 Red. masses --      1.0358                 1.1054                 1.0559
 Frc consts  --      5.6198                 6.1791                 5.9088
 IR Inten    --     32.5308                16.1354                31.5457

                     46                     47                     48
                      A                      A                      A
 Frequencies --   3095.2495              3110.5302              3125.7019
 Red. masses --      1.1016                 1.0942                 1.0541
 Frc consts  --      6.2179                 6.2376                 6.0678
 IR Inten    --     24.4592                 3.1123                 5.6340

                     49                     50                     51
                      A                      A                      A
 Frequencies --   3128.0519              3168.7898              3216.9760
 Red. masses --      1.0926                 1.1194                 1.1168
 Frc consts  --      6.2985                 6.6227                 6.8096
 IR Inten    --     26.6760                19.8432                 4.0796

 - Thermochemistry -
 -------------------
 Temperature   298.150 Kelvin.  Pressure   1.00000 Atm.
 Atom     1 has atomic number  6 and mass  12.00000

 Molecular mass:   126.06808 amu.
 Principal axes and moments of inertia in atomic units:
                           1         2         3
     Eigenvalues --   616.608571377.632661593.65604
           X            0.99973  -0.02183   0.00736
           Y            0.02174   0.99969   0.01243
           Z           -0.00763  -0.01226   0.99990
 This molecule is an asymmetric top.
 Rotational symmetry number  1.
 Warning -- assumption of classical behavior for rotation
           may cause significant error
 Rotational temperatures (Kelvin)      0.14047     0.06287     0.05435
 Rotational constants (GHZ):           2.92688     1.31003     1.13245
 Zero-point vibrational energy     412871.3 (Joules/Mol)
                                   98.67860 (Kcal/Mol)
 Warning -- explicit consideration of  12 degrees of freedom as
           vibrations may cause significant error
 Vibrational temperatures:    116.92   174.97   218.28   260.30   341.25
          (Kelvin)            410.26   481.63   606.33   647.72   784.79
                              827.85   882.99  1144.61  1213.11  1250.22
                             1278.88  1281.38  1326.54  1387.40  1422.16
                             1449.91  1491.27  1558.80  1587.55  1611.40
                             1616.58  1648.97  1652.07  1680.29  1702.76
                             1766.09  1863.93  1911.65  2017.77  2039.10
                             2099.27  2134.02  2146.22  2161.35  2179.95
                             2233.59  4357.80  4366.05  4431.68  4434.07
                             4453.37  4475.35  4497.18  4500.56  4559.18
                             4628.51

 Zero-point correction=                           0.157254 (Hartree/Particle)
 Thermal correction to Energy=                    0.165951
 Thermal correction to Enthalpy=                  0.166895
 Thermal correction to Gibbs Free Energy=         0.123802
 Sum of electronic and zero-point Energies=           -422.966564
 Sum of electronic and thermal Energies=              -422.957867
 Sum of electronic and thermal Enthalpies=            -422.956923
 Sum of electronic and thermal Free Energies=         -423.000016

                     E (Thermal)             CV                S
                      KCal/Mol        Cal/Mol-Kelvin    Cal/Mol-Kelvin
 Total                  104.136             32.684             90.699
 Electronic               0.000              0.000              0.000
 Translational            0.889              2.981             40.409
 Rotational               0.889              2.981             28.695
 Vibrational            102.359             26.722             21.596
 Vibration     1          0.600              1.962              3.860
 Vibration     2          0.609              1.931              3.075
 Vibration     3          0.619              1.901              2.651
 Vibration     4          0.630              1.866              2.319
 Vibration     5          0.656              1.784              1.824
 Vibration     6          0.683              1.701              1.503
 Vibration     7          0.716              1.606              1.237
 Vibration     8          0.784              1.424              0.887
 Vibration     9          0.809              1.360              0.795
 Vibration    10          0.901              1.150              0.554
 Vibration    11          0.932              1.084              0.494
 Vibration    12          0.973              1.003              0.427

 Normal termination of Gaussian 09 at Tue Jan 28 02:44:28 2020.
