 Gaussian 09, Revision D.01,
 Gaussian 09:  ES64L-G09RevD.01 24-Apr-2013

 -----------------------------
 # b3lyp 6-31G(2df,p) opt Freq
 -----------------------------

 -----
 titel
 -----
 Symbolic Z-matrix:
 Charge =  0 Multiplicity = 1

 SCF Done:  E(RB3LYP) =  -423.189063519     A.U. after   13 cycles
 Optimization completed.
    -- Stationary point found.
 Normal termination of Gaussian 09 at Mon Jan 27 18:11:52 2020.

 ----------------------------------------------------------------------
 #N Geom=AllCheck Guess=TCheck SCRF=Check GenChk RB3LYP/6-31G(2df,p) Fr
 eq
 ----------------------------------------------------------------------

 Structure from the checkpoint file:  "/scratch/puck/g09_b61b0307-a155-47ab-9357-3c79aa196ddb/Gau-89299.chk"
 -----
 titel
 -----
 Charge =  0 Multiplicity = 1

                         Standard orientation:
 ---------------------------------------------------------------------
 Center     Atomic      Atomic             Coordinates (Angstroms)
 Number     Number       Type             X           Y           Z
 ---------------------------------------------------------------------
      1          8           0       -2.440509    0.249020   -0.423756
      2          6           0       -1.088132    0.031981   -0.176882
      3          6           0       -0.292930   -0.958928   -1.015843
      4          6           0        1.008273   -1.052459   -0.193064
      5          6           0        1.905753    0.160850   -0.460044
      6          6           0        1.101454    1.474246   -0.239518
      7          6           0       -0.270633    1.187816    0.354315
      8          6           0       -0.470957   -0.060425    1.196591
      9          8           0        0.582129   -0.995327    1.183706
     10          1           0       -2.914705   -0.567009   -0.225092
     11          1           0       -0.816665   -1.921949   -1.052425
     12          1           0       -0.109691   -0.625376   -2.041564
     13          1           0        1.547353   -1.992498   -0.326295
     14          1           0        2.755327    0.108517    0.226544
     15          1           0        2.307694    0.110095   -1.477689
     16          1           0        1.653212    2.146212    0.425646
     17          1           0        0.978123    2.014779   -1.184652
     18          1           0       -0.862350    2.046236    0.657347
     19          1           0       -1.028234   -0.047038    2.125241
 ---------------------------------------------------------------------

 SCF Done:  E(RB3LYP) =  -423.189063519     A.U. after    1 cycles

 The electronic state is 1-A.
 Alpha  occ. eigenvalues --  -19.14501 -19.13679 -10.23162 -10.23130 -10.22342
 Alpha  occ. eigenvalues --  -10.18500 -10.18411 -10.18402 -10.18017  -1.04631
 Alpha  occ. eigenvalues --   -1.02393  -0.84326  -0.78278  -0.74173  -0.64563
 Alpha  occ. eigenvalues --   -0.61770  -0.57607  -0.54078  -0.51769  -0.48479
 Alpha  occ. eigenvalues --   -0.45968  -0.43510  -0.43021  -0.41522  -0.39681
 Alpha  occ. eigenvalues --   -0.38669  -0.37218  -0.36128  -0.34040  -0.33224
 Alpha  occ. eigenvalues --   -0.31245  -0.28569  -0.26077  -0.21267
 Alpha virt. eigenvalues --    0.07668   0.08301   0.11392   0.12305   0.13618
 Alpha virt. eigenvalues --    0.14053   0.14955   0.16013   0.16736   0.17940
 Alpha virt. eigenvalues --    0.18414   0.18966   0.21458   0.21979   0.22120

 Mulliken charges:
               1
     1  O   -0.476338
     2  C    0.350353
     3  C   -0.302749
     4  C    0.065198
     5  C   -0.203666
     6  C   -0.231771
     7  C   -0.113063
     8  C    0.012452
     9  O   -0.268128
    10  H    0.279473
    11  H    0.092728
    12  H    0.106423
    13  H    0.079898
    14  H    0.108053
    15  H    0.095273
    16  H    0.107464
    17  H    0.105677
    18  H    0.092836
    19  H    0.099888
 Sum of Mulliken charges =   0.00000

 Dipole moment (field-independent basis, Debye):
    X=              0.0509    Y=             -0.4918    Z=             -0.6825  Tot=              0.8428
 Quadrupole moment (field-independent basis, Debye-Ang):
   XX=            -51.6328   YY=            -52.1223   ZZ=            -54.0599
   XY=              4.2367   XZ=             -3.6856   YZ=              2.8343

  Exact polarizability:  78.568   2.010  72.832  -2.454   2.475  67.099
 Approx polarizability: 107.666   0.951 107.004  -0.124  -0.060 105.098

                      1                      2                      3
                      A                      A                      A
 Frequencies --    132.1232               230.6298               309.2919
 Red. masses --      1.8229                 2.5038                 1.5361
 Frc consts  --      0.0187                 0.0785                 0.0866
 IR Inten    --      0.1909                14.5457                34.8934

                      4                      5                      6
                      A                      A                      A
 Frequencies --    339.7722               372.5810               397.2188
 Red. masses --      2.0722                 2.8781                 3.9653
 Frc consts  --      0.1409                 0.2354                 0.3686
 IR Inten    --     43.5499                 6.7354                10.8966

                      7                      8                      9
                      A                      A                      A
 Frequencies --    483.3009               513.8798               603.0117
 Red. masses --      2.8819                 3.5201                 5.0728
 Frc consts  --      0.3966                 0.5477                 1.0868
 IR Inten    --      3.8888                 2.7434                 2.8958

                     10                     11                     12
                      A                      A                      A
 Frequencies --    658.2717               702.9835               783.8710
 Red. masses --      5.0085                 3.6527                 2.7829
 Frc consts  --      1.2787                 1.0636                 1.0075
 IR Inten    --      1.3272                 5.6295                 6.3987

                     13                     14                     15
                      A                      A                      A
 Frequencies --    813.4925               830.0691               870.6151
 Red. masses --      1.6457                 2.8705                 2.9562
 Frc consts  --      0.6417                 1.1653                 1.3202
 IR Inten    --      4.0215                 4.7868                21.6420

                     16                     17                     18
                      A                      A                      A
 Frequencies --    916.3423               922.5156               944.2948
 Red. masses --      2.3111                 2.0056                 2.3001
 Frc consts  --      1.1433                 1.0056                 1.2084
 IR Inten    --      2.0204                 2.6149                14.3544

                     19                     20                     21
                      A                      A                      A
 Frequencies --    975.0877              1005.7924              1034.0156
 Red. masses --      2.0977                 2.2203                 1.6492
 Frc consts  --      1.1751                 1.3234                 1.0389
 IR Inten    --      2.6773                11.7892                 4.1036

                     22                     23                     24
                      A                      A                      A
 Frequencies --   1069.2129              1072.2731              1099.7405
 Red. masses --      1.7571                 1.8646                 1.8768
 Frc consts  --      1.1836                 1.2632                 1.3373
 IR Inten    --     33.7964                 3.1299                27.4251

                     25                     26                     27
                      A                      A                      A
 Frequencies --   1116.0928              1158.3299              1200.1977
 Red. masses --      3.0273                 1.1442                 1.8070
 Frc consts  --      2.2218                 0.9045                 1.5336
 IR Inten    --     40.4513                 3.5821                14.3211

                     28                     29                     30
                      A                      A                      A
 Frequencies --   1224.1394              1246.2927              1259.2885
 Red. masses --      1.2924                 1.8917                 2.2627
 Frc consts  --      1.1411                 1.7311                 2.1141
 IR Inten    --     14.8846                 7.3690                11.6251

                     31                     32                     33
                      A                      A                      A
 Frequencies --   1275.3528              1295.1156              1325.9601
 Red. masses --      1.2321                 1.3331                 1.7807
 Frc consts  --      1.1807                 1.3174                 1.8446
 IR Inten    --     14.8907                 3.9595                96.4035

                     34                     35                     36
                      A                      A                      A
 Frequencies --   1337.7559              1360.9824              1366.7449
 Red. masses --      1.5018                 1.7062                 1.5314
 Frc consts  --      1.5835                 1.8620                 1.6854
 IR Inten    --      2.4560                10.4392                 8.6592

                     37                     38                     39
                      A                      A                      A
 Frequencies --   1380.5079              1456.6166              1480.7149
 Red. masses --      1.3765                 2.0521                 1.1109
 Frc consts  --      1.5456                 2.5653                 1.4350
 IR Inten    --      2.4090                 8.6960                 0.5751

                     40                     41                     42
                      A                      A                      A
 Frequencies --   1493.8024              1509.0766              3031.5251
 Red. masses --      1.2062                 1.1627                 1.0628
 Frc consts  --      1.5858                 1.5600                 5.7550
 IR Inten    --      0.0737                 3.1954                44.7462

                     43                     44                     45
                      A                      A                      A
 Frequencies --   3033.1745              3047.9069              3065.8441
 Red. masses --      1.0619                 1.0619                 1.1021
 Frc consts  --      5.7560                 5.8121                 6.1031
 IR Inten    --     21.8816                36.1741                 7.1789

                     46                     47                     48
                      A                      A                      A
 Frequencies --   3088.1153              3093.6995              3096.7793
 Red. masses --      1.1006                 1.0927                 1.0991
 Frc consts  --      6.1837                 6.1616                 6.2105
 IR Inten    --     17.3819                48.3607                41.6954

                     49                     50                     51
                      A                      A                      A
 Frequencies --   3159.9685              3192.5147              3780.4296
 Red. masses --      1.0884                 1.0930                 1.0659
 Frc consts  --      6.4034                 6.5638                 8.9749
 IR Inten    --      7.5234                17.0105                12.6771

 - Thermochemistry -
 -------------------
 Temperature   298.150 Kelvin.  Pressure   1.00000 Atm.
 Atom     1 has atomic number  8 and mass  15.99491

 Molecular mass:   126.06808 amu.
 Principal axes and moments of inertia in atomic units:
                           1         2         3
     Eigenvalues --   643.707101051.256521165.65573
           X            0.99859   0.04433  -0.02922
           Y           -0.04088   0.99313   0.10962
           Z            0.03388  -0.10827   0.99354
 This molecule is an asymmetric top.
 Rotational symmetry number  1.
 Warning -- assumption of classical behavior for rotation
           may cause significant error
 Rotational temperatures (Kelvin)      0.13455     0.08239     0.07430
 Rotational constants (GHZ):           2.80367     1.71675     1.54826
 Zero-point vibrational energy     425615.3 (Joules/Mol)
                                  101.72449 (Kcal/Mol)
 Warning -- explicit consideration of   9 degrees of freedom as
           vibrations may cause significant error
 Vibrational temperatures:    190.10   331.82   445.00   488.86   536.06
          (Kelvin)            571.51   695.36   739.36   867.60   947.10
                             1011.44  1127.81  1170.43  1194.28  1252.62
                             1318.41  1327.29  1358.63  1402.93  1447.11
                             1487.72  1538.36  1542.76  1582.28  1605.81
                             1666.58  1726.81  1761.26  1793.13  1811.83
                             1834.95  1863.38  1907.76  1924.73  1958.15
                             1966.44  1986.24  2095.74  2130.42  2149.25
                             2171.22  4361.68  4364.06  4385.25  4411.06
                             4443.10  4451.14  4455.57  4546.48  4593.31
                             5439.19

 Zero-point correction=                           0.162108 (Hartree/Particle)
 Thermal correction to Energy=                    0.169228
 Thermal correction to Enthalpy=                  0.170172
 Thermal correction to Gibbs Free Energy=         0.130977
 Sum of electronic and zero-point Energies=           -423.026955
 Sum of electronic and thermal Energies=              -423.019836
 Sum of electronic and thermal Enthalpies=            -423.018892
 Sum of electronic and thermal Free Energies=         -423.058086

                     E (Thermal)             CV                S
                      KCal/Mol        Cal/Mol-Kelvin    Cal/Mol-Kelvin
 Total                  106.192             29.538             82.493
 Electronic               0.000              0.000              0.000
 Translational            0.889              2.981             40.409
 Rotational               0.889              2.981             28.158
 Vibrational            104.415             23.577             13.926
 Vibration     1          0.612              1.921              2.915
 Vibration     2          0.652              1.794              1.874
 Vibration     3          0.699              1.656              1.366
 Vibration     4          0.720              1.596              1.213
 Vibration     5          0.744              1.528              1.069
 Vibration     6          0.764              1.476              0.973
 Vibration     7          0.839              1.287              0.701
 Vibration     8          0.869              1.219              0.624
 Vibration     9          0.961              1.025              0.445

 Optimization completed.
    -- Stationary point found.
 Normal termination of Gaussian 09 at Mon Jan 27 19:00:39 2020.
