 Gaussian 09, Revision D.01,
 Gaussian 09:  ES64L-G09RevD.01 24-Apr-2013

 -----------------------------
 # b3lyp 6-31G(2df,p) opt Freq
 -----------------------------

 -----
 titel
 -----
 Symbolic Z-matrix:
 Charge =  0 Multiplicity = 1

 SCF Done:  E(RB3LYP) =  -423.163728761     A.U. after   13 cycles
 Optimization completed.
    -- Stationary point found.
 Normal termination of Gaussian 09 at Mon Jan 27 11:24:32 2020.

 ----------------------------------------------------------------------
 #N Geom=AllCheck Guess=TCheck SCRF=Check GenChk RB3LYP/6-31G(2df,p) Fr
 eq
 ----------------------------------------------------------------------

 Structure from the checkpoint file:  "/scratch/puck/g09_5c86f26c-de12-41c6-8ec0-73ac8e0d86c0/Gau-61394.chk"
 -----
 titel
 -----
 Charge =  0 Multiplicity = 1

                         Standard orientation:
 ---------------------------------------------------------------------
 Center     Atomic      Atomic             Coordinates (Angstroms)
 Number     Number       Type             X           Y           Z
 ---------------------------------------------------------------------
      1          6           0        2.791500   -0.428014   -0.009844
      2          6           0        1.962558    0.341785    1.033992
      3          6           0        1.035025    0.684133   -0.166151
      4          8           0        1.786365   -0.217816   -1.025185
      5          6           0       -0.407867    0.334931   -0.086311
      6          6           0       -1.454968    1.154927   -0.137372
      7          6           0       -2.729384    0.376610    0.010634
      8          8           0       -2.323620   -0.982108    0.148868
      9          6           0       -0.903877   -1.081436    0.076164
     10          1           0        3.745378    0.043886   -0.279007
     11          1           0        2.964547   -1.492897    0.180255
     12          1           0        1.493670   -0.288216    1.791482
     13          1           0        2.443080    1.191774    1.519731
     14          1           0        1.149048    1.723802   -0.501563
     15          1           0       -1.425504    2.229701   -0.269503
     16          1           0       -3.314121    0.684613    0.892584
     17          1           0       -3.389254    0.486662   -0.865380
     18          1           0       -0.519991   -1.565049    0.988776
     19          1           0       -0.606733   -1.712507   -0.773518
 ---------------------------------------------------------------------

 SCF Done:  E(RB3LYP) =  -423.163728761     A.U. after    1 cycles

 The electronic state is 1-A.
 Alpha  occ. eigenvalues --  -19.13456 -19.13076 -10.24344 -10.23359 -10.22947
 Alpha  occ. eigenvalues --  -10.22595 -10.19471 -10.18973 -10.18752  -1.03859
 Alpha  occ. eigenvalues --   -1.02873  -0.80360  -0.74682  -0.73544  -0.68824
 Alpha  occ. eigenvalues --   -0.60700  -0.57647  -0.54515  -0.50887  -0.49058
 Alpha  occ. eigenvalues --   -0.47565  -0.45304  -0.44303  -0.41951  -0.41040
 Alpha  occ. eigenvalues --   -0.40585  -0.38017  -0.35977  -0.33589  -0.31732
 Alpha  occ. eigenvalues --   -0.31098  -0.27259  -0.25062  -0.22936
 Alpha virt. eigenvalues --    0.00518   0.08270   0.09923   0.10929   0.11105
 Alpha virt. eigenvalues --    0.12207   0.13626   0.14572   0.16151   0.16585
 Alpha virt. eigenvalues --    0.17567   0.17959   0.19567   0.20999   0.21428

 Mulliken charges:
               1
     1  C   -0.059635
     2  C   -0.298184
     3  C    0.030609
     4  O   -0.292764
     5  C    0.329542
     6  C   -0.235663
     7  C   -0.100155
     8  O   -0.268167
     9  C   -0.155064
    10  H    0.102156
    11  H    0.108701
    12  H    0.116703
    13  H    0.114028
    14  H    0.076041
    15  H    0.101751
    16  H    0.104416
    17  H    0.106518
    18  H    0.098313
    19  H    0.120854
 Sum of Mulliken charges =   0.00000

 Dipole moment (field-independent basis, Debye):
    X=              1.1966    Y=              1.6892    Z=              1.3870  Tot=              2.4917
 Quadrupole moment (field-independent basis, Debye-Ang):
   XX=            -52.0784   YY=            -51.5540   ZZ=            -55.3529
   XY=             -4.0269   XZ=              3.6604   YZ=             -0.6335

  Exact polarizability: 103.592 -11.044  74.735   2.114  -1.375  58.496
 Approx polarizability: 134.755 -19.777 114.299   2.040  -1.858  89.945

                      1                      2                      3
                      A                      A                      A
 Frequencies --     54.6035                81.1904               101.7764
 Red. masses --      2.9854                 2.5752                 2.8878
 Frc consts  --      0.0052                 0.0100                 0.0176
 IR Inten    --      0.8069                 0.8541                 4.9345

                      4                      5                      6
                      A                      A                      A
 Frequencies --    145.6972               206.4559               323.0679
 Red. masses --      3.1563                 3.3100                 2.6098
 Frc consts  --      0.0395                 0.0831                 0.1605
 IR Inten    --      4.2160                 1.1849                 0.5328

                      7                      8                      9
                      A                      A                      A
 Frequencies --    386.3099               526.7225               625.7147
 Red. masses --      4.8601                 2.5433                 2.9543
 Frc consts  --      0.4273                 0.4157                 0.6815
 IR Inten    --      0.4530                 1.0558                 5.9544

                     10                     11                     12
                      A                      A                      A
 Frequencies --    757.8566               782.5109               824.6079
 Red. masses --      2.5162                 2.4456                 1.4263
 Frc consts  --      0.8515                 0.8823                 0.5714
 IR Inten    --      8.1547                 1.9298                17.0832

                     13                     14                     15
                      A                      A                      A
 Frequencies --    841.1612               889.3915               920.8149
 Red. masses --      2.0557                 3.7830                 2.8786
 Frc consts  --      0.8570                 1.7631                 1.4381
 IR Inten    --      4.4840                22.6305                10.7047

                     16                     17                     18
                      A                      A                      A
 Frequencies --    942.6104               945.9221               975.0556
 Red. masses --      2.7314                 2.7590                 2.2635
 Frc consts  --      1.4299                 1.4545                 1.2679
 IR Inten    --      4.3938                13.0444                 5.6324

                     19                     20                     21
                      A                      A                      A
 Frequencies --   1010.5498              1023.7045              1032.2974
 Red. masses --      3.6395                 2.2380                 2.6210
 Frc consts  --      2.1898                 1.3819                 1.6456
 IR Inten    --     63.2089                40.9132                37.4252

                     22                     23                     24
                      A                      A                      A
 Frequencies --   1063.2199              1094.4308              1114.4501
 Red. masses --      1.7904                 2.3984                 7.3895
 Frc consts  --      1.1925                 1.6926                 5.4074
 IR Inten    --      0.1403                 0.7907                71.9883

                     25                     26                     27
                      A                      A                      A
 Frequencies --   1166.4784              1173.5132              1213.0871
 Red. masses --      1.1632                 1.1000                 1.2670
 Frc consts  --      0.9325                 0.8925                 1.0985
 IR Inten    --      0.5480                 1.4457                 1.4508

                     28                     29                     30
                      A                      A                      A
 Frequencies --   1220.4908              1224.9058              1254.9346
 Red. masses --      1.3449                 1.3120                 1.4524
 Frc consts  --      1.1803                 1.1598                 1.3476
 IR Inten    --     10.4834                 8.1530                 2.1017

                     31                     32                     33
                      A                      A                      A
 Frequencies --   1266.6184              1299.0620              1353.1145
 Red. masses --      1.2326                 1.7869                 1.3912
 Frc consts  --      1.1651                 1.7767                 1.5008
 IR Inten    --      1.5012                17.7435                 2.1656

                     34                     35                     36
                      A                      A                      A
 Frequencies --   1366.4360              1379.3511              1400.9308
 Red. masses --      1.7744                 1.5282                 1.4888
 Frc consts  --      1.9520                 1.7130                 1.7215
 IR Inten    --     11.4974                17.5903                 3.6730

                     37                     38                     39
                      A                      A                      A
 Frequencies --   1490.0654              1515.8729              1528.6538
 Red. masses --      1.1026                 1.0813                 1.0884
 Frc consts  --      1.4424                 1.4639                 1.4985
 IR Inten    --      4.8656                 2.6959                 1.3247

                     40                     41                     42
                      A                      A                      A
 Frequencies --   1531.7494              1724.7717              2965.7965
 Red. masses --      1.1071                 7.5431                 1.0562
 Frc consts  --      1.5304                13.2210                 5.4735
 IR Inten    --      0.4170                 1.1069               137.5309

                     43                     44                     45
                      A                      A                      A
 Frequencies --   2975.0934              2980.8699              3006.9076
 Red. masses --      1.0679                 1.1047                 1.0803
 Frc consts  --      5.5689                 5.7831                 5.7549
 IR Inten    --     17.1437                53.3965                57.1840

                     46                     47                     48
                      A                      A                      A
 Frequencies --   3011.8078              3016.8897              3063.0889
 Red. masses --      1.0927                 1.0644                 1.1062
 Frc consts  --      5.8401                 5.7077                 6.1153
 IR Inten    --     38.2172                73.0639                32.6929

                     49                     50                     51
                      A                      A                      A
 Frequencies --   3085.1447              3141.0352              3209.6444
 Red. masses --      1.0595                 1.1090                 1.0951
 Frc consts  --      5.9418                 6.4465                 6.6471
 IR Inten    --     23.3166                24.0215                 6.3391

 - Thermochemistry -
 -------------------
 Temperature   298.150 Kelvin.  Pressure   1.00000 Atm.
 Atom     1 has atomic number  6 and mass  12.00000

 Molecular mass:   126.06808 amu.
 Principal axes and moments of inertia in atomic units:
                           1         2         3
     Eigenvalues --   414.429611836.667671967.38061
           X            0.99984  -0.01228   0.01307
           Y            0.01246   0.99982  -0.01414
           Z           -0.01290   0.01430   0.99981
 This molecule is an asymmetric top.
 Rotational symmetry number  1.
 Rotational temperatures (Kelvin)      0.20900     0.04716     0.04402
 Rotational constants (GHZ):           4.35476     0.98262     0.91733
 Zero-point vibrational energy     420107.2 (Joules/Mol)
                                  100.40803 (Kcal/Mol)
 Warning -- explicit consideration of   8 degrees of freedom as
           vibrations may cause significant error
 Vibrational temperatures:     78.56   116.81   146.43   209.63   297.04
          (Kelvin)            464.82   555.81   757.84   900.26  1090.39
                             1125.86  1186.43  1210.24  1279.63  1324.85
                             1356.20  1360.97  1402.89  1453.95  1472.88
                             1485.24  1529.73  1574.64  1603.44  1678.30
                             1688.42  1745.36  1756.01  1762.36  1805.57
                             1822.38  1869.06  1946.83  1965.99  1984.58
                             2015.62  2143.87  2181.00  2199.39  2203.84
                             2481.56  4267.11  4280.49  4288.80  4326.26
                             4333.31  4340.63  4407.10  4438.83  4519.24
                             4617.96

 Zero-point correction=                           0.160010 (Hartree/Particle)
 Thermal correction to Energy=                    0.168345
 Thermal correction to Enthalpy=                  0.169289
 Thermal correction to Gibbs Free Energy=         0.125784
 Sum of electronic and zero-point Energies=           -423.003718
 Sum of electronic and thermal Energies=              -422.995384
 Sum of electronic and thermal Enthalpies=            -422.994440
 Sum of electronic and thermal Free Energies=         -423.037945

                     E (Thermal)             CV                S
                      KCal/Mol        Cal/Mol-Kelvin    Cal/Mol-Kelvin
 Total                  105.638             29.978             91.565
 Electronic               0.000              0.000              0.000
 Translational            0.889              2.981             40.409
 Rotational               0.889              2.981             28.795
 Vibrational            103.861             24.017             22.361
 Vibration     1          0.596              1.976              4.643
 Vibration     2          0.600              1.962              3.862
 Vibration     3          0.604              1.948              3.420
 Vibration     4          0.617              1.907              2.728
 Vibration     5          0.641              1.831              2.075
 Vibration     6          0.708              1.629              1.295
 Vibration     7          0.755              1.499              1.014
 Vibration     8          0.882              1.191              0.595

 Optimization completed.
    -- Stationary point found.
 Normal termination of Gaussian 09 at Mon Jan 27 13:11:15 2020.
