 Gaussian 09, Revision D.01,
 Gaussian 09:  ES64L-G09RevD.01 24-Apr-2013

 -----------------------------
 # b3lyp 6-31G(2df,p) opt Freq
 -----------------------------

 -----
 titel
 -----
 Symbolic Z-matrix:
 Charge =  0 Multiplicity = 1

 SCF Done:  E(RB3LYP) =  -423.161880103     A.U. after   15 cycles
 Optimization completed.
    -- Stationary point found.
 Normal termination of Gaussian 09 at Tue Jan 28 08:16:36 2020.

 ----------------------------------------------------------------------
 #N Geom=AllCheck Guess=TCheck SCRF=Check GenChk RB3LYP/6-31G(2df,p) Fr
 eq
 ----------------------------------------------------------------------

 Structure from the checkpoint file:  "/scratch/puck/g09_078b4fd1-f849-4ef3-8da4-f1ecf6f7d73f/Gau-79670.chk"
 -----
 titel
 -----
 Charge =  0 Multiplicity = 1

                         Standard orientation:
 ---------------------------------------------------------------------
 Center     Atomic      Atomic             Coordinates (Angstroms)
 Number     Number       Type             X           Y           Z
 ---------------------------------------------------------------------
      1          6           0        3.575184    1.169814   -0.052222
      2          6           0        2.063473    0.975140    0.071912
      3          6           0        1.615733   -0.437653   -0.354320
      4          8           0        2.268653   -1.455990    0.402616
      5          6           0        0.156435   -0.573210   -0.299146
      6          6           0       -1.040197   -0.689605   -0.217710
      7          6           0       -2.489731   -0.777740   -0.124784
      8          6           0       -3.126136    0.528073    0.359120
      9          8           0       -4.173735    0.948068   -0.048782
     10          1           0        4.109672    0.417659    0.533170
     11          1           0        3.900040    1.074352   -1.094298
     12          1           0        3.872690    2.161238    0.301152
     13          1           0        1.737835    1.140482    1.107229
     14          1           0        1.525914    1.706971   -0.541979
     15          1           0        1.949585   -0.610304   -1.385668
     16          1           0        1.884419   -1.447467    1.286526
     17          1           0       -2.954051   -1.053202   -1.077338
     18          1           0       -2.773788   -1.554140    0.602560
     19          1           0       -2.540230    1.058866    1.140882
 ---------------------------------------------------------------------

 SCF Done:  E(RB3LYP) =  -423.161880103     A.U. after    1 cycles

 The electronic state is 1-A.
 Alpha  occ. eigenvalues --  -19.15257 -19.14510 -10.28598 -10.25877 -10.22650
 Alpha  occ. eigenvalues --  -10.19203 -10.19089 -10.18505 -10.17640  -1.06065
 Alpha  occ. eigenvalues --   -1.02777  -0.81069  -0.78929  -0.73651  -0.67979
 Alpha  occ. eigenvalues --   -0.60716  -0.59740  -0.54046  -0.50072  -0.48007
 Alpha  occ. eigenvalues --   -0.47248  -0.45911  -0.45141  -0.42964  -0.41596
 Alpha  occ. eigenvalues --   -0.38363  -0.38271  -0.37514  -0.34696  -0.34127
 Alpha  occ. eigenvalues --   -0.29075  -0.28534  -0.26521  -0.25369
 Alpha virt. eigenvalues --   -0.03295   0.02784   0.04238   0.08684   0.11110
 Alpha virt. eigenvalues --    0.11217   0.12587   0.13621   0.15119   0.16118
 Alpha virt. eigenvalues --    0.16959   0.17514   0.18501   0.20528   0.22947

 Mulliken charges:
               1
     1  C   -0.386800
     2  C   -0.173029
     3  C   -0.052943
     4  O   -0.413648
     5  C    0.057089
     6  C    0.069504
     7  C   -0.417753
     8  C    0.173473
     9  O   -0.228287
    10  H    0.132313
    11  H    0.116499
    12  H    0.112239
    13  H    0.094769
    14  H    0.108798
    15  H    0.117474
    16  H    0.282292
    17  H    0.158122
    18  H    0.157806
    19  H    0.092080
 Sum of Mulliken charges =   0.00000

 Dipole moment (field-independent basis, Debye):
    X=              1.0328    Y=             -0.1821    Z=              1.2273  Tot=              1.6143
 Quadrupole moment (field-independent basis, Debye-Ang):
   XX=            -65.9354   YY=            -55.7105   ZZ=            -49.3951
   XY=              9.3968   XZ=             -1.7106   YZ=             -1.0058

  Exact polarizability: 117.969   1.779  67.993   1.052   0.904  62.036
 Approx polarizability: 161.525  -2.806  96.067   2.290  -1.242  94.652

                      1                      2                      3
                      A                      A                      A
 Frequencies --     11.4396                44.5267                75.3051
 Red. masses --      3.2889                 5.9477                 2.7363
 Frc consts  --      0.0003                 0.0069                 0.0091
 IR Inten    --      2.5412                 4.1413                 3.2729

                      4                      5                      6
                      A                      A                      A
 Frequencies --     92.5349               144.8409               180.7501
 Red. masses --      2.4926                 2.6647                 3.2440
 Frc consts  --      0.0126                 0.0329                 0.0624
 IR Inten    --      1.5747                 0.0303                 1.5925

                      7                      8                      9
                      A                      A                      A
 Frequencies --    221.6908               274.7411               283.5016
 Red. masses --      1.2257                 1.3363                 2.7915
 Frc consts  --      0.0355                 0.0594                 0.1322
 IR Inten    --      0.3843                62.6758                33.6274

                     10                     11                     12
                      A                      A                      A
 Frequencies --    341.5749               369.1221               444.4430
 Red. masses --      2.6139                 4.3916                 4.1289
 Frc consts  --      0.1797                 0.3525                 0.4805
 IR Inten    --     23.3554                 2.2546                30.7210

                     13                     14                     15
                      A                      A                      A
 Frequencies --    486.2284               552.8973               564.7922
 Red. masses --      3.0480                 7.8817                 3.6442
 Frc consts  --      0.4246                 1.4196                 0.6849
 IR Inten    --     10.5581                 3.7248                 2.9588

                     16                     17                     18
                      A                      A                      A
 Frequencies --    723.9481               772.8708               824.0069
 Red. masses --      1.7168                 1.5594                 1.8891
 Frc consts  --      0.5301                 0.5488                 0.7557
 IR Inten    --      4.0622                 0.0641                 9.1495

                     19                     20                     21
                      A                      A                      A
 Frequencies --    902.1250               978.0203              1032.3447
 Red. masses --      2.3539                 2.0687                 3.8207
 Frc consts  --      1.1287                 1.1659                 2.3990
 IR Inten    --     15.2488                43.4039                44.8454

                     22                     23                     24
                      A                      A                      A
 Frequencies --   1041.5701              1060.0749              1093.5728
 Red. masses --      1.7902                 2.8513                 1.6728
 Frc consts  --      1.1443                 1.8878                 1.1787
 IR Inten    --      3.1409                39.6511                22.8421

                     25                     26                     27
                      A                      A                      A
 Frequencies --   1113.8086              1163.9371              1210.8692
 Red. masses --      2.5112                 2.3593                 1.1994
 Frc consts  --      1.8355                 1.8832                 1.0361
 IR Inten    --     14.0348                14.7017                 4.9851

                     28                     29                     30
                      A                      A                      A
 Frequencies --   1251.6581              1289.4973              1292.1346
 Red. masses --      1.2828                 1.6263                 1.3275
 Frc consts  --      1.1841                 1.5932                 1.3059
 IR Inten    --      9.7573                18.0639                13.8478

                     31                     32                     33
                      A                      A                      A
 Frequencies --   1326.5198              1373.6054              1406.8042
 Red. masses --      1.2509                 1.4327                 1.2222
 Frc consts  --      1.2968                 1.5927                 1.4252
 IR Inten    --      2.0864                 0.5215                13.4823

                     34                     35                     36
                      A                      A                      A
 Frequencies --   1413.6471              1420.0708              1438.2964
 Red. masses --      1.1648                 1.2432                 1.0994
 Frc consts  --      1.3714                 1.4772                 1.3400
 IR Inten    --      8.7817                61.4959                 5.0422

                     37                     38                     39
                      A                      A                      A
 Frequencies --   1480.5730              1495.2409              1508.7683
 Red. masses --      1.0771                 1.0411                 1.0579
 Frc consts  --      1.3911                 1.3714                 1.4189
 IR Inten    --      1.5764                 4.6668                 4.4095

                     40                     41                     42
                      A                      A                      A
 Frequencies --   1842.7232              2359.6127              2898.5335
 Red. masses --     10.3260                11.8896                 1.0850
 Frc consts  --     20.6588                39.0030                 5.3706
 IR Inten    --    211.4069                 2.7873                77.8020

                     43                     44                     45
                      A                      A                      A
 Frequencies --   3001.6230              3021.6132              3034.1095
 Red. masses --      1.0671                 1.0690                 1.0752
 Frc consts  --      5.6645                 5.7504                 5.8316
 IR Inten    --     12.5378                 3.7585                24.3241

                     46                     47                     48
                      A                      A                      A
 Frequencies --   3039.4129              3069.1877              3080.1618
 Red. masses --      1.0383                 1.0988                 1.0913
 Frc consts  --      5.6515                 6.0982                 6.1003
 IR Inten    --     33.3891                19.1226                 4.1978

                     49                     50                     51
                      A                      A                      A
 Frequencies --   3105.1042              3127.3134              3802.9137
 Red. masses --      1.1004                 1.1011                 1.0661
 Frc consts  --      6.2511                 6.3448                 9.0838
 IR Inten    --     34.7168                20.3471                18.4211

 - Thermochemistry -
 -------------------
 Temperature   298.150 Kelvin.  Pressure   1.00000 Atm.
 Atom     1 has atomic number  6 and mass  12.00000

 Molecular mass:   126.06808 amu.
 Principal axes and moments of inertia in atomic units:
                           1         2         3
     Eigenvalues --   473.984023220.366063571.74576
           X            0.99967   0.02567  -0.00151
           Y           -0.02566   0.99966   0.00413
           Z            0.00161  -0.00409   0.99999
 This molecule is an asymmetric top.
 Rotational symmetry number  1.
 Warning -- assumption of classical behavior for rotation
           may cause significant error
 Rotational temperatures (Kelvin)      0.18274     0.02690     0.02425
 Rotational constants (GHZ):           3.80760     0.56041     0.50528
 Zero-point vibrational energy     407236.7 (Joules/Mol)
                                   97.33191 (Kcal/Mol)
 Warning -- explicit consideration of  15 degrees of freedom as
           vibrations may cause significant error
 Vibrational temperatures:     16.46    64.06   108.35   133.14   208.39
          (Kelvin)            260.06   318.96   395.29   407.90   491.45
                              531.08   639.45   699.57   795.49   812.61
                             1041.60  1111.99  1185.56  1297.96  1407.15
                             1485.31  1498.59  1525.21  1573.41  1602.52
                             1674.64  1742.17  1800.85  1855.30  1859.09
                             1908.56  1976.31  2024.07  2033.92  2043.16
                             2069.39  2130.21  2151.32  2170.78  2651.26
                             3394.95  4170.34  4318.66  4347.42  4365.40
                             4373.03  4415.87  4431.66  4467.55  4499.50
                             5471.54

 Zero-point correction=                           0.155108 (Hartree/Particle)
 Thermal correction to Energy=                    0.166118
 Thermal correction to Enthalpy=                  0.167062
 Thermal correction to Gibbs Free Energy=         0.116010
 Sum of electronic and zero-point Energies=           -423.006772
 Sum of electronic and thermal Energies=              -422.995763
 Sum of electronic and thermal Enthalpies=            -422.994818
 Sum of electronic and thermal Free Energies=         -423.045870

                     E (Thermal)             CV                S
                      KCal/Mol        Cal/Mol-Kelvin    Cal/Mol-Kelvin
 Total                  104.240             37.224            107.448
 Electronic               0.000              0.000              0.000
 Translational            0.889              2.981             40.409
 Rotational               0.889              2.981             30.079
 Vibrational            102.463             31.262             36.960
 Vibration     1          0.593              1.987              7.744
 Vibration     2          0.595              1.980              5.047
 Vibration     3          0.599              1.965              4.010
 Vibration     4          0.602              1.955              3.606
 Vibration     5          0.616              1.908              2.739
 Vibration     6          0.630              1.866              2.321
 Vibration     7          0.648              1.808              1.945
 Vibration     8          0.677              1.720              1.566
 Vibration     9          0.682              1.704              1.512
 Vibration    10          0.721              1.592              1.205
 Vibration    11          0.741              1.536              1.083
 Vibration    12          0.804              1.373              0.813
 Vibration    13          0.842              1.281              0.693
 Vibration    14          0.908              1.133              0.538
 Vibration    15          0.921              1.107              0.514

 Optimization completed on the basis of negligible forces.
    -- Stationary point found.
 Normal termination of Gaussian 09 at Tue Jan 28 08:54:29 2020.
