 Gaussian 09, Revision D.01,
 Gaussian 09:  ES64L-G09RevD.01 24-Apr-2013

 -----------------------------
 # b3lyp 6-31G(2df,p) opt Freq
 -----------------------------

 -----
 titel
 -----
 Symbolic Z-matrix:
 Charge =  0 Multiplicity = 1

 SCF Done:  E(RB3LYP) =  -423.145416832     A.U. after   14 cycles
 Optimization completed.
    -- Stationary point found.
 Normal termination of Gaussian 09 at Mon Jan 27 15:49:10 2020.

 ----------------------------------------------------------------------
 #N Geom=AllCheck Guess=TCheck SCRF=Check GenChk RB3LYP/6-31G(2df,p) Fr
 eq
 ----------------------------------------------------------------------

 Structure from the checkpoint file:  "/scratch/puck/g09_8d84b574-e341-42f8-9e3d-2e48afa672d1/Gau-28571.chk"
 -----
 titel
 -----
 Charge =  0 Multiplicity = 1

                         Standard orientation:
 ---------------------------------------------------------------------
 Center     Atomic      Atomic             Coordinates (Angstroms)
 Number     Number       Type             X           Y           Z
 ---------------------------------------------------------------------
      1          6           0        0.791632    2.380962    0.044627
      2          6           0        0.826994    0.867671    0.262937
      3          6           0        2.083641    0.233825   -0.358631
      4          6           0        2.234005   -1.179145   -0.035941
      5          6           0        2.361777   -2.339130    0.250104
      6          8           0       -0.284362    0.221602   -0.343725
      7          6           0       -1.495106    0.299000    0.361843
      8          6           0       -2.465558   -0.691565   -0.261626
      9          8           0       -3.636484   -0.734739    0.005894
     10          1           0        1.651937    2.860556    0.521713
     11          1           0        0.810952    2.613205   -1.024911
     12          1           0       -0.112685    2.821372    0.473743
     13          1           0        0.822543    0.650522    1.342752
     14          1           0        2.028792    0.367884   -1.446251
     15          1           0        2.964916    0.789076   -0.015704
     16          1           0        2.475425   -3.366480    0.492788
     17          1           0       -1.364908    0.024707    1.423490
     18          1           0       -1.949821    1.300993    0.339321
     19          1           0       -1.984697   -1.386447   -0.984169
 ---------------------------------------------------------------------

 SCF Done:  E(RB3LYP) =  -423.145416832     A.U. after    1 cycles

 The electronic state is 1-A.
 Alpha  occ. eigenvalues --  -19.15615 -19.14385 -10.27451 -10.25309 -10.24484
 Alpha  occ. eigenvalues --  -10.21416 -10.18939 -10.18283 -10.17173  -1.05752
 Alpha  occ. eigenvalues --   -1.04626  -0.81842  -0.75536  -0.72339  -0.69725
 Alpha  occ. eigenvalues --   -0.60465  -0.58791  -0.53231  -0.52356  -0.48689
 Alpha  occ. eigenvalues --   -0.47727  -0.46576  -0.44324  -0.42652  -0.41816
 Alpha  occ. eigenvalues --   -0.41083  -0.39188  -0.38337  -0.36255  -0.33322
 Alpha  occ. eigenvalues --   -0.27527  -0.26699  -0.26408  -0.25548
 Alpha virt. eigenvalues --   -0.02733   0.04832   0.05635   0.07654   0.10612
 Alpha virt. eigenvalues --    0.11728   0.12787   0.13396   0.14512   0.15209
 Alpha virt. eigenvalues --    0.15667   0.16606   0.18684   0.20097   0.22610

 Mulliken charges:
               1
     1  C   -0.407894
     2  C    0.144991
     3  C   -0.365240
     4  C    0.304400
     5  C   -0.439923
     6  O   -0.254246
     7  C   -0.153728
     8  C    0.141850
     9  O   -0.238253
    10  H    0.121556
    11  H    0.128490
    12  H    0.122986
    13  H    0.081943
    14  H    0.139522
    15  H    0.130309
    16  H    0.196224
    17  H    0.123334
    18  H    0.123244
    19  H    0.100436
 Sum of Mulliken charges =   0.00000

 Dipole moment (field-independent basis, Debye):
    X=              2.4129    Y=              1.6421    Z=              0.5709  Tot=              2.9740
 Quadrupole moment (field-independent basis, Debye-Ang):
   XX=            -65.7967   YY=            -48.4327   ZZ=            -52.5417
   XY=             -1.1917   XZ=              0.3312   YZ=             -0.5354

  Exact polarizability:  83.735  -2.091  91.856  -1.036  -1.725  59.482
 Approx polarizability: 110.416  -2.710 133.419  -2.375  -6.349  92.862

                      1                      2                      3
                      A                      A                      A
 Frequencies --     39.7096                57.3080                73.9775
 Red. masses --      4.8150                 2.0696                 3.4028
 Frc consts  --      0.0045                 0.0040                 0.0110
 IR Inten    --      0.5343                 2.8080                 5.3727

                      4                      5                      6
                      A                      A                      A
 Frequencies --     94.3637               154.1913               158.8429
 Red. masses --      2.9566                 3.6333                 2.7324
 Frc consts  --      0.0155                 0.0509                 0.0406
 IR Inten    --      3.8353                 0.6578                 5.4228

                      7                      8                      9
                      A                      A                      A
 Frequencies --    223.7486               292.1068               335.8754
 Red. masses --      1.1726                 3.5156                 4.3997
 Frc consts  --      0.0346                 0.1767                 0.2924
 IR Inten    --      0.9104                 0.3348                 2.8783

                     10                     11                     12
                      A                      A                      A
 Frequencies --    344.5367               421.9332               440.6602
 Red. masses --      2.6634                 3.7635                 3.1423
 Frc consts  --      0.1863                 0.3948                 0.3595
 IR Inten    --      5.3903                 0.5712                 9.1224

                     13                     14                     15
                      A                      A                      A
 Frequencies --    532.8637               579.0423               617.9381
 Red. masses --      4.4383                 3.3975                 1.2069
 Frc consts  --      0.7425                 0.6712                 0.2715
 IR Inten    --      3.3262                10.8230                43.7669

                     16                     17                     18
                      A                      A                      A
 Frequencies --    644.9799               744.5134               846.0476
 Red. masses --      1.2201                 1.2984                 2.6452
 Frc consts  --      0.2990                 0.4240                 1.1156
 IR Inten    --     43.2680                 0.7874                 8.9558

                     19                     20                     21
                      A                      A                      A
 Frequencies --    890.8788               918.2274               986.8853
 Red. masses --      1.6136                 2.2002                 2.9713
 Frc consts  --      0.7545                 1.0930                 1.7050
 IR Inten    --      2.6315                 4.0468                 8.0052

                     22                     23                     24
                      A                      A                      A
 Frequencies --   1038.2189              1091.8702              1110.0937
 Red. masses --      3.1138                 3.3179                 1.8771
 Frc consts  --      1.9775                 2.3305                 1.3629
 IR Inten    --     46.8428                 5.2919                 0.9001

                     25                     26                     27
                      A                      A                      A
 Frequencies --   1124.3208              1127.1679              1173.1230
 Red. masses --      1.8514                 2.3282                 4.3759
 Frc consts  --      1.3789                 1.7428                 3.5482
 IR Inten    --      3.4069                25.0231               200.3418

                     28                     29                     30
                      A                      A                      A
 Frequencies --   1238.8045              1256.3942              1311.6992
 Red. masses --      1.1082                 1.2688                 1.3088
 Frc consts  --      1.0020                 1.1800                 1.3268
 IR Inten    --      2.0503                 3.5942                 9.6694

                     31                     32                     33
                      A                      A                      A
 Frequencies --   1342.2728              1379.1975              1387.0305
 Red. masses --      1.2409                 1.4976                 1.2093
 Frc consts  --      1.3172                 1.6784                 1.3707
 IR Inten    --     26.7713                 4.9564                21.9810

                     34                     35                     36
                      A                      A                      A
 Frequencies --   1407.2559              1413.2830              1457.8375
 Red. masses --      1.2588                 1.3240                 1.0927
 Frc consts  --      1.4688                 1.5581                 1.3683
 IR Inten    --     16.1099                 1.9546                 3.1377

                     37                     38                     39
                      A                      A                      A
 Frequencies --   1480.3948              1490.4242              1499.4543
 Red. masses --      1.0819                 1.0565                 1.0660
 Frc consts  --      1.3970                 1.3827                 1.4122
 IR Inten    --     10.3489                 2.7490                 7.1776

                     40                     41                     42
                      A                      A                      A
 Frequencies --   1844.5787              2242.5627              2906.1633
 Red. masses --     10.6146                 5.9234                 1.0849
 Frc consts  --     21.2789                17.5514                 5.3986
 IR Inten    --    167.7601                 1.6106                72.5114

                     43                     44                     45
                      A                      A                      A
 Frequencies --   2960.5547              2981.9077              3009.1945
 Red. masses --      1.0616                 1.0827                 1.0950
 Frc consts  --      5.4822                 5.6724                 5.8420
 IR Inten    --     29.2348                31.4877                24.8628

                     46                     47                     48
                      A                      A                      A
 Frequencies --   3029.3579              3041.0530              3067.6120
 Red. masses --      1.0579                 1.0364                 1.1014
 Frc consts  --      5.7201                 5.6472                 6.1067
 IR Inten    --     11.8911                19.9125                 8.6277

                     49                     50                     51
                      A                      A                      A
 Frequencies --   3113.8232              3116.6750              3507.0240
 Red. masses --      1.1013                 1.1018                 1.1626
 Frc consts  --      6.2911                 6.3060                 8.4247
 IR Inten    --     24.8662                22.2633                63.9055

 - Thermochemistry -
 -------------------
 Temperature   298.150 Kelvin.  Pressure   1.00000 Atm.
 Atom     1 has atomic number  6 and mass  12.00000

 Molecular mass:   126.06808 amu.
 Principal axes and moments of inertia in atomic units:
                           1         2         3
     Eigenvalues --   827.179091986.566442697.37095
           X            0.99997   0.00701  -0.00242
           Y           -0.00700   0.99997   0.00356
           Z            0.00244  -0.00355   0.99999
 This molecule is an asymmetric top.
 Rotational symmetry number  1.
 Warning -- assumption of classical behavior for rotation
           may cause significant error
 Rotational temperatures (Kelvin)      0.10471     0.04360     0.03211
 Rotational constants (GHZ):           2.18180     0.90847     0.66907
 Zero-point vibrational energy     404026.6 (Joules/Mol)
                                   96.56469 (Kcal/Mol)
 Warning -- explicit consideration of  15 degrees of freedom as
           vibrations may cause significant error
 Vibrational temperatures:     57.13    82.45   106.44   135.77   221.85
          (Kelvin)            228.54   321.92   420.28   483.25   495.71
                              607.07   634.01   766.67   833.11   889.07
                              927.98  1071.19  1217.27  1281.77  1321.12
                             1419.91  1493.76  1570.96  1597.18  1617.64
                             1621.74  1687.86  1782.36  1807.67  1887.24
                             1931.23  1984.36  1995.63  2024.72  2033.40
                             2097.50  2129.96  2144.39  2157.38  2653.93
                             3226.54  4181.32  4259.57  4290.29  4329.55
                             4358.56  4375.39  4413.60  4480.09  4484.19
                             5045.82

 Zero-point correction=                           0.153886 (Hartree/Particle)
 Thermal correction to Energy=                    0.164662
 Thermal correction to Enthalpy=                  0.165606
 Thermal correction to Gibbs Free Energy=         0.116336
 Sum of electronic and zero-point Energies=           -422.991531
 Sum of electronic and thermal Energies=              -422.980755
 Sum of electronic and thermal Enthalpies=            -422.979810
 Sum of electronic and thermal Free Energies=         -423.029081

                     E (Thermal)             CV                S
                      KCal/Mol        Cal/Mol-Kelvin    Cal/Mol-Kelvin
 Total                  103.327             37.040            103.698
 Electronic               0.000              0.000              0.000
 Translational            0.889              2.981             40.409
 Rotational               0.889              2.981             29.873
 Vibrational            101.550             31.079             33.417
 Vibration     1          0.594              1.981              5.274
 Vibration     2          0.596              1.975              4.548
 Vibration     3          0.599              1.966              4.045
 Vibration     4          0.603              1.953              3.568
 Vibration     5          0.620              1.898              2.620
 Vibration     6          0.621              1.893              2.564
 Vibration     7          0.649              1.805              1.929
 Vibration     8          0.687              1.688              1.462
 Vibration     9          0.717              1.604              1.232
 Vibration    10          0.723              1.586              1.191
 Vibration    11          0.784              1.423              0.885
 Vibration    12          0.801              1.381              0.825
 Vibration    13          0.888              1.177              0.581
 Vibration    14          0.936              1.077              0.487
 Vibration    15          0.978              0.994              0.420

 Optimization completed.
    -- Stationary point found.
 Normal termination of Gaussian 09 at Mon Jan 27 16:25:41 2020.
