 Gaussian 09, Revision D.01,
 Gaussian 09:  ES64L-G09RevD.01 24-Apr-2013

 -----------------------------
 # b3lyp 6-31G(2df,p) opt Freq
 -----------------------------

 -----
 titel
 -----
 Symbolic Z-matrix:
 Charge =  0 Multiplicity = 1

 SCF Done:  E(RB3LYP) =  -423.160720072     A.U. after   13 cycles
 Optimization completed.
    -- Stationary point found.
 Normal termination of Gaussian 09 at Mon Jan 27 11:15:00 2020.

 ----------------------------------------------------------------------
 #N Geom=AllCheck Guess=TCheck SCRF=Check GenChk RB3LYP/6-31G(2df,p) Fr
 eq
 ----------------------------------------------------------------------

 Structure from the checkpoint file:  "/scratch/puck/g09_9aa94591-0ee9-4b36-9e25-90cbaf1e2fc4/Gau-68810.chk"
 -----
 titel
 -----
 Charge =  0 Multiplicity = 1

                         Standard orientation:
 ---------------------------------------------------------------------
 Center     Atomic      Atomic             Coordinates (Angstroms)
 Number     Number       Type             X           Y           Z
 ---------------------------------------------------------------------
      1          6           0        2.507580   -0.295385    0.172558
      2          6           0        1.509970   -0.340159   -1.018482
      3          6           0        0.403434    0.166116   -0.065216
      4          6           0        1.512592    0.628089    0.928372
      5          8           0       -0.451709    1.151858   -0.627587
      6          6           0       -1.756784    1.084448   -0.059982
      7          6           0       -1.874714   -0.308010    0.516451
      8          8           0       -1.513977   -1.328117   -0.421220
      9          6           0       -0.527098   -0.877336    0.514242
     10          1           0        2.618099   -1.269139    0.657415
     11          1           0        3.503094    0.104806   -0.026275
     12          1           0        1.730590    0.426753   -1.764926
     13          1           0        1.333439   -1.291480   -1.524729
     14          1           0        1.730823    1.686366    0.765719
     15          1           0        1.351844    0.456515    1.996810
     16          1           0       -1.891865    1.830442    0.739276
     17          1           0       -2.482929    1.289330   -0.853905
     18          1           0       -2.645530   -0.560349    1.239315
     19          1           0       -0.171959   -1.609750    1.234088
 ---------------------------------------------------------------------

 SCF Done:  E(RB3LYP) =  -423.160720072     A.U. after    1 cycles

 The electronic state is 1-A.
 Alpha  occ. eigenvalues --  -19.15278 -19.13915 -10.24063 -10.23791 -10.23725
 Alpha  occ. eigenvalues --  -10.23294 -10.18440 -10.18102 -10.17769  -1.08566
 Alpha  occ. eigenvalues --   -1.02349  -0.84249  -0.73179  -0.70222  -0.66154
 Alpha  occ. eigenvalues --   -0.61149  -0.60130  -0.55107  -0.51843  -0.48431
 Alpha  occ. eigenvalues --   -0.47977  -0.45876  -0.43711  -0.41227  -0.39926
 Alpha  occ. eigenvalues --   -0.38669  -0.35796  -0.34411  -0.33584  -0.32014
 Alpha  occ. eigenvalues --   -0.31832  -0.30526  -0.26043  -0.24690
 Alpha virt. eigenvalues --    0.08643   0.09152   0.09819   0.11365   0.12083
 Alpha virt. eigenvalues --    0.13188   0.14081   0.15257   0.15815   0.17055
 Alpha virt. eigenvalues --    0.18302   0.18649   0.19080   0.20228   0.20841

 Mulliken charges:
               1
     1  C   -0.217147
     2  C   -0.277029
     3  C    0.443288
     4  C   -0.290396
     5  O   -0.313300
     6  C   -0.126440
     7  C    0.024889
     8  O   -0.256535
     9  C   -0.048258
    10  H    0.103445
    11  H    0.104467
    12  H    0.115674
    13  H    0.109728
    14  H    0.113304
    15  H    0.092262
    16  H    0.096630
    17  H    0.118890
    18  H    0.102984
    19  H    0.103542
 Sum of Mulliken charges =   0.00000

 Dipole moment (field-independent basis, Debye):
    X=              0.2038    Y=              0.2760    Z=              2.0358  Tot=              2.0645
 Quadrupole moment (field-independent basis, Debye-Ang):
   XX=            -49.7190   YY=            -55.1421   ZZ=            -53.1679
   XY=             -2.8266   XZ=             -2.7661   YZ=             -1.0627

  Exact polarizability:  89.499  -4.454  68.962  -1.051   0.221  66.257
 Approx polarizability: 116.347  -5.156 104.373   0.631   1.626 101.660

                      1                      2                      3
                      A                      A                      A
 Frequencies --    103.1818               131.9217               196.5144
 Red. masses --      3.4675                 2.3162                 2.5585
 Frc consts  --      0.0218                 0.0238                 0.0582
 IR Inten    --      2.7762                 1.3080                 1.1771

                      4                      5                      6
                      A                      A                      A
 Frequencies --    323.1663               334.3814               389.3549
 Red. masses --      2.8333                 2.2083                 4.3648
 Frc consts  --      0.1743                 0.1455                 0.3899
 IR Inten    --      3.7308                 0.6155                 2.2038

                      7                      8                      9
                      A                      A                      A
 Frequencies --    462.7756               521.3944               677.2596
 Red. masses --      4.1356                 4.0882                 1.8105
 Frc consts  --      0.5218                 0.6548                 0.4893
 IR Inten    --      3.6336                 4.0117                 2.0267

                     10                     11                     12
                      A                      A                      A
 Frequencies --    738.1623               786.5189               808.8786
 Red. masses --      3.2888                 1.4317                 2.7144
 Frc consts  --      1.0558                 0.5218                 1.0464
 IR Inten    --      2.1843                 2.9065                15.0677

                     13                     14                     15
                      A                      A                      A
 Frequencies --    844.3919               853.2988               890.2630
 Red. masses --      4.5618                 1.7532                 2.2007
 Frc consts  --      1.9164                 0.7521                 1.0276
 IR Inten    --     20.3861                 5.9078                23.6185

                     16                     17                     18
                      A                      A                      A
 Frequencies --    907.3414               927.1543               952.8917
 Red. masses --      2.3006                 2.5791                 3.0615
 Frc consts  --      1.1159                 1.3062                 1.6379
 IR Inten    --      8.0244                 0.6996                 8.6760

                     19                     20                     21
                      A                      A                      A
 Frequencies --    955.3064               998.6955              1029.4739
 Red. masses --      2.8869                 1.6420                 1.1470
 Frc consts  --      1.5523                 0.9649                 0.7162
 IR Inten    --      5.8234                11.5055                 2.6111

                     22                     23                     24
                      A                      A                      A
 Frequencies --   1046.5505              1067.9964              1094.3867
 Red. masses --      1.9661                 3.6332                 3.4652
 Frc consts  --      1.2688                 2.4416                 2.4453
 IR Inten    --     12.9271                12.6842                45.4975

                     25                     26                     27
                      A                      A                      A
 Frequencies --   1119.6677              1153.4712              1193.0539
 Red. masses --      1.5233                 3.8031                 1.7686
 Frc consts  --      1.1251                 2.9812                 1.4832
 IR Inten    --      2.3446                88.7695                 3.6408

                     28                     29                     30
                      A                      A                      A
 Frequencies --   1200.1760              1225.1699              1244.4471
 Red. masses --      1.4525                 1.1593                 1.2145
 Frc consts  --      1.2327                 1.0252                 1.1081
 IR Inten    --      0.4847                 9.6820                 0.4455

                     31                     32                     33
                      A                      A                      A
 Frequencies --   1255.5851              1269.4173              1271.7177
 Red. masses --      1.3227                 1.3914                 1.4137
 Frc consts  --      1.2285                 1.3210                 1.3471
 IR Inten    --      3.7496                 1.0197                 4.0868

                     34                     35                     36
                      A                      A                      A
 Frequencies --   1288.6648              1340.4862              1379.2132
 Red. masses --      1.7695                 1.9551                 1.6736
 Frc consts  --      1.7314                 2.0699                 1.8757
 IR Inten    --     17.1398                 1.8640                 2.4144

                     37                     38                     39
                      A                      A                      A
 Frequencies --   1441.3893              1470.2146              1485.5195
 Red. masses --      3.3097                 1.0896                 1.0852
 Frc consts  --      4.0513                 1.3877                 1.4109
 IR Inten    --      8.3144                 2.0588                 2.7433

                     40                     41                     42
                      A                      A                      A
 Frequencies --   1506.0078              1509.1751              2982.9262
 Red. masses --      1.1166                 1.1066                 1.0691
 Frc consts  --      1.4922                 1.4850                 5.6047
 IR Inten    --      2.9051                 0.6789                68.9637

                     43                     44                     45
                      A                      A                      A
 Frequencies --   3053.4850              3065.4068              3068.7368
 Red. masses --      1.0593                 1.0594                 1.0934
 Frc consts  --      5.8189                 5.8654                 6.0668
 IR Inten    --     35.5553                36.5262                30.5802

                     46                     47                     48
                      A                      A                      A
 Frequencies --   3070.6231              3107.4676              3119.5443
 Red. masses --      1.0609                 1.1056                 1.1072
 Frc consts  --      5.8934                 6.2899                 6.3483
 IR Inten    --     14.6716                 8.7136                12.8675

                     49                     50                     51
                      A                      A                      A
 Frequencies --   3131.4570              3149.5730              3162.8350
 Red. masses --      1.1073                 1.0873                 1.0967
 Frc consts  --      6.3975                 6.3548                 6.4638
 IR Inten    --     38.5805                15.0228                25.4390

 - Thermochemistry -
 -------------------
 Temperature   298.150 Kelvin.  Pressure   1.00000 Atm.
 Atom     1 has atomic number  6 and mass  12.00000

 Molecular mass:   126.06808 amu.
 Principal axes and moments of inertia in atomic units:
                           1         2         3
     Eigenvalues --   533.593811264.439531415.32921
           X            0.99964  -0.02545  -0.00855
           Y            0.02549   0.99966   0.00509
           Z            0.00842  -0.00531   0.99995
 This molecule is an asymmetric top.
 Rotational symmetry number  1.
 Warning -- assumption of classical behavior for rotation
           may cause significant error
 Rotational temperatures (Kelvin)      0.16232     0.06850     0.06120
 Rotational constants (GHZ):           3.38224     1.42731     1.27514
 Zero-point vibrational energy     420527.4 (Joules/Mol)
                                  100.50846 (Kcal/Mol)
 Warning -- explicit consideration of   8 degrees of freedom as
           vibrations may cause significant error
 Vibrational temperatures:    148.46   189.81   282.74   464.96   481.10
          (Kelvin)            560.19   665.83   750.17   974.42  1062.05
                             1131.62  1163.79  1214.89  1227.71  1280.89
                             1305.46  1333.97  1371.00  1374.47  1436.90
                             1481.18  1505.75  1536.61  1574.58  1610.95
                             1659.59  1716.54  1726.78  1762.74  1790.48
                             1806.50  1826.41  1829.72  1854.10  1928.66
                             1984.38  2073.84  2115.31  2137.33  2166.81
                             2171.36  4291.76  4393.28  4410.43  4415.22
                             4417.94  4470.95  4488.32  4505.46  4531.53
                             4550.61

 Zero-point correction=                           0.160170 (Hartree/Particle)
 Thermal correction to Energy=                    0.167636
 Thermal correction to Enthalpy=                  0.168580
 Thermal correction to Gibbs Free Energy=         0.128191
 Sum of electronic and zero-point Energies=           -423.000550
 Sum of electronic and thermal Energies=              -422.993084
 Sum of electronic and thermal Enthalpies=            -422.992140
 Sum of electronic and thermal Free Energies=         -423.032529

                     E (Thermal)             CV                S
                      KCal/Mol        Cal/Mol-Kelvin    Cal/Mol-Kelvin
 Total                  105.193             29.578             85.006
 Electronic               0.000              0.000              0.000
 Translational            0.889              2.981             40.409
 Rotational               0.889              2.981             28.348
 Vibrational            103.416             23.617             16.249
 Vibration     1          0.605              1.947              3.393
 Vibration     2          0.612              1.921              2.918
 Vibration     3          0.636              1.845              2.165
 Vibration     4          0.708              1.629              1.294
 Vibration     5          0.716              1.607              1.239
 Vibration     6          0.757              1.493              1.003
 Vibration     7          0.820              1.333              0.758
 Vibration     8          0.876              1.203              0.607

 Normal termination of Gaussian 09 at Mon Jan 27 12:01:03 2020.
