 Gaussian 09, Revision D.01,
 Gaussian 09:  ES64L-G09RevD.01 24-Apr-2013

 -----------------------------
 # b3lyp 6-31G(2df,p) opt Freq
 -----------------------------

 -----
 titel
 -----
 Symbolic Z-matrix:
 Charge =  0 Multiplicity = 1

 SCF Done:  E(RB3LYP) =  -423.196232969     A.U. after   12 cycles
 Optimization completed.
    -- Stationary point found.
 Normal termination of Gaussian 09 at Mon Jan 27 18:07:54 2020.

 ----------------------------------------------------------------------
 #N Geom=AllCheck Guess=TCheck SCRF=Check GenChk RB3LYP/6-31G(2df,p) Fr
 eq
 ----------------------------------------------------------------------

 Structure from the checkpoint file:  "/scratch/puck/g09_81da48e9-2de4-4ee6-baa9-a42c3bf3c390/Gau-181666.chk"
 -----
 titel
 -----
 Charge =  0 Multiplicity = 1

                         Standard orientation:
 ---------------------------------------------------------------------
 Center     Atomic      Atomic             Coordinates (Angstroms)
 Number     Number       Type             X           Y           Z
 ---------------------------------------------------------------------
      1          6           0       -2.399479   -0.058440   -0.082112
      2          6           0       -0.891659   -0.022405    0.016736
      3          6           0       -0.241439   -0.805789    1.183518
      4          6           0        1.172583   -0.969448    0.657691
      5          6           0        1.687337    0.267261   -0.066124
      6          6           0        0.904538    1.558197    0.084271
      7          8           0       -0.509419    1.339951    0.095931
      8          6           0        1.027199   -0.840558   -0.838374
      9          8           0       -0.326625   -0.608414   -1.157301
     10          1           0       -2.745071   -1.089952   -0.177814
     11          1           0       -2.843551    0.390905    0.809053
     12          1           0       -2.720899    0.509634   -0.957820
     13          1           0       -0.320688   -0.237764    2.113756
     14          1           0       -0.721918   -1.779954    1.320310
     15          1           0        1.862902   -1.665435    1.117757
     16          1           0        2.762524    0.384243   -0.157325
     17          1           0        1.188017    2.074737    1.012897
     18          1           0        1.132276    2.235246   -0.749790
     19          1           0        1.540278   -1.446866   -1.573694
 ---------------------------------------------------------------------

 SCF Done:  E(RB3LYP) =  -423.196232969     A.U. after    1 cycles

 The electronic state is 1-A.
 Alpha  occ. eigenvalues --  -19.14036 -19.13372 -10.27796 -10.23316 -10.23053
 Alpha  occ. eigenvalues --  -10.19370 -10.19173 -10.18424 -10.17241  -1.07532
 Alpha  occ. eigenvalues --   -0.99941  -0.85743  -0.77849  -0.70489  -0.68676
 Alpha  occ. eigenvalues --   -0.61777  -0.57901  -0.53435  -0.51229  -0.49252
 Alpha  occ. eigenvalues --   -0.46863  -0.44012  -0.43494  -0.41638  -0.40016
 Alpha  occ. eigenvalues --   -0.38899  -0.37993  -0.36553  -0.34621  -0.33568
 Alpha  occ. eigenvalues --   -0.30895  -0.29318  -0.24905  -0.22906
 Alpha virt. eigenvalues --    0.08386   0.10911   0.11848   0.13242   0.13946
 Alpha virt. eigenvalues --    0.14989   0.15107   0.15720   0.16175   0.17065
 Alpha virt. eigenvalues --    0.18048   0.18995   0.20002   0.21175   0.21576

 Mulliken charges:
               1
     1  C   -0.448954
     2  C    0.427114
     3  C   -0.264165
     4  C   -0.125316
     5  C   -0.114480
     6  C   -0.089034
     7  O   -0.294363
     8  C    0.096091
     9  O   -0.275373
    10  H    0.122946
    11  H    0.126267
    12  H    0.135885
    13  H    0.109671
    14  H    0.104723
    15  H    0.088827
    16  H    0.090663
    17  H    0.099707
    18  H    0.109064
    19  H    0.100727
 Sum of Mulliken charges =   0.00000

 Dipole moment (field-independent basis, Debye):
    X=              1.3789    Y=             -0.7571    Z=              1.0628  Tot=              1.8984
 Quadrupole moment (field-independent basis, Debye-Ang):
   XX=            -48.7896   YY=            -53.2755   ZZ=            -54.0963
   XY=              1.0050   XZ=             -1.5739   YZ=             -0.7473

  Exact polarizability:  81.152   2.228  72.172  -1.581  -0.908  66.103
 Approx polarizability: 108.299   2.946 106.035  -0.596   0.540 103.400

                      1                      2                      3
                      A                      A                      A
 Frequencies --    136.7604               191.4974               286.2764
 Red. masses --      2.5042                 1.0305                 2.8315
 Frc consts  --      0.0276                 0.0223                 0.1367
 IR Inten    --      3.2229                 0.0592                 2.5568

                      4                      5                      6
                      A                      A                      A
 Frequencies --    290.2245               418.8544               442.2847
 Red. masses --      2.5215                 2.2397                 3.1749
 Frc consts  --      0.1251                 0.2315                 0.3659
 IR Inten    --      2.2004                 0.2513                 0.5036

                      7                      8                      9
                      A                      A                      A
 Frequencies --    506.8884               545.6509               608.7928
 Red. masses --      4.1767                 5.6649                 5.1306
 Frc consts  --      0.6323                 0.9937                 1.1204
 IR Inten    --      3.5418                 3.4629                 1.1546

                     10                     11                     12
                      A                      A                      A
 Frequencies --    686.9191               731.6998               775.2727
 Red. masses --      4.4770                 4.1817                 2.1149
 Frc consts  --      1.2447                 1.3191                 0.7490
 IR Inten    --      1.0309                 3.5286                 5.4698

                     13                     14                     15
                      A                      A                      A
 Frequencies --    787.7711               839.9773               846.6423
 Red. masses --      1.9937                 3.0053                 3.0977
 Frc consts  --      0.7290                 1.2493                 1.3082
 IR Inten    --     27.4864                21.1169                29.5581

                     16                     17                     18
                      A                      A                      A
 Frequencies --    889.8197               935.1838               965.4639
 Red. masses --      1.9992                 2.3024                 1.8408
 Frc consts  --      0.9326                 1.1864                 1.0109
 IR Inten    --      8.0998                20.6915                 7.7856

                     19                     20                     21
                      A                      A                      A
 Frequencies --    991.6997              1008.3231              1033.0875
 Red. masses --      2.1030                 1.9895                 2.0360
 Frc consts  --      1.2186                 1.1918                 1.2803
 IR Inten    --     11.5844                 2.9821                16.5683

                     22                     23                     24
                      A                      A                      A
 Frequencies --   1046.1399              1076.4243              1107.6163
 Red. masses --      1.6201                 1.3520                 1.7579
 Frc consts  --      1.0446                 0.9230                 1.2706
 IR Inten    --     23.1908                 3.0433                 3.5120

                     25                     26                     27
                      A                      A                      A
 Frequencies --   1135.2640              1143.2831              1146.8791
 Red. masses --      2.0738                 2.9592                 1.6325
 Frc consts  --      1.5747                 2.2789                 1.2651
 IR Inten    --     32.3908                70.5998                 2.6492

                     28                     29                     30
                      A                      A                      A
 Frequencies --   1178.0259              1216.6585              1237.3697
 Red. masses --      2.4096                 1.4765                 2.0726
 Frc consts  --      1.9701                 1.2877                 1.8696
 IR Inten    --     61.3665                33.2397                11.5146

                     31                     32                     33
                      A                      A                      A
 Frequencies --   1254.7086              1320.8930              1340.3634
 Red. masses --      1.1035                 1.8209                 1.7915
 Frc consts  --      1.0236                 1.8718                 1.8963
 IR Inten    --      0.3983                 4.0059                 3.7358

                     34                     35                     36
                      A                      A                      A
 Frequencies --   1346.0198              1394.4467              1414.7111
 Red. masses --      1.8114                 1.8903                 1.5435
 Frc consts  --      1.9336                 2.1657                 1.8201
 IR Inten    --     40.0157                24.6951                21.2839

                     37                     38                     39
                      A                      A                      A
 Frequencies --   1441.7853              1479.7371              1488.6352
 Red. masses --      1.9002                 1.0568                 1.0973
 Frc consts  --      2.3273                 1.3633                 1.4326
 IR Inten    --     17.6463                 1.0663                 4.0520

                     40                     41                     42
                      A                      A                      A
 Frequencies --   1490.6954              1524.8117              2990.7735
 Red. masses --      1.0683                 1.0863                 1.0624
 Frc consts  --      1.3987                 1.4881                 5.5990
 IR Inten    --      1.1358                 0.3872                83.6074

                     43                     44                     45
                      A                      A                      A
 Frequencies --   3025.4562              3050.8426              3059.8702
 Red. masses --      1.1015                 1.0592                 1.0361
 Frc consts  --      5.9407                 5.8087                 5.7153
 IR Inten    --     43.7784                21.7439                16.0752

                     46                     47                     48
                      A                      A                      A
 Frequencies --   3105.5710              3139.0366              3142.0536
 Red. masses --      1.1041                 1.1022                 1.1027
 Frc consts  --      6.2738                 6.3988                 6.4143
 IR Inten    --     14.8716                12.1170                13.9851

                     49                     50                     51
                      A                      A                      A
 Frequencies --   3159.9186              3185.0912              3200.6203
 Red. masses --      1.0888                 1.0904                 1.0953
 Frc consts  --      6.4057                 6.5176                 6.6106
 IR Inten    --     11.8242                11.5666                22.5336

 - Thermochemistry -
 -------------------
 Temperature   298.150 Kelvin.  Pressure   1.00000 Atm.
 Atom     1 has atomic number  6 and mass  12.00000

 Molecular mass:   126.06808 amu.
 Principal axes and moments of inertia in atomic units:
                           1         2         3
     Eigenvalues --   631.54738 942.256431107.29208
           X            0.99953   0.02878  -0.01036
           Y           -0.02922   0.99857  -0.04476
           Z            0.00906   0.04504   0.99894
 This molecule is an asymmetric top.
 Rotational symmetry number  1.
 Warning -- assumption of classical behavior for rotation
           may cause significant error
 Rotational temperatures (Kelvin)      0.13715     0.09192     0.07822
 Rotational constants (GHZ):           2.85765     1.91534     1.62987
 Zero-point vibrational energy     423255.5 (Joules/Mol)
                                  101.16049 (Kcal/Mol)
 Warning -- explicit consideration of   9 degrees of freedom as
           vibrations may cause significant error
 Vibrational temperatures:    196.77   275.52   411.89   417.57   602.64
          (Kelvin)            636.35   729.30   785.07   875.92   988.32
                             1052.75  1115.44  1133.43  1208.54  1218.13
                             1280.25  1345.52  1389.09  1426.83  1450.75
                             1486.38  1505.16  1548.73  1593.61  1633.39
                             1644.93  1650.10  1694.91  1750.50  1780.30
                             1805.24  1900.47  1928.48  1936.62  2006.30
                             2035.45  2074.40  2129.01  2141.81  2144.78
                             2193.86  4303.05  4352.95  4389.48  4402.47
                             4468.22  4516.37  4520.71  4546.41  4582.63
                             4604.97

 Zero-point correction=                           0.161210 (Hartree/Particle)
 Thermal correction to Energy=                    0.168331
 Thermal correction to Enthalpy=                  0.169275
 Thermal correction to Gibbs Free Energy=         0.130086
 Sum of electronic and zero-point Energies=           -423.035023
 Sum of electronic and thermal Energies=              -423.027902
 Sum of electronic and thermal Enthalpies=            -423.026958
 Sum of electronic and thermal Free Energies=         -423.066147

                     E (Thermal)             CV                S
                      KCal/Mol        Cal/Mol-Kelvin    Cal/Mol-Kelvin
 Total                  105.629             29.368             82.480
 Electronic               0.000              0.000              0.000
 Translational            0.889              2.981             40.409
 Rotational               0.889              2.981             27.979
 Vibrational            103.852             23.407             14.092
 Vibration     1          0.614              1.917              2.849
 Vibration     2          0.634              1.852              2.213
 Vibration     3          0.684              1.699              1.496
 Vibration     4          0.686              1.692              1.473
 Vibration     5          0.782              1.429              0.896
 Vibration     6          0.802              1.378              0.819
 Vibration     7          0.862              1.235              0.641
 Vibration     8          0.901              1.149              0.553
 Vibration     9          0.968              1.013              0.435

 Optimization completed.
    -- Stationary point found.
 Normal termination of Gaussian 09 at Mon Jan 27 18:55:39 2020.
