 Gaussian 09, Revision D.01,
 Gaussian 09:  ES64L-G09RevD.01 24-Apr-2013

 -----------------------------
 # b3lyp 6-31G(2df,p) opt Freq
 -----------------------------

 -----
 titel
 -----
 Symbolic Z-matrix:
 Charge =  0 Multiplicity = 1

 SCF Done:  E(RB3LYP) =  -423.148252487     A.U. after   14 cycles
 Optimization completed.
    -- Stationary point found.
 Normal termination of Gaussian 09 at Tue Jan 28 09:49:32 2020.

 ----------------------------------------------------------------------
 #N Geom=AllCheck Guess=TCheck SCRF=Check GenChk RB3LYP/6-31G(2df,p) Fr
 eq
 ----------------------------------------------------------------------

 Structure from the checkpoint file:  "/scratch/puck/g09_8f91afd7-7e69-4c30-842a-8bb99ba46dee/Gau-18737.chk"
 -----
 titel
 -----
 Charge =  0 Multiplicity = 1

                         Standard orientation:
 ---------------------------------------------------------------------
 Center     Atomic      Atomic             Coordinates (Angstroms)
 Number     Number       Type             X           Y           Z
 ---------------------------------------------------------------------
      1          6           0       -2.533941    0.489104    0.090410
      2          6           0       -1.715631   -0.656985   -0.522434
      3          6           0       -0.283926   -0.652972   -0.067503
      4          6           0        0.228165   -1.303524    1.210366
      5          6           0        0.833194   -1.671663   -0.107069
      6          8           0        1.817514   -0.703900   -0.500582
      7          6           0        0.796602    0.316073   -0.587780
      8          6           0        1.089427    1.559362    0.224877
      9          8           0        0.406208    2.550810    0.174209
     10          1           0       -3.558156    0.487045   -0.293972
     11          1           0       -2.579990    0.396552    1.180319
     12          1           0       -2.080162    1.457550   -0.140338
     13          1           0       -2.169530   -1.621581   -0.263843
     14          1           0       -1.745261   -0.586748   -1.617787
     15          1           0        0.816951   -0.765638    1.947172
     16          1           0       -0.458102   -2.036616    1.624673
     17          1           0        0.908321   -2.667907   -0.526803
     18          1           0        0.614273    0.601478   -1.632101
     19          1           0        1.978533    1.484215    0.888467
 ---------------------------------------------------------------------

 SCF Done:  E(RB3LYP) =  -423.148252487     A.U. after    1 cycles

 The electronic state is 1-A.
 Alpha  occ. eigenvalues --  -19.15190 -19.14861 -10.27575 -10.25033 -10.24850
 Alpha  occ. eigenvalues --  -10.21542 -10.19969 -10.19600 -10.17575  -1.06828
 Alpha  occ. eigenvalues --   -1.05191  -0.85228  -0.76959  -0.73276  -0.64864
 Alpha  occ. eigenvalues --   -0.61197  -0.59201  -0.55370  -0.50531  -0.49118
 Alpha  occ. eigenvalues --   -0.47934  -0.45327  -0.43974  -0.42175  -0.40362
 Alpha  occ. eigenvalues --   -0.39080  -0.38532  -0.37806  -0.36115  -0.34137
 Alpha  occ. eigenvalues --   -0.32470  -0.29160  -0.25034  -0.24794
 Alpha virt. eigenvalues --   -0.03822   0.07188   0.09001   0.11009   0.11472
 Alpha virt. eigenvalues --    0.12521   0.13186   0.14915   0.15354   0.15788
 Alpha virt. eigenvalues --    0.17713   0.18175   0.18861   0.20143   0.21322

 Mulliken charges:
               1
     1  C   -0.383017
     2  C   -0.299653
     3  C    0.277693
     4  C   -0.354715
     5  C    0.040039
     6  O   -0.304042
     7  C   -0.001294
     8  C    0.127760
     9  O   -0.241650
    10  H    0.111539
    11  H    0.118654
    12  H    0.145480
    13  H    0.100709
    14  H    0.103366
    15  H    0.119384
    16  H    0.120618
    17  H    0.111875
    18  H    0.110373
    19  H    0.096882
 Sum of Mulliken charges =   0.00000

 Dipole moment (field-independent basis, Debye):
    X=             -0.9378    Y=             -2.3089    Z=              0.0821  Tot=              2.4934
 Quadrupole moment (field-independent basis, Debye-Ang):
   XX=            -55.0373   YY=            -57.8059   ZZ=            -51.5981
   XY=              2.8931   XZ=              1.3261   YZ=             -1.1392

  Exact polarizability:  77.841  -2.094  81.257   2.589  -1.474  67.113
 Approx polarizability: 109.760  -7.615 119.980   1.769  -3.205 102.347

                      1                      2                      3
                      A                      A                      A
 Frequencies --     65.4935                87.5619               116.2008
 Red. masses --      3.7144                 2.3980                 4.3741
 Frc consts  --      0.0094                 0.0108                 0.0348
 IR Inten    --     11.2054                 0.7980                 1.5642

                      4                      5                      6
                      A                      A                      A
 Frequencies --    191.9772               231.8866               242.5944
 Red. masses --      2.5815                 2.0022                 1.5886
 Frc consts  --      0.0561                 0.0634                 0.0551
 IR Inten    --      2.4990                 2.6030                 0.6463

                      7                      8                      9
                      A                      A                      A
 Frequencies --    335.8003               373.7797               449.9975
 Red. masses --      1.9484                 3.2416                 2.6700
 Frc consts  --      0.1294                 0.2668                 0.3185
 IR Inten    --      0.9393                 6.2510                 7.5958

                     10                     11                     12
                      A                      A                      A
 Frequencies --    478.2700               498.8846               660.1075
 Red. masses --      2.9571                 5.1461                 2.9466
 Frc consts  --      0.3985                 0.7546                 0.7565
 IR Inten    --     13.3783                 1.2326                 1.2972

                     13                     14                     15
                      A                      A                      A
 Frequencies --    754.3382               786.8611               852.0380
 Red. masses --      3.7770                 1.2238                 2.8217
 Frc consts  --      1.2663                 0.4464                 1.2069
 IR Inten    --     15.7617                 3.8743                 5.0792

                     16                     17                     18
                      A                      A                      A
 Frequencies --    875.0952               909.7116               978.1406
 Red. masses --      1.6917                 2.1792                 2.2337
 Frc consts  --      0.7633                 1.0626                 1.2592
 IR Inten    --     11.9317                 3.0997                14.2749

                     19                     20                     21
                      A                      A                      A
 Frequencies --    997.8905              1005.5355              1018.6230
 Red. masses --      1.4589                 1.8351                 2.2849
 Frc consts  --      0.8560                 1.0932                 1.3968
 IR Inten    --     16.5023                 2.7597                22.8997

                     22                     23                     24
                      A                      A                      A
 Frequencies --   1039.6391              1054.9237              1075.3618
 Red. masses --      1.8552                 2.3684                 1.6431
 Frc consts  --      1.1814                 1.5529                 1.1195
 IR Inten    --     31.4880                18.6245                 9.6172

                     25                     26                     27
                      A                      A                      A
 Frequencies --   1098.6209              1102.1622              1140.7934
 Red. masses --      1.9759                 2.9594                 2.4230
 Frc consts  --      1.4051                 2.1181                 1.8579
 IR Inten    --     15.6726                11.0123                 3.2157

                     28                     29                     30
                      A                      A                      A
 Frequencies --   1206.9930              1230.0760              1263.2574
 Red. masses --      1.4448                 1.9030                 1.5213
 Frc consts  --      1.2401                 1.6965                 1.4304
 IR Inten    --      0.7739                 0.0884                17.0868

                     31                     32                     33
                      A                      A                      A
 Frequencies --   1314.2102              1318.5623              1355.0023
 Red. masses --      1.2868                 1.5760                 1.4223
 Frc consts  --      1.3095                 1.6144                 1.5386
 IR Inten    --      2.9525                 6.8595                 3.8499

                     34                     35                     36
                      A                      A                      A
 Frequencies --   1397.9655              1408.5826              1418.0693
 Red. masses --      1.2861                 1.8612                 1.3085
 Frc consts  --      1.4808                 2.1757                 1.5504
 IR Inten    --      5.8566                 2.4363                 1.4913

                     37                     38                     39
                      A                      A                      A
 Frequencies --   1479.4367              1488.5580              1501.6219
 Red. masses --      1.1881                 1.3231                 1.0414
 Frc consts  --      1.5321                 1.7273                 1.3836
 IR Inten    --      4.5856                 3.5543                 5.8347

                     40                     41                     42
                      A                      A                      A
 Frequencies --   1512.2671              1822.6536              2897.9780
 Red. masses --      1.0811                10.7212                 1.0843
 Frc consts  --      1.4567                20.9846                 5.3654
 IR Inten    --      5.1032               125.1187                82.4705

                     43                     44                     45
                      A                      A                      A
 Frequencies --   3017.0729              3028.3066              3039.0083
 Red. masses --      1.0611                 1.0838                 1.0351
 Frc consts  --      5.6907                 5.8558                 5.6323
 IR Inten    --     24.6876                25.5281                23.0013

                     46                     47                     48
                      A                      A                      A
 Frequencies --   3053.0500              3109.0751              3118.9405
 Red. masses --      1.1007                 1.1019                 1.0883
 Frc consts  --      6.0451                 6.2756                 6.2374
 IR Inten    --     19.2733                31.7821                10.9101

                     49                     50                     51
                      A                      A                      A
 Frequencies --   3119.5472              3184.7858              3207.5012
 Red. masses --      1.0670                 1.0951                 1.1155
 Frc consts  --      6.1181                 6.5441                 6.7618
 IR Inten    --     15.0910                15.9442                 7.9927

 - Thermochemistry -
 -------------------
 Temperature   298.150 Kelvin.  Pressure   1.00000 Atm.
 Atom     1 has atomic number  6 and mass  12.00000

 Molecular mass:   126.06808 amu.
 Principal axes and moments of inertia in atomic units:
                           1         2         3
     Eigenvalues --   979.357241005.644621665.11016
           X            0.99962   0.02387   0.01411
           Y           -0.02376   0.99968  -0.00851
           Z           -0.01431   0.00817   0.99986
 This molecule is an asymmetric top.
 Rotational symmetry number  1.
 Warning -- assumption of classical behavior for rotation
           may cause significant error
 Rotational temperatures (Kelvin)      0.08844     0.08613     0.05202
 Rotational constants (GHZ):           1.84278     1.79461     1.08386
 Zero-point vibrational energy     412202.1 (Joules/Mol)
                                   98.51867 (Kcal/Mol)
 Warning -- explicit consideration of  11 degrees of freedom as
           vibrations may cause significant error
 Vibrational temperatures:     94.23   125.98   167.19   276.21   333.63
          (Kelvin)            349.04   483.14   537.78   647.45   688.12
                              717.78   949.75  1085.32  1132.12  1225.89
                             1259.07  1308.87  1407.32  1435.74  1446.74
                             1465.57  1495.81  1517.80  1547.20  1580.67
                             1585.76  1641.35  1736.59  1769.80  1817.54
                             1890.85  1897.11  1949.54  2011.36  2026.63
                             2040.28  2128.58  2141.70  2160.50  2175.81
                             2622.39  4169.54  4340.89  4357.05  4372.45
                             4392.65  4473.26  4487.45  4488.33  4582.19
                             4614.87

 Zero-point correction=                           0.156999 (Hartree/Particle)
 Thermal correction to Energy=                    0.166028
 Thermal correction to Enthalpy=                  0.166972
 Thermal correction to Gibbs Free Energy=         0.122728
 Sum of electronic and zero-point Energies=           -422.991253
 Sum of electronic and thermal Energies=              -422.982225
 Sum of electronic and thermal Enthalpies=            -422.981280
 Sum of electronic and thermal Free Energies=         -423.025524

                     E (Thermal)             CV                S
                      KCal/Mol        Cal/Mol-Kelvin    Cal/Mol-Kelvin
 Total                  104.184             33.055             93.119
 Electronic               0.000              0.000              0.000
 Translational            0.889              2.981             40.409
 Rotational               0.889              2.981             28.885
 Vibrational            102.407             27.094             23.826
 Vibration     1          0.597              1.971              4.284
 Vibration     2          0.601              1.958              3.714
 Vibration     3          0.608              1.936              3.163
 Vibration     4          0.634              1.851              2.209
 Vibration     5          0.653              1.792              1.864
 Vibration     6          0.659              1.775              1.784
 Vibration     7          0.717              1.604              1.232
 Vibration     8          0.745              1.526              1.064
 Vibration     9          0.809              1.361              0.796
 Vibration    10          0.835              1.298              0.715
 Vibration    11          0.854              1.252              0.661

 Optimization completed.
    -- Stationary point found.
 Normal termination of Gaussian 09 at Tue Jan 28 10:30:54 2020.
