 Gaussian 09, Revision D.01,
 Gaussian 09:  ES64L-G09RevD.01 24-Apr-2013

 -----------------------------
 # b3lyp 6-31G(2df,p) opt Freq
 -----------------------------

 -----
 titel
 -----
 Symbolic Z-matrix:
 Charge =  0 Multiplicity = 1

 SCF Done:  E(RB3LYP) =  -423.179926208     A.U. after   14 cycles
 Optimization completed.
    -- Stationary point found.
 Normal termination of Gaussian 09 at Mon Jan 27 22:59:07 2020.

 ----------------------------------------------------------------------
 #N Geom=AllCheck Guess=TCheck SCRF=Check GenChk RB3LYP/6-31G(2df,p) Fr
 eq
 ----------------------------------------------------------------------

 Structure from the checkpoint file:  "/scratch/puck/g09_9286c65e-c2e5-4343-9654-1012cffead13/Gau-101441.chk"
 -----
 titel
 -----
 Charge =  0 Multiplicity = 1

                         Standard orientation:
 ---------------------------------------------------------------------
 Center     Atomic      Atomic             Coordinates (Angstroms)
 Number     Number       Type             X           Y           Z
 ---------------------------------------------------------------------
      1          6           0       -2.386747   -0.329689   -0.079452
      2          6           0       -0.885895   -0.219789    0.018282
      3          8           0       -0.366331   -0.528220    1.353914
      4          6           0        0.744644    0.374040    1.104593
      5          6           0        1.846834   -0.375069    0.343566
      6          6           0        1.218852   -1.123541   -0.814225
      7          6           0       -0.103918   -1.051392   -0.985956
      8          6           0       -0.179300    1.168355    0.142610
      9          8           0        0.313866    1.843842   -0.972217
     10          1           0       -2.709596   -1.370483    0.030808
     11          1           0       -2.865577    0.265849    0.701860
     12          1           0       -2.728425    0.031521   -1.055361
     13          1           0        1.103476    0.852360    2.019596
     14          1           0        2.604432    0.334995   -0.014985
     15          1           0        2.366759   -1.072424    1.012383
     16          1           0        1.855581   -1.716221   -1.465241
     17          1           0       -0.621056   -1.555258   -1.796728
     18          1           0       -0.805304    1.867102    0.701436
     19          1           0        0.692613    1.180099   -1.563848
 ---------------------------------------------------------------------

 SCF Done:  E(RB3LYP) =  -423.179926208     A.U. after    1 cycles

 The electronic state is 1-A.
 Alpha  occ. eigenvalues --  -19.13979 -19.13090 -10.23895 -10.23162 -10.22964
 Alpha  occ. eigenvalues --  -10.19709 -10.19248 -10.18858 -10.17914  -1.04800
 Alpha  occ. eigenvalues --   -1.01680  -0.81057  -0.77117  -0.72057  -0.68881
 Alpha  occ. eigenvalues --   -0.60289  -0.59941  -0.54701  -0.50505  -0.46787
 Alpha  occ. eigenvalues --   -0.46116  -0.44616  -0.42914  -0.41899  -0.39820
 Alpha  occ. eigenvalues --   -0.38703  -0.37928  -0.37337  -0.35923  -0.33968
 Alpha  occ. eigenvalues --   -0.30806  -0.27089  -0.25055  -0.23986
 Alpha virt. eigenvalues --   -0.00419   0.09066   0.10025   0.11004   0.11976
 Alpha virt. eigenvalues --    0.13435   0.15197   0.15781   0.15956   0.16719
 Alpha virt. eigenvalues --    0.18150   0.18914   0.20049   0.20572   0.21266

 Mulliken charges:
               1
     1  C   -0.498747
     2  C    0.337235
     3  O   -0.325626
     4  C    0.039401
     5  C   -0.275189
     6  C   -0.096481
     7  C   -0.100812
     8  C    0.085742
     9  O   -0.434386
    10  H    0.128661
    11  H    0.126159
    12  H    0.125538
    13  H    0.075238
    14  H    0.116227
    15  H    0.121323
    16  H    0.100597
    17  H    0.094899
    18  H    0.099755
    19  H    0.280466
 Sum of Mulliken charges =   0.00000

 Dipole moment (field-independent basis, Debye):
    X=              0.6485    Y=             -0.7614    Z=             -1.0601  Tot=              1.4574
 Quadrupole moment (field-independent basis, Debye-Ang):
   XX=            -48.7176   YY=            -57.4707   ZZ=            -53.2060
   XY=             -1.0855   XZ=              0.9926   YZ=              4.7711

  Exact polarizability:  89.014  -1.457  67.363   2.734   6.077  69.012
 Approx polarizability: 130.236  -0.236 101.319   3.544   4.029 106.116

                      1                      2                      3
                      A                      A                      A
 Frequencies --    182.2192               205.5175               225.4731
 Red. masses --      1.2425                 3.7981                 1.9666
 Frc consts  --      0.0243                 0.0945                 0.0589
 IR Inten    --      0.3736                 2.5917                 1.4533

                      4                      5                      6
                      A                      A                      A
 Frequencies --    246.5886               298.5101               354.6903
 Red. masses --      2.7743                 2.6909                 2.4533
 Frc consts  --      0.0994                 0.1413                 0.1818
 IR Inten    --      0.4467                 1.3166                 3.0936

                      7                      8                      9
                      A                      A                      A
 Frequencies --    438.0736               469.1227               507.2904
 Red. masses --      1.6008                 1.9994                 4.2970
 Frc consts  --      0.1810                 0.2592                 0.6515
 IR Inten    --     20.8174                31.8419                 3.3340

                     10                     11                     12
                      A                      A                      A
 Frequencies --    536.2959               580.9743               673.5338
 Red. masses --      2.8474                 2.5891                 5.5208
 Frc consts  --      0.4825                 0.5149                 1.4756
 IR Inten    --     10.7096                11.9371                 3.2915

                     13                     14                     15
                      A                      A                      A
 Frequencies --    720.0756               737.4802               822.7575
 Red. masses --      4.1538                 1.9378                 2.6534
 Frc consts  --      1.2690                 0.6210                 1.0583
 IR Inten    --      4.3260                11.3643                11.1290

                     16                     17                     18
                      A                      A                      A
 Frequencies --    852.7173               894.1457               908.6006
 Red. masses --      2.4829                 3.7316                 2.5122
 Frc consts  --      1.0637                 1.7578                 1.2219
 IR Inten    --     19.8205                26.9504                10.6459

                     19                     20                     21
                      A                      A                      A
 Frequencies --    934.7512               955.8125               976.3249
 Red. masses --      2.6944                 1.9982                 1.4004
 Frc consts  --      1.3871                 1.0756                 0.7865
 IR Inten    --      3.5101                 4.9635                 9.3573

                     22                     23                     24
                      A                      A                      A
 Frequencies --    997.1787              1043.9112              1118.7632
 Red. masses --      1.7859                 2.0060                 1.5270
 Frc consts  --      1.0463                 1.2880                 1.1261
 IR Inten    --      7.6689                11.9569                13.2174

                     25                     26                     27
                      A                      A                      A
 Frequencies --   1127.3077              1153.9232              1167.2825
 Red. masses --      1.9239                 1.9172                 1.2972
 Frc consts  --      1.4405                 1.5041                 1.0414
 IR Inten    --      1.2330               141.2109                 3.1914

                     28                     29                     30
                      A                      A                      A
 Frequencies --   1185.6852              1244.7199              1268.2431
 Red. masses --      1.5207                 1.8844                 2.0141
 Frc consts  --      1.2596                 1.7202                 1.9087
 IR Inten    --     26.4442                11.2454                12.9329

                     31                     32                     33
                      A                      A                      A
 Frequencies --   1285.9301              1303.5602              1335.7535
 Red. masses --      1.7876                 1.7213                 1.6955
 Frc consts  --      1.7417                 1.7233                 1.7823
 IR Inten    --      3.4316                 0.7328                14.0230

                     34                     35                     36
                      A                      A                      A
 Frequencies --   1359.9455              1402.4740              1408.8143
 Red. masses --      1.4570                 1.3700                 1.5470
 Frc consts  --      1.5877                 1.5877                 1.8091
 IR Inten    --      0.6887                 5.2389                15.7576

                     37                     38                     39
                      A                      A                      A
 Frequencies --   1437.6418              1463.0830              1478.6395
 Red. masses --      1.3257                 1.1042                 1.0536
 Frc consts  --      1.6143                 1.3926                 1.3572
 IR Inten    --     71.8114                 9.3204                 4.3774

                     40                     41                     42
                      A                      A                      A
 Frequencies --   1492.9152              1684.0239              3019.7149
 Red. masses --      1.0520                 6.5554                 1.0602
 Frc consts  --      1.3814                10.9533                 5.6960
 IR Inten    --      6.3289                 8.4771                21.1325

                     43                     44                     45
                      A                      A                      A
 Frequencies --   3035.4391              3051.8127              3076.9494
 Red. masses --      1.0357                 1.1006                 1.0883
 Frc consts  --      5.6225                 6.0394                 6.0709
 IR Inten    --     15.2052                13.1748                48.1206

                     46                     47                     48
                      A                      A                      A
 Frequencies --   3098.6801              3103.0378              3122.6046
 Red. masses --      1.0879                 1.1007                 1.1012
 Frc consts  --      6.1546                 6.2445                 6.3266
 IR Inten    --     32.1850                15.6106                17.7246

                     49                     50                     51
                      A                      A                      A
 Frequencies --   3158.3057              3182.7998              3748.8738
 Red. masses --      1.0846                 1.0998                 1.0647
 Frc consts  --      6.3744                 6.5645                 8.8158
 IR Inten    --      6.4803                22.2535                30.1443

 - Thermochemistry -
 -------------------
 Temperature   298.150 Kelvin.  Pressure   1.00000 Atm.
 Atom     1 has atomic number  6 and mass  12.00000

 Molecular mass:   126.06808 amu.
 Principal axes and moments of inertia in atomic units:
                           1         2         3
     Eigenvalues --   780.906921013.605291119.70930
           X            0.99964  -0.01728   0.02040
           Y            0.01317   0.98230   0.18683
           Z           -0.02327  -0.18650   0.98218
 This molecule is an asymmetric top.
 Rotational symmetry number  1.
 Warning -- assumption of classical behavior for rotation
           may cause significant error
 Rotational temperatures (Kelvin)      0.11091     0.08545     0.07735
 Rotational constants (GHZ):           2.31108     1.78052     1.61179
 Zero-point vibrational energy     419165.3 (Joules/Mol)
                                  100.18291 (Kcal/Mol)
 Warning -- explicit consideration of  11 degrees of freedom as
           vibrations may cause significant error
 Vibrational temperatures:    262.17   295.69   324.41   354.79   429.49
          (Kelvin)            510.32   630.29   674.96   729.88   771.61
                              835.89   969.06  1036.03  1061.07  1183.76
                             1226.87  1286.47  1307.27  1344.90  1375.20
                             1404.71  1434.72  1501.95  1609.65  1621.94
                             1660.24  1679.46  1705.93  1790.87  1824.72
                             1850.16  1875.53  1921.85  1956.66  2017.84
                             2026.97  2068.44  2105.05  2127.43  2147.97
                             2422.93  4344.69  4367.31  4390.87  4427.04
                             4458.30  4464.57  4492.73  4544.09  4579.33
                             5393.79

 Zero-point correction=                           0.159652 (Hartree/Particle)
 Thermal correction to Energy=                    0.167508
 Thermal correction to Enthalpy=                  0.168452
 Thermal correction to Gibbs Free Energy=         0.128005
 Sum of electronic and zero-point Energies=           -423.020275
 Sum of electronic and thermal Energies=              -423.012418
 Sum of electronic and thermal Enthalpies=            -423.011474
 Sum of electronic and thermal Free Energies=         -423.051921

                     E (Thermal)             CV                S
                      KCal/Mol        Cal/Mol-Kelvin    Cal/Mol-Kelvin
 Total                  105.113             31.939             85.128
 Electronic               0.000              0.000              0.000
 Translational            0.889              2.981             40.409
 Rotational               0.889              2.981             28.274
 Vibrational            103.335             25.978             16.446
 Vibration     1          0.630              1.864              2.306
 Vibration     2          0.640              1.832              2.083
 Vibration     3          0.650              1.802              1.915
 Vibration     4          0.661              1.768              1.755
 Vibration     5          0.692              1.676              1.425
 Vibration     6          0.731              1.566              1.145
 Vibration     7          0.798              1.387              0.833
 Vibration     8          0.826              1.319              0.740
 Vibration     9          0.862              1.234              0.640
 Vibration    10          0.891              1.170              0.573
 Vibration    11          0.938              1.072              0.484

 Optimization completed.
    -- Stationary point found.
 Normal termination of Gaussian 09 at Mon Jan 27 23:45:14 2020.
