 Gaussian 09, Revision D.01,
 Gaussian 09:  ES64L-G09RevD.01 24-Apr-2013

 -----------------------------
 # b3lyp 6-31G(2df,p) opt Freq
 -----------------------------

 -----
 titel
 -----
 Symbolic Z-matrix:
 Charge =  0 Multiplicity = 1

 SCF Done:  E(RB3LYP) =  -423.106290542     A.U. after   14 cycles
 Optimization completed.
    -- Stationary point found.
 Normal termination of Gaussian 09 at Tue Jan 28 12:15:40 2020.

 ----------------------------------------------------------------------
 #N Geom=AllCheck Guess=TCheck SCRF=Check GenChk RB3LYP/6-31G(2df,p) Fr
 eq
 ----------------------------------------------------------------------

 Structure from the checkpoint file:  "/scratch/puck/g09_a8661df7-88e1-4ed8-bd42-7c6c93bfa431/Gau-7391.chk"
 -----
 titel
 -----
 Charge =  0 Multiplicity = 1

                         Standard orientation:
 ---------------------------------------------------------------------
 Center     Atomic      Atomic             Coordinates (Angstroms)
 Number     Number       Type             X           Y           Z
 ---------------------------------------------------------------------
      1          6           0       -3.356292   -0.128218    0.236771
      2          8           0       -2.074833   -0.280936   -0.328643
      3          6           0       -1.137248    0.642197    0.175951
      4          6           0        0.217955    0.361197   -0.500381
      5          6           0        1.183845    1.394945   -0.143818
      6          6           0        1.947862    2.266799    0.172951
      7          6           0        0.693152   -1.053973   -0.176101
      8          6           0        1.713857   -1.353658    0.834292
      9          8           0        2.015290   -1.403709   -0.564924
     10          1           0       -3.771447    0.871854    0.037257
     11          1           0       -4.005641   -0.878698   -0.219759
     12          1           0       -3.342021   -0.283411    1.326787
     13          1           0       -1.449095    1.676080   -0.037983
     14          1           0       -1.036932    0.545260    1.269526
     15          1           0        0.043994    0.399666   -1.584737
     16          1           0        2.635697    3.032866    0.433466
     17          1           0       -0.060876   -1.808297   -0.393070
     18          1           0        2.185918   -0.537376    1.376232
     19          1           0        1.697961   -2.316515    1.342832
 ---------------------------------------------------------------------

 SCF Done:  E(RB3LYP) =  -423.106290542     A.U. after    1 cycles

 The electronic state is 1-A.
 Alpha  occ. eigenvalues --  -19.15148 -19.14668 -10.24081 -10.23784 -10.23253
 Alpha  occ. eigenvalues --  -10.22858 -10.21888 -10.18531 -10.17643  -1.06800
 Alpha  occ. eigenvalues --   -1.04495  -0.81641  -0.73542  -0.69722  -0.66153
 Alpha  occ. eigenvalues --   -0.64050  -0.59974  -0.53107  -0.51087  -0.49893
 Alpha  occ. eigenvalues --   -0.49043  -0.46631  -0.46308  -0.43398  -0.40869
 Alpha  occ. eigenvalues --   -0.39427  -0.37233  -0.36854  -0.33072  -0.30426
 Alpha  occ. eigenvalues --   -0.28075  -0.26908  -0.26538  -0.25599
 Alpha virt. eigenvalues --    0.04871   0.05059   0.07789   0.10540   0.12051
 Alpha virt. eigenvalues --    0.12500   0.13462   0.13561   0.14203   0.14903
 Alpha virt. eigenvalues --    0.15711   0.16336   0.17480   0.18589   0.19909

 Mulliken charges:
               1
     1  C   -0.230550
     2  O   -0.235176
     3  C   -0.064347
     4  C   -0.242725
     5  C    0.316060
     6  C   -0.447816
     7  C    0.103382
     8  C   -0.187938
     9  O   -0.238277
    10  H    0.108988
    11  H    0.131817
    12  H    0.108277
    13  H    0.103807
    14  H    0.098623
    15  H    0.126505
    16  H    0.198202
    17  H    0.112650
    18  H    0.125892
    19  H    0.112626
 Sum of Mulliken charges =   0.00000

 Dipole moment (field-independent basis, Debye):
    X=             -2.0388    Y=              0.8923    Z=              1.8074  Tot=              2.8669
 Quadrupole moment (field-independent basis, Debye-Ang):
   XX=            -51.0099   YY=            -51.3865   ZZ=            -53.2207
   XY=              3.2721   XZ=              2.6371   YZ=             -1.5530

  Exact polarizability:  90.527  10.434  81.486   6.308   0.376  61.912
 Approx polarizability: 119.167  19.653 117.126  10.842   7.103  98.570

                      1                      2                      3
                      A                      A                      A
 Frequencies --     60.4465                84.6928               101.6672
 Red. masses --      3.1463                 3.0777                 2.2037
 Frc consts  --      0.0068                 0.0130                 0.0134
 IR Inten    --      1.1562                 3.0595                 2.2633

                      4                      5                      6
                      A                      A                      A
 Frequencies --    124.4001               148.3457               216.6413
 Red. masses --      3.7550                 4.2325                 2.1599
 Frc consts  --      0.0342                 0.0549                 0.0597
 IR Inten    --      0.5550                 1.1314                 3.6688

                      7                      8                      9
                      A                      A                      A
 Frequencies --    240.8746               300.0516               340.5554
 Red. masses --      1.4647                 4.1229                 4.7736
 Frc consts  --      0.0501                 0.2187                 0.3262
 IR Inten    --      1.4730                 3.5407                 0.1728

                     10                     11                     12
                      A                      A                      A
 Frequencies --    377.5282               463.9804               570.1973
 Red. masses --      3.7075                 5.9613                 3.1735
 Frc consts  --      0.3113                 0.7561                 0.6079
 IR Inten    --      4.9981                 1.1767                 9.8871

                     13                     14                     15
                      A                      A                      A
 Frequencies --    615.8239               634.9115               655.0662
 Red. masses --      3.4401                 1.2441                 1.2410
 Frc consts  --      0.7687                 0.2955                 0.3137
 IR Inten    --      7.5184                40.3222                42.0004

                     16                     17                     18
                      A                      A                      A
 Frequencies --    761.3342               880.6199               916.3117
 Red. masses --      2.8951                 5.6462                 3.0092
 Frc consts  --      0.9887                 2.5798                 1.4886
 IR Inten    --      9.2240                23.1987                15.8443

                     19                     20                     21
                      A                      A                      A
 Frequencies --    949.3929               991.8835              1047.5434
 Red. masses --      1.8332                 3.4723                 1.6750
 Frc consts  --      0.9735                 2.0128                 1.0830
 IR Inten    --      8.6871                24.5607                 9.0896

                     22                     23                     24
                      A                      A                      A
 Frequencies --   1077.3399              1086.5677              1136.1027
 Red. masses --      2.5895                 1.4487                 1.6481
 Frc consts  --      1.7708                 1.0077                 1.2534
 IR Inten    --      1.5279                 0.5930                 3.6099

                     25                     26                     27
                      A                      A                      A
 Frequencies --   1160.0740              1161.7489              1180.6523
 Red. masses --      1.9069                 2.4198                 1.3011
 Frc consts  --      1.5120                 1.9242                 1.0686
 IR Inten    --     67.7200               103.4592                 3.6407

                     28                     29                     30
                      A                      A                      A
 Frequencies --   1189.9067              1225.3459              1245.3215
 Red. masses --      1.4477                 1.5953                 1.2697
 Frc consts  --      1.2077                 1.4112                 1.1601
 IR Inten    --      3.9335                36.8157                 7.9123

                     31                     32                     33
                      A                      A                      A
 Frequencies --   1285.1509              1309.9300              1335.3258
 Red. masses --      1.2545                 1.5906                 1.5123
 Frc consts  --      1.2208                 1.6081                 1.5888
 IR Inten    --      6.1823                11.9988                 4.9586

                     34                     35                     36
                      A                      A                      A
 Frequencies --   1413.4889              1427.6795              1479.9230
 Red. masses --      1.3664                 1.6926                 1.1534
 Frc consts  --      1.6085                 2.0327                 1.4884
 IR Inten    --     23.5151                 9.1902                 1.5803

                     37                     38                     39
                      A                      A                      A
 Frequencies --   1486.0722              1502.5127              1522.7703
 Red. masses --      1.0466                 1.0588                 1.3032
 Frc consts  --      1.3617                 1.4083                 1.7805
 IR Inten    --      5.4811                10.1699                 3.3434

                     40                     41                     42
                      A                      A                      A
 Frequencies --   1527.4044              2239.2682              2965.7524
 Red. masses --      1.1363                 5.9282                 1.0502
 Frc consts  --      1.5619                17.5140                 5.4426
 IR Inten    --      4.3587                 0.5821                24.1827

                     43                     44                     45
                      A                      A                      A
 Frequencies --   2978.1932              3003.5236              3021.1368
 Red. masses --      1.0427                 1.0983                 1.0979
 Frc consts  --      5.4490                 5.8378                 5.9040
 IR Inten    --     69.6278                37.7367                74.1310

                     46                     47                     48
                      A                      A                      A
 Frequencies --   3023.1164              3091.0781              3119.0366
 Red. masses --      1.0925                 1.0507                 1.0964
 Frc consts  --      5.8827                 5.9150                 6.2845
 IR Inten    --      2.4806                25.3559                26.3384

                     49                     50                     51
                      A                      A                      A
 Frequencies --   3134.9460              3184.6006              3503.7794
 Red. masses --      1.0884                 1.1183                 1.1624
 Frc consts  --      6.3023                 6.6821                 8.4078
 IR Inten    --     14.3326                18.9263                66.8289

 - Thermochemistry -
 -------------------
 Temperature   298.150 Kelvin.  Pressure   1.00000 Atm.
 Atom     1 has atomic number  6 and mass  12.00000

 Molecular mass:   126.06808 amu.
 Principal axes and moments of inertia in atomic units:
                           1         2         3
     Eigenvalues --   761.198221706.575712252.51952
           X            0.99999   0.00436   0.00288
           Y           -0.00432   0.99991  -0.01267
           Z           -0.00294   0.01266   0.99992
 This molecule is an asymmetric top.
 Rotational symmetry number  1.
 Warning -- assumption of classical behavior for rotation
           may cause significant error
 Rotational temperatures (Kelvin)      0.11379     0.05075     0.03845
 Rotational constants (GHZ):           2.37092     1.05752     0.80121
 Zero-point vibrational energy     409721.1 (Joules/Mol)
                                   97.92569 (Kcal/Mol)
 Warning -- explicit consideration of  13 degrees of freedom as
           vibrations may cause significant error
 Vibrational temperatures:     86.97   121.85   146.28   178.98   213.44
          (Kelvin)            311.70   346.56   431.71   489.98   543.18
                              667.56   820.39   886.03   913.49   942.49
                             1095.39  1267.01  1318.37  1365.96  1427.10
                             1507.18  1550.05  1563.33  1634.60  1669.09
                             1671.50  1698.69  1712.01  1763.00  1791.74
                             1849.04  1884.69  1921.23  2033.69  2054.11
                             2129.28  2138.12  2161.78  2190.92  2197.59
                             3221.80  4267.05  4284.95  4321.40  4346.74
                             4349.58  4447.37  4487.59  4510.48  4581.92
                             5041.15

 Zero-point correction=                           0.156055 (Hartree/Particle)
 Thermal correction to Energy=                    0.166106
 Thermal correction to Enthalpy=                  0.167050
 Thermal correction to Gibbs Free Energy=         0.120221
 Sum of electronic and zero-point Energies=           -422.950236
 Sum of electronic and thermal Energies=              -422.940184
 Sum of electronic and thermal Enthalpies=            -422.939240
 Sum of electronic and thermal Free Energies=         -422.986070

                     E (Thermal)             CV                S
                      KCal/Mol        Cal/Mol-Kelvin    Cal/Mol-Kelvin
 Total                  104.233             35.333             98.561
 Electronic               0.000              0.000              0.000
 Translational            0.889              2.981             40.409
 Rotational               0.889              2.981             29.460
 Vibrational            102.456             29.371             28.692
 Vibration     1          0.597              1.973              4.443
 Vibration     2          0.601              1.960              3.779
 Vibration     3          0.604              1.948              3.422
 Vibration     4          0.610              1.929              3.031
 Vibration     5          0.618              1.904              2.693
 Vibration     6          0.645              1.816              1.987
 Vibration     7          0.658              1.778              1.796
 Vibration     8          0.693              1.674              1.417
 Vibration     9          0.720              1.594              1.210
 Vibration    10          0.748              1.518              1.049
 Vibration    11          0.822              1.330              0.755
 Vibration    12          0.926              1.096              0.504
 Vibration    13          0.975              0.998              0.423

 Normal termination of Gaussian 09 at Tue Jan 28 13:49:55 2020.
