 Gaussian 09, Revision D.01,
 Gaussian 09:  ES64L-G09RevD.01 24-Apr-2013

 -----------------------------
 # b3lyp 6-31G(2df,p) opt Freq
 -----------------------------

 -----
 titel
 -----
 Symbolic Z-matrix:
 Charge =  0 Multiplicity = 1

 SCF Done:  E(RB3LYP) =  -423.178475374     A.U. after   14 cycles
 Optimization completed.
    -- Stationary point found.
 Normal termination of Gaussian 09 at Tue Jan 28 00:02:36 2020.

 ----------------------------------------------------------------------
 #N Geom=AllCheck Guess=TCheck SCRF=Check GenChk RB3LYP/6-31G(2df,p) Fr
 eq
 ----------------------------------------------------------------------

 Structure from the checkpoint file:  "/scratch/puck/g09_2f0d4952-c382-402c-b408-53ae5de7300e/Gau-164420.chk"
 -----
 titel
 -----
 Charge =  0 Multiplicity = 1

                         Standard orientation:
 ---------------------------------------------------------------------
 Center     Atomic      Atomic             Coordinates (Angstroms)
 Number     Number       Type             X           Y           Z
 ---------------------------------------------------------------------
      1          6           0        1.828720   -1.310090   -0.372081
      2          6           0        0.554001   -0.548040   -0.706983
      3          6           0       -0.803897   -1.118755   -0.250615
      4          8           0       -1.730235   -0.100264   -0.748536
      5          6           0       -1.071151    1.151154   -0.550495
      6          6           0        0.297264    0.755316    0.100361
      7          8           0        1.324659    1.702066    0.009944
      8          6           0       -0.068737    0.192750    1.467196
      9          6           0       -0.736187   -0.946712    1.258438
     10          1           0        2.702103   -0.694683   -0.607921
     11          1           0        1.879050   -1.578754    0.685555
     12          1           0        1.895935   -2.229424   -0.963047
     13          1           0        0.519571   -0.341940   -1.782322
     14          1           0       -1.128260   -2.080384   -0.644020
     15          1           0       -0.900028    1.651106   -1.512146
     16          1           0       -1.675264    1.803441    0.093375
     17          1           0        1.107790    2.450780    0.574988
     18          1           0        0.092212    0.714642    2.403629
     19          1           0       -1.248578   -1.562942    1.985725
 ---------------------------------------------------------------------

 SCF Done:  E(RB3LYP) =  -423.178475374     A.U. after    1 cycles

 The electronic state is 1-A.
 Alpha  occ. eigenvalues --  -19.14840 -19.13171 -10.24296 -10.23204 -10.22073
 Alpha  occ. eigenvalues --  -10.18701 -10.18559 -10.18284 -10.17046  -1.04024
 Alpha  occ. eigenvalues --   -1.02119  -0.83915  -0.74589  -0.73092  -0.66591
 Alpha  occ. eigenvalues --   -0.61428  -0.56138  -0.55369  -0.52980  -0.48394
 Alpha  occ. eigenvalues --   -0.45497  -0.43807  -0.42154  -0.41383  -0.40163
 Alpha  occ. eigenvalues --   -0.38100  -0.37141  -0.36330  -0.34142  -0.33436
 Alpha  occ. eigenvalues --   -0.30791  -0.26737  -0.25519  -0.23923
 Alpha virt. eigenvalues --    0.00313   0.06630   0.10686   0.11769   0.13401
 Alpha virt. eigenvalues --    0.14727   0.15388   0.16100   0.16425   0.17280
 Alpha virt. eigenvalues --    0.18021   0.19017   0.20341   0.21084   0.23614

 Mulliken charges:
               1
     1  C   -0.435399
     2  C    0.008741
     3  C    0.040362
     4  O   -0.276680
     5  C   -0.123264
     6  C    0.335076
     7  O   -0.501833
     8  C   -0.160893
     9  C   -0.076412
    10  H    0.131194
    11  H    0.120856
    12  H    0.111010
    13  H    0.081948
    14  H    0.074844
    15  H    0.102544
    16  H    0.085818
    17  H    0.281826
    18  H    0.095534
    19  H    0.104726
 Sum of Mulliken charges =   0.00000

 Dipole moment (field-independent basis, Debye):
    X=              0.3996    Y=              0.5108    Z=              1.3894  Tot=              1.5334
 Quadrupole moment (field-independent basis, Debye-Ang):
   XX=            -59.5157   YY=            -46.9623   ZZ=            -51.4758
   XY=             -0.3543   XZ=             -1.3200   YZ=              2.5394

  Exact polarizability:  70.409   1.761  80.949  -1.051   0.588  71.827
 Approx polarizability: 104.937  11.240 124.451   2.398   2.250 108.123

                      1                      2                      3
                      A                      A                      A
 Frequencies --    189.7936               206.0834               219.6762
 Red. masses --      1.1341                 1.0749                 2.4106
 Frc consts  --      0.0241                 0.0269                 0.0685
 IR Inten    --     21.9297                39.8198                25.1942

                      4                      5                      6
                      A                      A                      A
 Frequencies --    242.4222               291.5219               357.3503
 Red. masses --      2.7881                 2.9454                 3.6143
 Frc consts  --      0.0965                 0.1475                 0.2719
 IR Inten    --      1.0087                 3.8002                 9.3654

                      7                      8                      9
                      A                      A                      A
 Frequencies --    385.6914               418.7254               498.6937
 Red. masses --      3.3907                 3.0284                 3.3094
 Frc consts  --      0.2972                 0.3128                 0.4849
 IR Inten    --      0.7587                11.1605                 1.9849

                     10                     11                     12
                      A                      A                      A
 Frequencies --    554.5928               632.1025               693.4219
 Red. masses --      3.3839                 5.4617                 4.1059
 Frc consts  --      0.6132                 1.2857                 1.1632
 IR Inten    --      6.5038                 1.8984                 1.6954

                     13                     14                     15
                      A                      A                      A
 Frequencies --    739.3762               767.7870               774.3852
 Red. masses --      1.8468                 2.5655                 3.8192
 Frc consts  --      0.5948                 0.8911                 1.3494
 IR Inten    --     14.8971                 4.2315                 2.0360

                     16                     17                     18
                      A                      A                      A
 Frequencies --    874.1711               878.3782               928.4131
 Red. masses --      2.1772                 3.6939                 1.5861
 Frc consts  --      0.9802                 1.6792                 0.8055
 IR Inten    --      8.1605                62.9355                 4.3366

                     19                     20                     21
                      A                      A                      A
 Frequencies --    953.2173               974.7341               990.6581
 Red. masses --      1.8933                 3.0719                 2.6989
 Frc consts  --      1.0136                 1.7196                 1.5606
 IR Inten    --      3.4738                14.5583                39.4510

                     22                     23                     24
                      A                      A                      A
 Frequencies --   1032.4708              1048.3040              1069.5737
 Red. masses --      1.4877                 3.3739                 1.3045
 Frc consts  --      0.9344                 2.1845                 0.8792
 IR Inten    --     11.8085                 6.6362                 8.6187

                     25                     26                     27
                      A                      A                      A
 Frequencies --   1095.5339              1130.1846              1154.6465
 Red. masses --      1.2498                 2.3092                 2.0695
 Frc consts  --      0.8838                 1.7379                 1.6256
 IR Inten    --     10.1181                31.5214                 5.8309

                     28                     29                     30
                      A                      A                      A
 Frequencies --   1188.7943              1220.5323              1259.0455
 Red. masses --      1.3596                 2.1125                 2.0403
 Frc consts  --      1.1321                 1.8542                 1.9056
 IR Inten    --     31.2330                19.2934                29.2113

                     31                     32                     33
                      A                      A                      A
 Frequencies --   1275.9181              1288.7786              1331.1523
 Red. masses --      1.4736                 1.3500                 1.5008
 Frc consts  --      1.4134                 1.3212                 1.5668
 IR Inten    --     10.3717                 0.1983                18.0957

                     34                     35                     36
                      A                      A                      A
 Frequencies --   1357.2674              1369.5438              1407.2260
 Red. masses --      1.5931                 1.5895                 1.6062
 Frc consts  --      1.7292                 1.7565                 1.8740
 IR Inten    --     48.0870                14.3922                 1.8542

                     37                     38                     39
                      A                      A                      A
 Frequencies --   1409.7788              1495.8850              1504.8403
 Red. masses --      1.2866                 1.0505                 1.0510
 Frc consts  --      1.5066                 1.3850                 1.4023
 IR Inten    --      4.7536                 3.8952                 3.5362

                     40                     41                     42
                      A                      A                      A
 Frequencies --   1520.9543              1634.9898              3007.2192
 Red. masses --      1.0910                 6.0016                 1.0549
 Frc consts  --      1.4870                 9.4525                 5.6208
 IR Inten    --      0.9333                 0.7004                64.3989

                     43                     44                     45
                      A                      A                      A
 Frequencies --   3041.2817              3049.6873              3055.7810
 Red. masses --      1.0391                 1.0993                 1.0921
 Frc consts  --      5.6625                 6.0237                 6.0085
 IR Inten    --     29.5058                 5.5015                50.2348

                     46                     47                     48
                      A                      A                      A
 Frequencies --   3105.0792              3126.8988              3138.8004
 Red. masses --      1.1005                 1.1001                 1.0906
 Frc consts  --      6.2518                 6.3376                 6.3305
 IR Inten    --     16.7211                20.0420                30.1051

                     49                     50                     51
                      A                      A                      A
 Frequencies --   3190.0743              3222.1367              3813.1829
 Red. masses --      1.0877                 1.1053                 1.0661
 Frc consts  --      6.5220                 6.7612                 9.1334
 IR Inten    --      8.1460                11.7539                22.9584

 - Thermochemistry -
 -------------------
 Temperature   298.150 Kelvin.  Pressure   1.00000 Atm.
 Atom     1 has atomic number  6 and mass  12.00000

 Molecular mass:   126.06808 amu.
 Principal axes and moments of inertia in atomic units:
                           1         2         3
     Eigenvalues --   818.55968 917.248581138.02687
           X            0.96861  -0.24638  -0.03307
           Y            0.24713   0.96875   0.02109
           Z            0.02684  -0.02860   0.99923
 This molecule is an asymmetric top.
 Rotational symmetry number  1.
 Warning -- assumption of classical behavior for rotation
           may cause significant error
 Rotational temperatures (Kelvin)      0.10581     0.09443     0.07611
 Rotational constants (GHZ):           2.20478     1.96756     1.58585
 Zero-point vibrational energy     419391.3 (Joules/Mol)
                                  100.23694 (Kcal/Mol)
 Warning -- explicit consideration of  10 degrees of freedom as
           vibrations may cause significant error
 Vibrational temperatures:    273.07   296.51   316.06   348.79   419.43
          (Kelvin)            514.15   554.92   602.45   717.51   797.93
                              909.45   997.68  1063.80  1104.67  1114.17
                             1257.74  1263.79  1335.78  1371.47  1402.42
                             1425.33  1485.49  1508.27  1538.88  1576.23
                             1626.08  1661.28  1710.41  1756.07  1811.48
                             1835.76  1854.26  1915.23  1952.80  1970.47
                             2024.68  2028.35  2152.24  2165.13  2188.31
                             2352.38  4326.71  4375.72  4387.81  4396.58
                             4467.51  4498.90  4516.03  4589.80  4635.93
                             5486.31

 Zero-point correction=                           0.159738 (Hartree/Particle)
 Thermal correction to Energy=                    0.167645
 Thermal correction to Enthalpy=                  0.168589
 Thermal correction to Gibbs Free Energy=         0.128058
 Sum of electronic and zero-point Energies=           -423.018738
 Sum of electronic and thermal Energies=              -423.010830
 Sum of electronic and thermal Enthalpies=            -423.009886
 Sum of electronic and thermal Free Energies=         -423.050417

                     E (Thermal)             CV                S
                      KCal/Mol        Cal/Mol-Kelvin    Cal/Mol-Kelvin
 Total                  105.199             31.996             85.304
 Electronic               0.000              0.000              0.000
 Translational            0.889              2.981             40.409
 Rotational               0.889              2.981             28.237
 Vibrational            103.421             26.035             16.659
 Vibration     1          0.633              1.854              2.230
 Vibration     2          0.641              1.831              2.078
 Vibration     3          0.647              1.811              1.962
 Vibration     4          0.659              1.775              1.785
 Vibration     5          0.687              1.690              1.465
 Vibration     6          0.733              1.560              1.134
 Vibration     7          0.754              1.501              1.017
 Vibration     8          0.782              1.430              0.896
 Vibration     9          0.854              1.253              0.661
 Vibration    10          0.910              1.130              0.535

 Optimization completed.
    -- Stationary point found.
 Normal termination of Gaussian 09 at Tue Jan 28 00:41:16 2020.
