 Gaussian 09, Revision D.01,
 Gaussian 09:  ES64L-G09RevD.01 24-Apr-2013

 -----------------------------
 # b3lyp 6-31G(2df,p) opt Freq
 -----------------------------

 -----
 titel
 -----
 Symbolic Z-matrix:
 Charge =  0 Multiplicity = 1

 SCF Done:  E(RB3LYP) =  -423.149903701     A.U. after   14 cycles
 SCF Done:  E(RB3LYP) =  -423.149903725     A.U. after    6 cycles
 SCF Done:  E(RB3LYP) =  -423.149903510     A.U. after    7 cycles
 SCF Done:  E(RB3LYP) =  -423.149903761     A.U. after    7 cycles
 Optimization completed.
    -- Stationary point found.
 Normal termination of Gaussian 09 at Tue Jan 28 08:24:04 2020.

 ----------------------------------------------------------------------
 #N Geom=AllCheck Guess=TCheck SCRF=Check GenChk RB3LYP/6-31G(2df,p) Fr
 eq
 ----------------------------------------------------------------------

 Structure from the checkpoint file:  "/scratch/puck/g09_cab638b2-41e8-446b-aec5-3d1c7096af31/Gau-126911.chk"
 -----
 titel
 -----
 Charge =  0 Multiplicity = 1

                         Standard orientation:
 ---------------------------------------------------------------------
 Center     Atomic      Atomic             Coordinates (Angstroms)
 Number     Number       Type             X           Y           Z
 ---------------------------------------------------------------------
      1          8           0       -1.432423    1.559855   -0.618118
      2          6           0       -1.245260    0.733419    0.520787
      3          6           0       -2.165944   -0.483979    0.463200
      4          8           0       -1.542621   -1.304566   -0.519583
      5          6           0       -0.133859   -1.271666   -0.252511
      6          6           0        0.140765    0.037382    0.539898
      7          6           0        1.281943    0.901034   -0.024150
      8          6           0        2.564620    0.206788   -0.020435
      9          6           0        3.608128   -0.390284   -0.008190
     10          1           0       -1.551159    0.967363   -1.371319
     11          1           0       -1.405459    1.369484    1.395015
     12          1           0       -2.225260   -0.992888    1.439203
     13          1           0       -3.175274   -0.242747    0.121368
     14          1           0        0.161243   -2.157229    0.324818
     15          1           0        0.389107   -1.305264   -1.212940
     16          1           0        0.379968   -0.214276    1.578263
     17          1           0        1.026073    1.215554   -1.041673
     18          1           0        1.361286    1.825174    0.561820
     19          1           0        4.537471   -0.903649   -0.004538
 ---------------------------------------------------------------------

 SCF Done:  E(RB3LYP) =  -423.149903761     A.U. after    1 cycles

 The electronic state is 1-A.
 Alpha  occ. eigenvalues --  -19.14679 -19.14274 -10.23885 -10.23164 -10.23015
 Alpha  occ. eigenvalues --  -10.20949 -10.19949 -10.18212 -10.17096  -1.05060
 Alpha  occ. eigenvalues --   -1.01611  -0.81572  -0.75378  -0.73554  -0.68941
 Alpha  occ. eigenvalues --   -0.61116  -0.58794  -0.52655  -0.52019  -0.50295
 Alpha  occ. eigenvalues --   -0.47342  -0.47020  -0.44343  -0.42908  -0.40250
 Alpha  occ. eigenvalues --   -0.39627  -0.38003  -0.35903  -0.33356  -0.31891
 Alpha  occ. eigenvalues --   -0.29016  -0.26481  -0.26282  -0.25191
 Alpha virt. eigenvalues --    0.05310   0.05413   0.07413   0.09865   0.10849
 Alpha virt. eigenvalues --    0.12909   0.13034   0.14160   0.14564   0.15353
 Alpha virt. eigenvalues --    0.16592   0.17287   0.18060   0.19610   0.21935

 Mulliken charges:
               1
     1  O   -0.433617
     2  C    0.108284
     3  C   -0.120831
     4  O   -0.266842
     5  C   -0.091084
     6  C   -0.037918
     7  C   -0.369596
     8  C    0.288615
     9  C   -0.438703
    10  H    0.288796
    11  H    0.087243
    12  H    0.091836
    13  H    0.117035
    14  H    0.105936
    15  H    0.116565
    16  H    0.090348
    17  H    0.135582
    18  H    0.133557
    19  H    0.194795
 Sum of Mulliken charges =   0.00000

 Dipole moment (field-independent basis, Debye):
    X=              0.0195    Y=             -0.4040    Z=              0.9471  Tot=              1.0299
 Quadrupole moment (field-independent basis, Debye-Ang):
   XX=            -52.1307   YY=            -57.4377   ZZ=            -51.0532
   XY=             -2.0902   XZ=             -1.6773   YZ=             -0.2764

  Exact polarizability:  99.208  -9.565  68.695  -2.061  -0.174  61.560
 Approx polarizability: 133.255 -21.057 104.442   0.080   0.017  96.334

                      1                      2                      3
                      A                      A                      A
 Frequencies --     65.1378                78.9684               116.8768
 Red. masses --      3.2338                 2.6854                 4.3105
 Frc consts  --      0.0081                 0.0099                 0.0347
 IR Inten    --      0.4225                 0.4137                 0.6390

                      4                      5                      6
                      A                      A                      A
 Frequencies --    194.2619               242.7505               328.2746
 Red. masses --      4.3279                 6.0754                 3.3170
 Frc consts  --      0.0962                 0.2109                 0.2106
 IR Inten    --     12.3850                 2.6589                 1.8841

                      7                      8                      9
                      A                      A                      A
 Frequencies --    350.3646               398.7111               447.4373
 Red. masses --      2.4105                 2.6448                 1.1009
 Frc consts  --      0.1743                 0.2477                 0.1299
 IR Inten    --      2.4514                 1.7626                74.6071

                     10                     11                     12
                      A                      A                      A
 Frequencies --    485.5690               519.4036               621.8605
 Red. masses --      3.4008                 3.3768                 1.2080
 Frc consts  --      0.4724                 0.5367                 0.2752
 IR Inten    --     25.6936                 1.2898                42.5193

                     13                     14                     15
                      A                      A                      A
 Frequencies --    640.5339               710.5394               787.3526
 Red. masses --      1.2313                 5.1564                 3.7553
 Frc consts  --      0.2976                 1.5338                 1.3716
 IR Inten    --     40.1135                22.6639                 5.0298

                     16                     17                     18
                      A                      A                      A
 Frequencies --    830.6964               884.8124               893.0442
 Red. masses --      3.4571                 2.9404                 1.5400
 Frc consts  --      1.4056                 1.3563                 0.7236
 IR Inten    --      6.5358                22.3734                 1.3010

                     19                     20                     21
                      A                      A                      A
 Frequencies --    930.2585               953.0211               975.4687
 Red. masses --      3.3301                 2.7269                 2.3508
 Frc consts  --      1.6979                 1.4592                 1.3180
 IR Inten    --     19.5553                 4.5944                 3.2816

                     22                     23                     24
                      A                      A                      A
 Frequencies --   1008.7022              1067.3537              1078.6740
 Red. masses --      1.8816                 4.1950                 2.6979
 Frc consts  --      1.1280                 2.8158                 1.8495
 IR Inten    --     11.1994                43.7569                51.4275

                     25                     26                     27
                      A                      A                      A
 Frequencies --   1121.6627              1138.2506              1208.5958
 Red. masses --      2.2826                 2.3674                 1.1309
 Frc consts  --      1.6920                 1.8072                 0.9732
 IR Inten    --     23.4438                46.6472                16.3056

                     28                     29                     30
                      A                      A                      A
 Frequencies --   1224.4290              1247.4515              1254.8688
 Red. masses --      1.2624                 1.4162                 1.2498
 Frc consts  --      1.1151                 1.2984                 1.1595
 IR Inten    --     18.6434                 1.7654                 8.0825

                     31                     32                     33
                      A                      A                      A
 Frequencies --   1273.8939              1313.2217              1334.3121
 Red. masses --      1.3166                 1.4248                 1.2925
 Frc consts  --      1.2588                 1.4477                 1.3558
 IR Inten    --      4.3425                 4.4866                 5.5372

                     34                     35                     36
                      A                      A                      A
 Frequencies --   1364.9433              1370.3815              1399.5359
 Red. masses --      1.4106                 1.3785                 1.4203
 Frc consts  --      1.5484                 1.5253                 1.6391
 IR Inten    --      0.5254                 2.1292                 2.5848

                     37                     38                     39
                      A                      A                      A
 Frequencies --   1431.2629              1467.1830              1503.4394
 Red. masses --      1.2440                 1.0828                 1.0909
 Frc consts  --      1.5014                 1.3734                 1.4528
 IR Inten    --     56.0825                 5.3455                 2.0909

                     40                     41                     42
                      A                      A                      A
 Frequencies --   1522.0326              2237.1073              2974.5709
 Red. masses --      1.0938                 5.9363                 1.0702
 Frc consts  --      1.4929                17.5041                 5.5792
 IR Inten    --      1.4509                 3.4897                59.0913

                     43                     44                     45
                      A                      A                      A
 Frequencies --   3017.7808              3032.7440              3050.3115
 Red. masses --      1.0677                 1.0623                 1.0835
 Frc consts  --      5.7289                 5.7565                 5.9399
 IR Inten    --     44.2086                11.9643                 9.9225

                     46                     47                     48
                      A                      A                      A
 Frequencies --   3073.5117              3084.4879              3090.4188
 Red. masses --      1.0971                 1.0986                 1.0887
 Frc consts  --      6.1059                 6.1585                 6.1261
 IR Inten    --      3.1807                21.9536                49.3489

                     49                     50                     51
                      A                      A                      A
 Frequencies --   3105.7307              3506.9261              3776.2616
 Red. masses --      1.0939                 1.1618                 1.0655
 Frc consts  --      6.2168                 8.4188                 8.9521
 IR Inten    --     25.3550                68.6108                24.9289

 - Thermochemistry -
 -------------------
 Temperature   298.150 Kelvin.  Pressure   1.00000 Atm.
 Atom     1 has atomic number  8 and mass  15.99491

 Molecular mass:   126.06808 amu.
 Principal axes and moments of inertia in atomic units:
                           1         2         3
     Eigenvalues --   553.009341702.194342027.04194
           X            0.99995  -0.00546  -0.00854
           Y            0.00541   0.99997  -0.00610
           Z            0.00858   0.00606   0.99994
 This molecule is an asymmetric top.
 Rotational symmetry number  1.
 Warning -- assumption of classical behavior for rotation
           may cause significant error
 Rotational temperatures (Kelvin)      0.15662     0.05088     0.04273
 Rotational constants (GHZ):           3.26349     1.06024     0.89033
 Zero-point vibrational energy     417110.3 (Joules/Mol)
                                   99.69174 (Kcal/Mol)
 Warning -- explicit consideration of  11 degrees of freedom as
           vibrations may cause significant error
 Vibrational temperatures:     93.72   113.62   168.16   279.50   349.26
          (Kelvin)            472.31   504.10   573.66   643.76   698.62
                              747.31   894.72   921.58  1022.31  1132.82
                             1195.19  1273.05  1284.89  1338.43  1371.18
                             1403.48  1451.30  1535.68  1551.97  1613.82
                             1637.69  1738.90  1761.68  1794.80  1805.47
                             1832.85  1889.43  1919.78  1963.85  1971.67
                             2013.62  2059.27  2110.95  2163.11  2189.86
                             3218.69  4279.74  4341.91  4363.44  4388.71
                             4422.09  4437.88  4446.42  4468.45  5045.68
                             5433.19

 Zero-point correction=                           0.158869 (Hartree/Particle)
 Thermal correction to Energy=                    0.167885
 Thermal correction to Enthalpy=                  0.168829
 Thermal correction to Gibbs Free Energy=         0.124600
 Sum of electronic and zero-point Energies=           -422.991035
 Sum of electronic and thermal Energies=              -422.982019
 Sum of electronic and thermal Enthalpies=            -422.981075
 Sum of electronic and thermal Free Energies=         -423.025304

                     E (Thermal)             CV                S
                      KCal/Mol        Cal/Mol-Kelvin    Cal/Mol-Kelvin
 Total                  105.349             33.647             93.088
 Electronic               0.000              0.000              0.000
 Translational            0.889              2.981             40.409
 Rotational               0.889              2.981             29.036
 Vibrational            103.572             27.685             23.644
 Vibration     1          0.597              1.971              4.295
 Vibration     2          0.600              1.963              3.916
 Vibration     3          0.608              1.935              3.151
 Vibration     4          0.635              1.848              2.187
 Vibration     5          0.659              1.775              1.783
 Vibration     6          0.711              1.619              1.269
 Vibration     7          0.727              1.575              1.165
 Vibration     8          0.765              1.473              0.967
 Vibration     9          0.807              1.367              0.804
 Vibration    10          0.842              1.282              0.695
 Vibration    11          0.874              1.207              0.611

 Optimization completed.
    -- Stationary point found.
 Normal termination of Gaussian 09 at Tue Jan 28 09:07:24 2020.
