 Gaussian 09, Revision D.01,
 Gaussian 09:  ES64L-G09RevD.01 24-Apr-2013

 -----------------------------
 # b3lyp 6-31G(2df,p) opt Freq
 -----------------------------

 -----
 titel
 -----
 Symbolic Z-matrix:
 Charge =  0 Multiplicity = 1

 SCF Done:  E(RB3LYP) =  -423.155818369     A.U. after   12 cycles
 Optimization completed.
    -- Stationary point found.
 Normal termination of Gaussian 09 at Mon Jan 27 17:02:49 2020.

 ----------------------------------------------------------------------
 #N Geom=AllCheck Guess=TCheck SCRF=Check GenChk RB3LYP/6-31G(2df,p) Fr
 eq
 ----------------------------------------------------------------------

 Structure from the checkpoint file:  "/scratch/puck/g09_0ad12cf4-d362-4c1e-8730-f67fb19fd1aa/Gau-38038.chk"
 -----
 titel
 -----
 Charge =  0 Multiplicity = 1

                         Standard orientation:
 ---------------------------------------------------------------------
 Center     Atomic      Atomic             Coordinates (Angstroms)
 Number     Number       Type             X           Y           Z
 ---------------------------------------------------------------------
      1          6           0       -2.224067   -0.100519   -0.606714
      2          6           0       -0.841480   -0.291801   -0.064548
      3          6           0       -0.281686   -0.927848    1.219553
      4          6           0        0.574934    0.306069    1.504589
      5          6           0        0.276478    0.790226    0.047729
      6          8           0       -0.147811    2.106925   -0.153999
      7          6           0        1.355965    0.266352   -0.909269
      8          8           0        1.336652   -1.148787   -0.711575
      9          6           0        0.069681   -1.462005   -0.158026
     10          1           0       -2.202932    0.140799   -1.675481
     11          1           0       -2.820796   -1.009770   -0.481218
     12          1           0       -2.740210    0.716962   -0.092850
     13          1           0       -0.793624   -1.538104    1.956167
     14          1           0        0.090351    0.971646    2.223510
     15          1           0        1.623865    0.151529    1.782113
     16          1           0        0.573637    2.700554    0.080898
     17          1           0        1.107757    0.527701   -1.949698
     18          1           0        2.362146    0.635051   -0.677144
     19          1           0       -0.289869   -2.444311   -0.441587
 ---------------------------------------------------------------------

 SCF Done:  E(RB3LYP) =  -423.155818369     A.U. after    1 cycles

 The electronic state is 1-A.
 Alpha  occ. eigenvalues --  -19.14895 -19.13658 -10.24069 -10.22888 -10.22207
 Alpha  occ. eigenvalues --  -10.19144 -10.18837 -10.18257 -10.17917  -1.04592
 Alpha  occ. eigenvalues --   -1.02631  -0.88162  -0.74760  -0.72473  -0.66999
 Alpha  occ. eigenvalues --   -0.62158  -0.56969  -0.54619  -0.50707  -0.47696
 Alpha  occ. eigenvalues --   -0.45422  -0.44670  -0.43389  -0.41475  -0.40158
 Alpha  occ. eigenvalues --   -0.38957  -0.38620  -0.35874  -0.34310  -0.32890
 Alpha  occ. eigenvalues --   -0.30312  -0.26908  -0.25055  -0.22633
 Alpha virt. eigenvalues --    0.06433   0.10533   0.11107   0.11902   0.12718
 Alpha virt. eigenvalues --    0.13928   0.14580   0.15001   0.16323   0.16835
 Alpha virt. eigenvalues --    0.17621   0.18943   0.20198   0.21101   0.22394

 Mulliken charges:
               1
     1  C   -0.514111
     2  C    0.255491
     3  C   -0.154087
     4  C   -0.293395
     5  C    0.310960
     6  O   -0.491002
     7  C   -0.130901
     8  O   -0.269729
     9  C    0.061631
    10  H    0.125843
    11  H    0.117829
    12  H    0.130203
    13  H    0.081748
    14  H    0.104754
    15  H    0.092742
    16  H    0.281926
    17  H    0.093824
    18  H    0.095990
    19  H    0.100283
 Sum of Mulliken charges =   0.00000

 Dipole moment (field-independent basis, Debye):
    X=             -0.1564    Y=              0.9408    Z=              0.7219  Tot=              1.1961
 Quadrupole moment (field-independent basis, Debye-Ang):
   XX=            -53.2732   YY=            -51.2410   ZZ=            -53.0689
   XY=              7.1731   XZ=              0.6829   YZ=              0.1745

  Exact polarizability:  75.919   4.357  74.460   1.056  -1.586  71.960
 Approx polarizability: 107.255   1.936 111.004   0.722  -2.731 106.340

                      1                      2                      3
                      A                      A                      A
 Frequencies --    167.6207               183.7976               202.2136
 Red. masses --      1.0395                 2.5152                 3.0749
 Frc consts  --      0.0172                 0.0501                 0.0741
 IR Inten    --      1.1517                 4.3879                 5.7696

                      4                      5                      6
                      A                      A                      A
 Frequencies --    226.1992               249.5567               324.7990
 Red. masses --      1.0662                 3.7405                 2.3029
 Frc consts  --      0.0321                 0.1373                 0.1431
 IR Inten    --     79.6039                 5.3662                 3.2034

                      7                      8                      9
                      A                      A                      A
 Frequencies --    385.0414               439.7877               496.6933
 Red. masses --      4.0519                 2.5398                 3.3765
 Frc consts  --      0.3539                 0.2894                 0.4908
 IR Inten    --     10.9910                 6.7232                 2.2515

                     10                     11                     12
                      A                      A                      A
 Frequencies --    588.4723               605.8479               662.7190
 Red. masses --      4.2606                 3.3777                 4.2764
 Frc consts  --      0.8693                 0.7305                 1.1066
 IR Inten    --      2.9028                 3.3779                 0.9532

                     13                     14                     15
                      A                      A                      A
 Frequencies --    724.0526               791.8142               850.3628
 Red. masses --      4.4156                 3.1826                 2.4195
 Frc consts  --      1.3639                 1.1756                 1.0308
 IR Inten    --      3.9698                 7.1903                16.4636

                     16                     17                     18
                      A                      A                      A
 Frequencies --    874.2484               895.3704               952.3061
 Red. masses --      2.0422                 1.9968                 1.9010
 Frc consts  --      0.9196                 0.9432                 1.0157
 IR Inten    --      5.7580                 6.7567                 6.9187

                     19                     20                     21
                      A                      A                      A
 Frequencies --    979.8596               990.2795              1022.0446
 Red. masses --      1.4329                 2.1397                 1.8729
 Frc consts  --      0.8106                 1.2363                 1.1527
 IR Inten    --     10.7035                 2.6571                26.7952

                     22                     23                     24
                      A                      A                      A
 Frequencies --   1047.6672              1077.3475              1084.4286
 Red. masses --      1.7859                 2.4640                 1.9340
 Frc consts  --      1.1549                 1.6850                 1.3400
 IR Inten    --      7.2631                59.3828                34.5086

                     25                     26                     27
                      A                      A                      A
 Frequencies --   1099.3803              1138.7571              1177.5930
 Red. masses --      2.2765                 1.9973                 1.5776
 Frc consts  --      1.6211                 1.5260                 1.2890
 IR Inten    --     29.3218                 4.4182                35.0249

                     28                     29                     30
                      A                      A                      A
 Frequencies --   1205.5218              1219.5506              1243.3525
 Red. masses --      1.9252                 1.6945                 1.7834
 Frc consts  --      1.6485                 1.4849                 1.6244
 IR Inten    --      5.8721                 5.1998                 2.9496

                     31                     32                     33
                      A                      A                      A
 Frequencies --   1256.7454              1269.2498              1304.3708
 Red. masses --      2.4752                 1.7480                 1.5352
 Frc consts  --      2.3033                 1.6592                 1.5389
 IR Inten    --     52.7252                48.2508                 6.4965

                     34                     35                     36
                      A                      A                      A
 Frequencies --   1348.0763              1383.0622              1413.4727
 Red. masses --      1.6065                 1.8027                 1.2584
 Frc consts  --      1.7202                 2.0316                 1.4813
 IR Inten    --      5.9247                 5.0332                 1.1155

                     37                     38                     39
                      A                      A                      A
 Frequencies --   1462.1792              1482.8069              1492.2419
 Red. masses --      2.1767                 1.0495                 1.3648
 Frc consts  --      2.7419                 1.3595                 1.7906
 IR Inten    --      4.1341                 3.8390                 7.6596

                     40                     41                     42
                      A                      A                      A
 Frequencies --   1497.8902              1513.7623              2984.4847
 Red. masses --      1.1065                 1.1009                 1.0645
 Frc consts  --      1.4627                 1.4863                 5.5865
 IR Inten    --      6.0475                 1.4412                70.3385

                     43                     44                     45
                      A                      A                      A
 Frequencies --   3028.3195              3033.7221              3057.6600
 Red. masses --      1.0356                 1.0601                 1.0985
 Frc consts  --      5.5958                 5.7485                 6.0510
 IR Inten    --     43.5939                34.1952                43.8775

                     46                     47                     48
                      A                      A                      A
 Frequencies --   3090.8618              3101.1219              3103.7871
 Red. masses --      1.1003                 1.1013                 1.1040
 Frc consts  --      6.1935                 6.2399                 6.2664
 IR Inten    --     18.7136                15.0407                23.3229

                     49                     50                     51
                      A                      A                      A
 Frequencies --   3163.4119              3187.9612              3805.6090
 Red. masses --      1.0914                 1.0926                 1.0660
 Frc consts  --      6.4351                 6.5427                 9.0960
 IR Inten    --     19.0277                20.2537                22.8981

 - Thermochemistry -
 -------------------
 Temperature   298.150 Kelvin.  Pressure   1.00000 Atm.
 Atom     1 has atomic number  6 and mass  12.00000

 Molecular mass:   126.06808 amu.
 Principal axes and moments of inertia in atomic units:
                           1         2         3
     Eigenvalues --   849.78100 896.004501119.72185
           X           -0.65492   0.75425   0.04682
           Y            0.75496   0.65576  -0.00349
           Z            0.03334  -0.03306   0.99890
 This molecule is an asymmetric top.
 Rotational symmetry number  1.
 Warning -- assumption of classical behavior for rotation
           may cause significant error
 Rotational temperatures (Kelvin)      0.10192     0.09667     0.07735
 Rotational constants (GHZ):           2.12377     2.01421     1.61178
 Zero-point vibrational energy     418020.0 (Joules/Mol)
                                   99.90917 (Kcal/Mol)
 Warning -- explicit consideration of  11 degrees of freedom as
           vibrations may cause significant error
 Vibrational temperatures:    241.17   264.44   290.94   325.45   359.06
          (Kelvin)            467.31   553.99   632.76   714.63   846.68
                              871.68   953.50  1041.75  1139.24  1223.48
                             1257.85  1288.24  1370.15  1409.80  1424.79
                             1470.49  1507.36  1550.06  1560.25  1581.76
                             1638.42  1694.29  1734.47  1754.66  1788.90
                             1808.17  1826.17  1876.70  1939.58  1989.92
                             2033.67  2103.75  2133.43  2147.00  2155.13
                             2177.96  4294.00  4357.07  4364.84  4399.29
                             4447.06  4461.82  4465.65  4551.44  4586.76
                             5475.42

 Zero-point correction=                           0.159215 (Hartree/Particle)
 Thermal correction to Energy=                    0.167280
 Thermal correction to Enthalpy=                  0.168224
 Thermal correction to Gibbs Free Energy=         0.127236
 Sum of electronic and zero-point Energies=           -422.996603
 Sum of electronic and thermal Energies=              -422.988538
 Sum of electronic and thermal Enthalpies=            -422.987594
 Sum of electronic and thermal Free Energies=         -423.028582

                     E (Thermal)             CV                S
                      KCal/Mol        Cal/Mol-Kelvin    Cal/Mol-Kelvin
 Total                  104.970             31.942             86.267
 Electronic               0.000              0.000              0.000
 Translational            0.889              2.981             40.409
 Rotational               0.889              2.981             28.235
 Vibrational            103.192             25.980             17.623
 Vibration     1          0.624              1.882              2.462
 Vibration     2          0.631              1.862              2.289
 Vibration     3          0.639              1.837              2.113
 Vibration     4          0.650              1.801              1.909
 Vibration     5          0.662              1.763              1.734
 Vibration     6          0.709              1.626              1.286
 Vibration     7          0.754              1.502              1.019
 Vibration     8          0.800              1.383              0.827
 Vibration     9          0.852              1.257              0.666
 Vibration    10          0.946              1.056              0.470
 Vibration    11          0.964              1.019              0.440

 Optimization completed.
    -- Stationary point found.
 Normal termination of Gaussian 09 at Mon Jan 27 18:09:07 2020.
