 Gaussian 09, Revision D.01,
 Gaussian 09:  ES64L-G09RevD.01 24-Apr-2013

 -----------------------------
 # b3lyp 6-31G(2df,p) opt Freq
 -----------------------------

 -----
 titel
 -----
 Symbolic Z-matrix:
 Charge =  0 Multiplicity = 1

 SCF Done:  E(RB3LYP) =  -423.226200045     A.U. after   14 cycles
 Optimization completed.
    -- Stationary point found.
 Normal termination of Gaussian 09 at Mon Jan 27 13:11:49 2020.

 ----------------------------------------------------------------------
 #N Geom=AllCheck Guess=TCheck SCRF=Check GenChk RB3LYP/6-31G(2df,p) Fr
 eq
 ----------------------------------------------------------------------

 Structure from the checkpoint file:  "/scratch/puck/g09_bd306fda-c249-4880-a209-7697987369a1/Gau-38088.chk"
 -----
 titel
 -----
 Charge =  0 Multiplicity = 1

                         Standard orientation:
 ---------------------------------------------------------------------
 Center     Atomic      Atomic             Coordinates (Angstroms)
 Number     Number       Type             X           Y           Z
 ---------------------------------------------------------------------
      1          8           0       -0.901505    1.992843    0.030343
      2          6           0       -0.160938    1.043954   -0.031489
      3          8           0        1.174976    1.266802    0.023724
      4          6           0        2.146960    0.220475   -0.137053
      5          6           0        1.665455   -1.131825    0.362347
      6          6           0        0.360492   -1.474214   -0.354936
      7          6           0       -0.656135   -0.373365   -0.105144
      8          6           0       -1.830051   -0.641540    0.837545
      9          6           0       -2.068402   -0.530206   -0.632497
     10          1           0        2.410059    0.160278   -1.201734
     11          1           0        3.029508    0.567418    0.406617
     12          1           0        2.440752   -1.880067    0.166871
     13          1           0        1.507442   -1.094184    1.446641
     14          1           0        0.557539   -1.568499   -1.431718
     15          1           0       -0.039343   -2.438487   -0.024898
     16          1           0       -1.863554   -1.621853    1.301021
     17          1           0       -2.151146    0.183485    1.461310
     18          1           0       -2.274674   -1.435098   -1.194435
     19          1           0       -2.548646    0.370176   -0.994848
 ---------------------------------------------------------------------

 SCF Done:  E(RB3LYP) =  -423.226200045     A.U. after    1 cycles

 The electronic state is 1-A.
 Alpha  occ. eigenvalues --  -19.17402 -19.10817 -10.29841 -10.24833 -10.21153
 Alpha  occ. eigenvalues --  -10.20045 -10.20020 -10.19706 -10.19333  -1.08847
 Alpha  occ. eigenvalues --   -1.00606  -0.87614  -0.80073  -0.72688  -0.63393
 Alpha  occ. eigenvalues --   -0.63228  -0.60835  -0.53780  -0.51426  -0.49323
 Alpha  occ. eigenvalues --   -0.47768  -0.45332  -0.43313  -0.42546  -0.41418
 Alpha  occ. eigenvalues --   -0.40571  -0.37827  -0.36689  -0.35548  -0.32976
 Alpha  occ. eigenvalues --   -0.30205  -0.29325  -0.27881  -0.25860
 Alpha virt. eigenvalues --    0.01444   0.07852   0.09782   0.10942   0.11165
 Alpha virt. eigenvalues --    0.13252   0.13991   0.14765   0.15789   0.17114
 Alpha virt. eigenvalues --    0.17609   0.17919   0.18374   0.21173   0.22661

 Mulliken charges:
               1
     1  O   -0.348769
     2  C    0.393472
     3  O   -0.236687
     4  C   -0.056901
     5  C   -0.231761
     6  C   -0.298599
     7  C    0.174657
     8  C   -0.280867
     9  C   -0.295298
    10  H    0.112872
    11  H    0.122214
    12  H    0.107156
    13  H    0.115678
    14  H    0.106057
    15  H    0.102410
    16  H    0.114147
    17  H    0.142217
    18  H    0.112960
    19  H    0.145044
 Sum of Mulliken charges =   0.00000

 Dipole moment (field-independent basis, Debye):
    X=              1.6240    Y=             -4.0417    Z=             -0.1923  Tot=              4.3600
 Quadrupole moment (field-independent basis, Debye-Ang):
   XX=            -49.8958   YY=            -59.7541   ZZ=            -51.4674
   XY=              1.4771   XZ=             -0.1999   YZ=             -0.2244

  Exact polarizability:  89.600  -1.616  74.646  -0.665   0.383  63.058
 Approx polarizability: 122.139  -5.269 111.938  -1.834   0.746  97.794

                      1                      2                      3
                      A                      A                      A
 Frequencies --     66.0041               126.9901               262.5765
 Red. masses --      3.3278                 4.1281                 2.2766
 Frc consts  --      0.0085                 0.0392                 0.0925
 IR Inten    --      1.3468                 0.6230                 1.6987

                      4                      5                      6
                      A                      A                      A
 Frequencies --    278.1874               284.9213               383.3913
 Red. masses --      2.3974                 3.3571                 2.2486
 Frc consts  --      0.1093                 0.1606                 0.1947
 IR Inten    --      1.2783                 4.1308                 1.3868

                      7                      8                      9
                      A                      A                      A
 Frequencies --    403.6664               455.3136               544.7810
 Red. masses --      3.3985                 4.0094                 4.7864
 Frc consts  --      0.3263                 0.4897                 0.8370
 IR Inten    --      3.4215                 2.1274                 3.1480

                     10                     11                     12
                      A                      A                      A
 Frequencies --    593.8816               670.6428               750.5020
 Red. masses --      3.0332                 3.2351                 6.0657
 Frc consts  --      0.6303                 0.8573                 2.0130
 IR Inten    --      4.1735                 1.6578                11.2271

                     13                     14                     15
                      A                      A                      A
 Frequencies --    791.2414               832.9966               877.8455
 Red. masses --      1.0475                 2.3922                 2.1113
 Frc consts  --      0.3864                 0.9780                 0.9586
 IR Inten    --      0.5814                10.6310                 0.4200

                     16                     17                     18
                      A                      A                      A
 Frequencies --    898.3559               916.9195               950.6448
 Red. masses --      3.1303                 1.7411                 2.1633
 Frc consts  --      1.4885                 0.8624                 1.1519
 IR Inten    --      2.2172                 0.0747                12.4126

                     19                     20                     21
                      A                      A                      A
 Frequencies --    971.6866              1000.1024              1030.6025
 Red. masses --      1.2929                 2.8651                 1.7570
 Frc consts  --      0.7192                 1.6884                 1.0995
 IR Inten    --      0.4547                 2.2754                15.5566

                     22                     23                     24
                      A                      A                      A
 Frequencies --   1065.6518              1094.6687              1096.2498
 Red. masses --      1.2714                 1.3655                 3.0593
 Frc consts  --      0.8507                 0.9640                 2.1662
 IR Inten    --      3.0070                 2.0299                43.6885

                     25                     26                     27
                      A                      A                      A
 Frequencies --   1129.3308              1164.6004              1203.2648
 Red. masses --      1.8802                 3.3984                 1.2854
 Frc consts  --      1.4129                 2.7157                 1.0965
 IR Inten    --      0.2311               285.0398                 0.8967

                     28                     29                     30
                      A                      A                      A
 Frequencies --   1211.6565              1227.6889              1291.7018
 Red. masses --      1.4711                 1.5604                 1.4255
 Frc consts  --      1.2725                 1.3856                 1.4014
 IR Inten    --      4.0559                21.5590                20.9717

                     31                     32                     33
                      A                      A                      A
 Frequencies --   1312.6416              1339.9966              1377.7240
 Red. masses --      1.5746                 2.3717                 1.4357
 Frc consts  --      1.5985                 2.5091                 1.6056
 IR Inten    --     17.0507                66.2448                 3.5516

                     34                     35                     36
                      A                      A                      A
 Frequencies --   1386.0657              1430.2392              1450.8452
 Red. masses --      1.8419                 1.4602                 1.0882
 Frc consts  --      2.0849                 1.7599                 1.3496
 IR Inten    --     42.8143                33.7447                 4.3847

                     37                     38                     39
                      A                      A                      A
 Frequencies --   1479.4345              1484.5882              1497.1228
 Red. masses --      1.1577                 1.2656                 1.0989
 Frc consts  --      1.4930                 1.6434                 1.4512
 IR Inten    --      2.4327                 5.5646                 8.8932

                     40                     41                     42
                      A                      A                      A
 Frequencies --   1518.0527              1815.8928              3012.7287
 Red. masses --      1.0926                12.2468                 1.0669
 Frc consts  --      1.4835                23.7933                 5.7055
 IR Inten    --      2.9313               265.6136                16.6570

                     43                     44                     45
                      A                      A                      A
 Frequencies --   3018.7005              3038.7073              3070.0997
 Red. masses --      1.0688                 1.0603                 1.0951
 Frc consts  --      5.7385                 5.7684                 6.0813
 IR Inten    --     47.9383                16.8103                25.5061

                     46                     47                     48
                      A                      A                      A
 Frequencies --   3086.5256              3095.4745              3136.7289
 Red. masses --      1.1002                 1.1004                 1.0513
 Frc consts  --      6.1754                 6.2125                 6.0944
 IR Inten    --     39.4945                31.3902                12.8603

                     49                     50                     51
                      A                      A                      A
 Frequencies --   3139.4778              3230.1732              3243.0579
 Red. masses --      1.0586                 1.1169                 1.1159
 Frc consts  --      6.1474                 6.8661                 6.9147
 IR Inten    --     11.1109                 0.2308                 3.7370

 - Thermochemistry -
 -------------------
 Temperature   298.150 Kelvin.  Pressure   1.00000 Atm.
 Atom     1 has atomic number  8 and mass  15.99491

 Molecular mass:   126.06808 amu.
 Principal axes and moments of inertia in atomic units:
                           1         2         3
     Eigenvalues --   717.789321052.361151564.32615
           X            1.00000  -0.00040  -0.00079
           Y            0.00040   1.00000  -0.00030
           Z            0.00079   0.00030   1.00000
 This molecule is an asymmetric top.
 Rotational symmetry number  1.
 Warning -- assumption of classical behavior for rotation
           may cause significant error
 Rotational temperatures (Kelvin)      0.12067     0.08230     0.05537
 Rotational constants (GHZ):           2.51430     1.71494     1.15369
 Zero-point vibrational energy     423121.2 (Joules/Mol)
                                  101.12840 (Kcal/Mol)
 Warning -- explicit consideration of  10 degrees of freedom as
           vibrations may cause significant error
 Vibrational temperatures:     94.97   182.71   377.79   400.25   409.94
          (Kelvin)            551.61   580.79   655.09   783.82   854.46
                              964.90  1079.80  1138.42  1198.49  1263.02
                             1292.53  1319.24  1367.76  1398.04  1438.92
                             1482.81  1533.23  1574.98  1577.26  1624.85
                             1675.60  1731.23  1743.30  1766.37  1858.47
                             1888.60  1927.95  1982.24  1994.24  2057.79
                             2087.44  2128.57  2135.99  2154.02  2184.14
                             2612.66  4334.64  4343.23  4372.02  4417.18
                             4440.82  4453.69  4513.05  4517.00  4647.49
                             4666.03

 Zero-point correction=                           0.161158 (Hartree/Particle)
 Thermal correction to Energy=                    0.169019
 Thermal correction to Enthalpy=                  0.169963
 Thermal correction to Gibbs Free Energy=         0.128571
 Sum of electronic and zero-point Energies=           -423.065042
 Sum of electronic and thermal Energies=              -423.057181
 Sum of electronic and thermal Enthalpies=            -423.056237
 Sum of electronic and thermal Free Energies=         -423.097629

                     E (Thermal)             CV                S
                      KCal/Mol        Cal/Mol-Kelvin    Cal/Mol-Kelvin
 Total                  106.061             30.605             87.118
 Electronic               0.000              0.000              0.000
 Translational            0.889              2.981             40.409
 Rotational               0.889              2.981             28.559
 Vibrational            104.284             24.643             18.150
 Vibration     1          0.597              1.970              4.269
 Vibration     2          0.611              1.926              2.991
 Vibration     3          0.670              1.741              1.645
 Vibration     4          0.679              1.714              1.545
 Vibration     5          0.683              1.702              1.504
 Vibration     6          0.753              1.506              1.026
 Vibration     7          0.769              1.462              0.949
 Vibration     8          0.814              1.349              0.780
 Vibration     9          0.900              1.151              0.555
 Vibration    10          0.952              1.045              0.460

 Normal termination of Gaussian 09 at Mon Jan 27 13:55:56 2020.
