 Gaussian 09, Revision D.01,
 Gaussian 09:  ES64L-G09RevD.01 24-Apr-2013

 -----------------------------
 # b3lyp 6-31G(2df,p) opt Freq
 -----------------------------

 -----
 titel
 -----
 Symbolic Z-matrix:
 Charge =  0 Multiplicity = 1

 SCF Done:  E(RB3LYP) =  -423.137160462     A.U. after   13 cycles
 Optimization completed.
    -- Stationary point found.
 Normal termination of Gaussian 09 at Mon Jan 27 12:06:46 2020.

 ----------------------------------------------------------------------
 #N Geom=AllCheck Guess=TCheck SCRF=Check GenChk RB3LYP/6-31G(2df,p) Fr
 eq
 ----------------------------------------------------------------------

 Structure from the checkpoint file:  "/scratch/puck/g09_5a99cef8-2bce-4cb4-8683-ffb6056f280c/Gau-165397.chk"
 -----
 titel
 -----
 Charge =  0 Multiplicity = 1

                         Standard orientation:
 ---------------------------------------------------------------------
 Center     Atomic      Atomic             Coordinates (Angstroms)
 Number     Number       Type             X           Y           Z
 ---------------------------------------------------------------------
      1          6           0        2.661388   -0.086680    0.611972
      2          8           0        2.485345    0.116057   -0.787842
      3          6           0        1.370331    0.372546    0.078040
      4          6           0        0.207146   -0.564345   -0.060639
      5          6           0       -0.998719   -0.568965    0.917188
      6          6           0       -1.514181    0.886755    0.919981
      7          6           0       -1.505406    1.101831   -0.628047
      8          6           0       -0.987951   -0.298977   -1.017135
      9          8           0       -1.793758   -1.162977   -0.154713
     10          1           0        2.771941   -1.124590    0.924351
     11          1           0        3.322424    0.620814    1.110827
     12          1           0        1.140906    1.432763    0.181873
     13          1           0        0.562610   -1.586201   -0.207816
     14          1           0       -1.006390   -1.135921    1.848222
     15          1           0       -2.517017    0.942835    1.347184
     16          1           0       -0.865709    1.576483    1.467312
     17          1           0       -2.503342    1.275304   -1.034449
     18          1           0       -0.851523    1.913238   -0.958953
     19          1           0       -0.982244   -0.592353   -2.066276
 ---------------------------------------------------------------------

 SCF Done:  E(RB3LYP) =  -423.137160462     A.U. after    1 cycles

 The electronic state is 1-A.
 Alpha  occ. eigenvalues --  -19.15392 -19.13314 -10.24206 -10.24018 -10.23805
 Alpha  occ. eigenvalues --  -10.23787 -10.19694 -10.18750 -10.18637  -1.07367
 Alpha  occ. eigenvalues --   -1.04909  -0.80108  -0.73881  -0.70857  -0.66795
 Alpha  occ. eigenvalues --   -0.62550  -0.57556  -0.55421  -0.52741  -0.50080
 Alpha  occ. eigenvalues --   -0.48477  -0.45602  -0.43426  -0.41300  -0.39679
 Alpha  occ. eigenvalues --   -0.36760  -0.35965  -0.35265  -0.34866  -0.33690
 Alpha  occ. eigenvalues --   -0.32486  -0.29250  -0.27138  -0.24780
 Alpha virt. eigenvalues --    0.07862   0.08708   0.09630   0.10214   0.11462
 Alpha virt. eigenvalues --    0.12315   0.14343   0.15233   0.15579   0.16492
 Alpha virt. eigenvalues --    0.17585   0.17973   0.18097   0.18809   0.20598

 Mulliken charges:
               1
     1  C   -0.185811
     2  O   -0.235505
     3  C    0.047891
     4  C    0.001811
     5  C    0.051035
     6  C   -0.223033
     7  C   -0.224539
     8  C    0.056476
     9  O   -0.298600
    10  H    0.114947
    11  H    0.115897
    12  H    0.095523
    13  H    0.093393
    14  H    0.079745
    15  H    0.111107
    16  H    0.099300
    17  H    0.111154
    18  H    0.103817
    19  H    0.085392
 Sum of Mulliken charges =   0.00000

 Dipole moment (field-independent basis, Debye):
    X=              0.3321    Y=              1.1231    Z=              1.6790  Tot=              2.0471
 Quadrupole moment (field-independent basis, Debye-Ang):
   XX=            -57.5937   YY=            -53.4999   ZZ=            -51.6638
   XY=             -3.4143   XZ=              4.4535   YZ=             -0.5116

  Exact polarizability:  85.125  -3.346  68.530   3.725  -0.892  69.680
 Approx polarizability: 113.456  -0.817 103.902   2.683  -1.236 108.513

                      1                      2                      3
                      A                      A                      A
 Frequencies --     58.1577               171.8829               173.8986
 Red. masses --      3.5048                 4.0342                 3.0904
 Frc consts  --      0.0070                 0.0702                 0.0551
 IR Inten    --      2.7431                 2.2569                 1.6578

                      4                      5                      6
                      A                      A                      A
 Frequencies --    311.4083               320.0563               458.2901
 Red. masses --      1.8742                 4.1153                 3.3840
 Frc consts  --      0.1071                 0.2484                 0.4188
 IR Inten    --      0.9745                 1.5286                 3.6802

                      7                      8                      9
                      A                      A                      A
 Frequencies --    491.0903               555.7480               736.5090
 Red. masses --      2.8529                 4.4141                 5.1610
 Frc consts  --      0.4054                 0.8032                 1.6494
 IR Inten    --      4.0573                11.0479                 1.9862

                     10                     11                     12
                      A                      A                      A
 Frequencies --    804.0046               836.3088               840.5847
 Red. masses --      2.2860                 1.6200                 3.0625
 Frc consts  --      0.8706                 0.6676                 1.2749
 IR Inten    --      0.8618                 6.0349                14.6329

                     13                     14                     15
                      A                      A                      A
 Frequencies --    859.5327               868.0382               871.6631
 Red. masses --      3.3056                 4.6027                 2.5493
 Frc consts  --      1.4389                 2.0434                 1.1412
 IR Inten    --     16.5792                17.5766                29.8081

                     16                     17                     18
                      A                      A                      A
 Frequencies --    897.5952               923.1107               953.7416
 Red. masses --      2.6556                 2.8602                 2.4619
 Frc consts  --      1.2606                 1.4360                 1.3194
 IR Inten    --     18.3601                 3.9169                 6.8999

                     19                     20                     21
                      A                      A                      A
 Frequencies --    994.3057              1004.6268              1012.0587
 Red. masses --      2.3927                 1.3777                 1.9870
 Frc consts  --      1.3938                 0.8192                 1.1991
 IR Inten    --     19.7578                 4.2789                 8.8740

                     22                     23                     24
                      A                      A                      A
 Frequencies --   1048.1425              1097.1595              1123.3314
 Red. masses --      2.4257                 1.2064                 1.2753
 Frc consts  --      1.5701                 0.8556                 0.9481
 IR Inten    --      6.8336                 1.1034                 3.1991

                     25                     26                     27
                      A                      A                      A
 Frequencies --   1155.0063              1159.1698              1167.3467
 Red. masses --      1.4731                 1.7779                 1.4180
 Frc consts  --      1.1579                 1.4075                 1.1385
 IR Inten    --      1.5554                 7.2801                 1.2190

                     28                     29                     30
                      A                      A                      A
 Frequencies --   1191.0319              1199.3387              1220.0112
 Red. masses --      2.0389                 1.2840                 1.6487
 Frc consts  --      1.7041                 1.0882                 1.4459
 IR Inten    --      4.1223                 0.7136                 9.0531

                     31                     32                     33
                      A                      A                      A
 Frequencies --   1246.6936              1271.3115              1290.7615
 Red. masses --      1.1869                 1.3418                 1.6220
 Frc consts  --      1.0869                 1.2778                 1.5922
 IR Inten    --      0.1582                 0.8613                13.1086

                     34                     35                     36
                      A                      A                      A
 Frequencies --   1300.1740              1307.6824              1331.5631
 Red. masses --      1.4353                 1.5826                 1.4955
 Frc consts  --      1.4295                 1.5945                 1.5623
 IR Inten    --      5.6642                 1.8689                 6.7063

                     37                     38                     39
                      A                      A                      A
 Frequencies --   1341.4002              1464.7373              1481.2215
 Red. masses --      1.6852                 1.6979                 1.0825
 Frc consts  --      1.7865                 2.1462                 1.3994
 IR Inten    --      2.3254                 2.7409                 0.6991

                     40                     41                     42
                      A                      A                      A
 Frequencies --   1501.0061              1529.4318              3064.2471
 Red. masses --      1.1104                 1.3605                 1.0603
 Frc consts  --      1.4740                 1.8750                 5.8657
 IR Inten    --      6.6649                 2.3014                21.6178

                     43                     44                     45
                      A                      A                      A
 Frequencies --   3071.7521              3080.9293              3096.8794
 Red. masses --      1.0618                 1.0500                 1.0853
 Frc consts  --      5.9029                 5.8724                 6.1325
 IR Inten    --     26.8259                27.6197                 2.0840

                     46                     47                     48
                      A                      A                      A
 Frequencies --   3111.2151              3114.3447              3122.2750
 Red. masses --      1.1049                 1.0879                 1.0905
 Frc consts  --      6.3015                 6.2170                 6.2637
 IR Inten    --      0.3286                30.2353                55.8048

                     49                     50                     51
                      A                      A                      A
 Frequencies --   3127.4069              3133.1498              3167.9199
 Red. masses --      1.1025                 1.0939                 1.1193
 Frc consts  --      6.3534                 6.3267                 6.6184
 IR Inten    --     34.9357                26.7366                28.0452

 - Thermochemistry -
 -------------------
 Temperature   298.150 Kelvin.  Pressure   1.00000 Atm.
 Atom     1 has atomic number  6 and mass  12.00000

 Molecular mass:   126.06808 amu.
 Principal axes and moments of inertia in atomic units:
                           1         2         3
     Eigenvalues --   503.150161577.426601594.21660
           X            0.99958  -0.02264   0.01824
           Y            0.02361   0.99822  -0.05468
           Z           -0.01697   0.05509   0.99834
 This molecule is an asymmetric top.
 Rotational symmetry number  1.
 Warning -- assumption of classical behavior for rotation
           may cause significant error
 Rotational temperatures (Kelvin)      0.17214     0.05491     0.05433
 Rotational constants (GHZ):           3.58688     1.14410     1.13206
 Zero-point vibrational energy     422636.2 (Joules/Mol)
                                  101.01247 (Kcal/Mol)
 Warning -- explicit consideration of   8 degrees of freedom as
           vibrations may cause significant error
 Vibrational temperatures:     83.68   247.30   250.20   448.05   460.49
          (Kelvin)            659.38   706.57   799.60  1059.67  1156.78
                             1203.26  1209.41  1236.67  1248.91  1254.13
                             1291.44  1328.15  1372.22  1430.58  1445.43
                             1456.12  1508.04  1578.57  1616.22  1661.79
                             1667.78  1679.55  1713.63  1725.58  1755.32
                             1793.71  1829.13  1857.12  1870.66  1881.46
                             1915.82  1929.97  2107.43  2131.14  2159.61
                             2200.51  4408.76  4419.56  4432.76  4455.71
                             4476.34  4480.84  4492.25  4499.64  4507.90
                             4557.92

 Zero-point correction=                           0.160974 (Hartree/Particle)
 Thermal correction to Energy=                    0.168348
 Thermal correction to Enthalpy=                  0.169292
 Thermal correction to Gibbs Free Energy=         0.128582
 Sum of electronic and zero-point Energies=           -422.976187
 Sum of electronic and thermal Energies=              -422.968812
 Sum of electronic and thermal Enthalpies=            -422.967868
 Sum of electronic and thermal Free Energies=         -423.008578

                     E (Thermal)             CV                S
                      KCal/Mol        Cal/Mol-Kelvin    Cal/Mol-Kelvin
 Total                  105.640             28.994             85.682
 Electronic               0.000              0.000              0.000
 Translational            0.889              2.981             40.409
 Rotational               0.889              2.981             28.627
 Vibrational            103.863             23.032             16.646
 Vibration     1          0.596              1.974              4.519
 Vibration     2          0.626              1.877              2.415
 Vibration     3          0.627              1.875              2.393
 Vibration     4          0.700              1.652              1.355
 Vibration     5          0.706              1.635              1.310
 Vibration     6          0.816              1.343              0.771
 Vibration     7          0.847              1.270              0.681
 Vibration     8          0.911              1.127              0.532

 Optimization completed.
    -- Stationary point found.
 Normal termination of Gaussian 09 at Mon Jan 27 12:47:36 2020.
