 Gaussian 09, Revision D.01,
 Gaussian 09:  ES64L-G09RevD.01 24-Apr-2013

 -----------------------------
 # b3lyp 6-31G(2df,p) opt Freq
 -----------------------------

 -----
 titel
 -----
 Symbolic Z-matrix:
 Charge =  0 Multiplicity = 1

 SCF Done:  E(RB3LYP) =  -423.162050277     A.U. after   13 cycles
 Optimization completed.
    -- Stationary point found.
 Normal termination of Gaussian 09 at Mon Jan 27 11:28:12 2020.

 ----------------------------------------------------------------------
 #N Geom=AllCheck Guess=TCheck SCRF=Check GenChk RB3LYP/6-31G(2df,p) Fr
 eq
 ----------------------------------------------------------------------

 Structure from the checkpoint file:  "/scratch/puck/g09_f60992a7-259d-4660-b626-5e5a0ed14463/Gau-60832.chk"
 -----
 titel
 -----
 Charge =  0 Multiplicity = 1

                         Standard orientation:
 ---------------------------------------------------------------------
 Center     Atomic      Atomic             Coordinates (Angstroms)
 Number     Number       Type             X           Y           Z
 ---------------------------------------------------------------------
      1          6           0        1.861625   -0.936483   -0.439231
      2          8           0        2.248619    0.382676   -0.003495
      3          6           0        0.948135    0.614597    0.593368
      4          6           0        0.110350    1.612945   -0.202143
      5          6           0       -1.394239    1.338694   -0.030516
      6          6           0       -1.742823   -0.075486   -0.472370
      7          8           0       -1.910283   -1.054668    0.559048
      8          6           0       -0.759703   -1.162104   -0.284655
      9          6           0        0.557606   -0.875052    0.383978
     10          1           0        1.715012   -0.984316   -1.527924
     11          1           0        2.592221   -1.698397   -0.147546
     12          1           0        1.046578    0.927060    1.639284
     13          1           0        0.358484    2.637606    0.092371
     14          1           0        0.375660    1.513434   -1.261193
     15          1           0       -1.691715    1.458107    1.017438
     16          1           0       -1.973176    2.063915   -0.610113
     17          1           0       -2.464683   -0.170420   -1.283465
     18          1           0       -0.781541   -2.018628   -0.961101
     19          1           0        0.630768   -1.455103    1.307241
 ---------------------------------------------------------------------

 SCF Done:  E(RB3LYP) =  -423.162050277     A.U. after    1 cycles

 The electronic state is 1-A.
 Alpha  occ. eigenvalues --  -19.14898 -19.13125 -10.23891 -10.23858 -10.23458
 Alpha  occ. eigenvalues --  -10.23309 -10.19614 -10.19182 -10.18574  -1.07092
 Alpha  occ. eigenvalues --   -1.03678  -0.80239  -0.76141  -0.70664  -0.65701
 Alpha  occ. eigenvalues --   -0.62604  -0.59626  -0.52739  -0.52021  -0.49974
 Alpha  occ. eigenvalues --   -0.47994  -0.44578  -0.44271  -0.42381  -0.39775
 Alpha  occ. eigenvalues --   -0.38585  -0.37657  -0.37327  -0.34231  -0.31694
 Alpha  occ. eigenvalues --   -0.30597  -0.29101  -0.26425  -0.24645
 Alpha virt. eigenvalues --    0.07344   0.08069   0.09116   0.10447   0.11003
 Alpha virt. eigenvalues --    0.12898   0.14253   0.14716   0.15785   0.16408
 Alpha virt. eigenvalues --    0.17493   0.18566   0.19932   0.21020   0.22115

 Mulliken charges:
               1
     1  C   -0.100463
     2  O   -0.291415
     3  C    0.126514
     4  C   -0.227543
     5  C   -0.244649
     6  C    0.047738
     7  O   -0.257507
     8  C    0.022442
     9  C   -0.079202
    10  H    0.095195
    11  H    0.107449
    12  H    0.081407
    13  H    0.104185
    14  H    0.107320
    15  H    0.120021
    16  H    0.104845
    17  H    0.092760
    18  H    0.091704
    19  H    0.099199
 Sum of Mulliken charges =   0.00000

 Dipole moment (field-independent basis, Debye):
    X=             -0.4606    Y=              0.0688    Z=             -1.0083  Tot=              1.1106
 Quadrupole moment (field-independent basis, Debye-Ang):
   XX=            -60.2763   YY=            -51.0723   ZZ=            -51.7492
   XY=             -5.9316   XZ=              3.0670   YZ=              1.9633

  Exact polarizability:  78.441  -6.402  77.113   1.505   2.214  64.507
 Approx polarizability: 108.401  -5.888 109.151  -1.473   1.125 102.102

                      1                      2                      3
                      A                      A                      A
 Frequencies --     89.3790               171.0274               221.0692
 Red. masses --      3.0725                 2.5735                 2.7431
 Frc consts  --      0.0145                 0.0444                 0.0790
 IR Inten    --      4.6541                 1.6342                 1.7745

                      4                      5                      6
                      A                      A                      A
 Frequencies --    363.6695               382.9605               422.2988
 Red. masses --      3.5941                 2.3818                 5.7178
 Frc consts  --      0.2801                 0.2058                 0.6008
 IR Inten    --      8.1408                 2.5084                 0.8880

                      7                      8                      9
                      A                      A                      A
 Frequencies --    452.0063               511.2944               689.0123
 Red. masses --      4.7408                 3.6587                 1.9802
 Frc consts  --      0.5707                 0.5635                 0.5539
 IR Inten    --      4.5609                 3.1531                 0.7629

                     10                     11                     12
                      A                      A                      A
 Frequencies --    733.4995               776.9818               808.4525
 Red. masses --      2.9373                 2.7657                 3.2637
 Frc consts  --      0.9311                 0.9837                 1.2568
 IR Inten    --     12.2563                 2.5386                 8.4700

                     13                     14                     15
                      A                      A                      A
 Frequencies --    847.0850               899.7127               914.3045
 Red. masses --      2.8696                 2.6115                 2.0064
 Frc consts  --      1.2132                 1.2455                 0.9882
 IR Inten    --      7.5434                16.9235                 7.2335

                     16                     17                     18
                      A                      A                      A
 Frequencies --    963.4214               981.8316              1017.3882
 Red. masses --      2.4085                 2.7483                 2.5655
 Frc consts  --      1.3171                 1.5609                 1.5646
 IR Inten    --     13.1623                11.1613                12.8153

                     19                     20                     21
                      A                      A                      A
 Frequencies --   1022.5909              1047.5148              1064.5754
 Red. masses --      7.0302                 1.8586                 1.5378
 Frc consts  --      4.3313                 1.2016                 1.0268
 IR Inten    --     73.4783                 9.1976                 3.6621

                     22                     23                     24
                      A                      A                      A
 Frequencies --   1070.6116              1088.2023              1142.3853
 Red. masses --      2.0571                 2.0952                 1.8946
 Frc consts  --      1.3892                 1.4618                 1.4568
 IR Inten    --     10.6465                 8.1537                 3.7809

                     25                     26                     27
                      A                      A                      A
 Frequencies --   1161.8208              1180.1596              1196.5761
 Red. masses --      1.2076                 1.5069                 1.6098
 Frc consts  --      0.9604                 1.2365                 1.3580
 IR Inten    --      2.0202                 1.7810                 4.1980

                     28                     29                     30
                      A                      A                      A
 Frequencies --   1211.5933              1258.6299              1282.3524
 Red. masses --      1.2741                 1.3411                 1.3421
 Frc consts  --      1.1020                 1.2517                 1.3003
 IR Inten    --      2.4652                 2.6919                 0.7224

                     31                     32                     33
                      A                      A                      A
 Frequencies --   1292.6945              1331.4228              1337.2187
 Red. masses --      1.3416                 1.3624                 1.2978
 Frc consts  --      1.3209                 1.4230                 1.3673
 IR Inten    --      1.5660                 4.0381                 0.2111

                     34                     35                     36
                      A                      A                      A
 Frequencies --   1356.7390              1374.5124              1389.3216
 Red. masses --      1.3735                 1.6407                 1.4630
 Frc consts  --      1.4896                 1.8264                 1.6638
 IR Inten    --      0.5700                 4.8493                 1.5278

                     37                     38                     39
                      A                      A                      A
 Frequencies --   1392.9194              1455.4659              1482.6560
 Red. masses --      1.4870                 3.0228                 1.1020
 Frc consts  --      1.6998                 3.7728                 1.4273
 IR Inten    --      8.8476                13.0882                 7.0943

                     40                     41                     42
                      A                      A                      A
 Frequencies --   1495.8844              1526.9742              2997.6378
 Red. masses --      1.1060                 1.1016                 1.0640
 Frc consts  --      1.4581                 1.5133                 5.6329
 IR Inten    --      4.4470                 1.2637                63.8571

                     43                     44                     45
                      A                      A                      A
 Frequencies --   3034.1225              3039.4041              3044.4939
 Red. masses --      1.0855                 1.0623                 1.0614
 Frc consts  --      5.8879                 5.7819                 5.7964
 IR Inten    --     21.9832                21.8013                17.7871

                     46                     47                     48
                      A                      A                      A
 Frequencies --   3059.5780              3080.2958              3084.1308
 Red. masses --      1.0977                 1.0908                 1.0969
 Frc consts  --      6.0540                 6.0979                 6.1473
 IR Inten    --     30.8441                38.3752                21.2697

                     49                     50                     51
                      A                      A                      A
 Frequencies --   3088.1114              3091.1497              3112.6135
 Red. masses --      1.0902                 1.1000                 1.0920
 Frc consts  --      6.1257                 6.1927                 6.2331
 IR Inten    --     45.2193                16.0410                52.6684

 - Thermochemistry -
 -------------------
 Temperature   298.150 Kelvin.  Pressure   1.00000 Atm.
 Atom     1 has atomic number  6 and mass  12.00000

 Molecular mass:   126.06808 amu.
 Principal axes and moments of inertia in atomic units:
                           1         2         3
     Eigenvalues --   604.950291134.289531526.37126
           X            0.99810  -0.06101   0.00898
           Y            0.06084   0.99799   0.01776
           Z           -0.01004  -0.01718   0.99980
 This molecule is an asymmetric top.
 Rotational symmetry number  1.
 Warning -- assumption of classical behavior for rotation
           may cause significant error
 Rotational temperatures (Kelvin)      0.14318     0.07636     0.05674
 Rotational constants (GHZ):           2.98329     1.59108     1.18237
 Zero-point vibrational energy     424912.1 (Joules/Mol)
                                  101.55642 (Kcal/Mol)
 Warning -- explicit consideration of   8 degrees of freedom as
           vibrations may cause significant error
 Vibrational temperatures:    128.60   246.07   318.07   523.24   550.99
          (Kelvin)            607.59   650.34   735.64   991.33  1055.34
                             1117.90  1163.18  1218.76  1294.48  1315.48
                             1386.15  1412.63  1463.79  1471.28  1507.14
                             1531.68  1540.37  1565.68  1643.64  1671.60
                             1697.98  1721.60  1743.21  1810.89  1845.02
                             1859.90  1915.62  1923.96  1952.04  1977.61
                             1998.92  2004.10  2094.09  2133.21  2152.24
                             2196.97  4312.93  4365.42  4373.02  4380.34
                             4402.04  4431.85  4437.37  4443.10  4447.47
                             4478.35

 Zero-point correction=                           0.161840 (Hartree/Particle)
 Thermal correction to Energy=                    0.169017
 Thermal correction to Enthalpy=                  0.169962
 Thermal correction to Gibbs Free Energy=         0.130073
 Sum of electronic and zero-point Energies=           -423.000210
 Sum of electronic and thermal Energies=              -422.993033
 Sum of electronic and thermal Enthalpies=            -422.992089
 Sum of electronic and thermal Free Energies=         -423.031978

                     E (Thermal)             CV                S
                      KCal/Mol        Cal/Mol-Kelvin    Cal/Mol-Kelvin
 Total                  106.060             28.538             83.953
 Electronic               0.000              0.000              0.000
 Translational            0.889              2.981             40.409
 Rotational               0.889              2.981             28.440
 Vibrational            104.283             22.576             15.105
 Vibration     1          0.602              1.957              3.674
 Vibration     2          0.626              1.878              2.424
 Vibration     3          0.648              1.809              1.950
 Vibration     4          0.737              1.547              1.106
 Vibration     5          0.752              1.507              1.027
 Vibration     6          0.785              1.422              0.884
 Vibration     7          0.811              1.356              0.790
 Vibration     8          0.866              1.225              0.630

 Normal termination of Gaussian 09 at Mon Jan 27 13:45:58 2020.
