 Gaussian 09, Revision D.01,
 Gaussian 09:  ES64L-G09RevD.01 24-Apr-2013

 -----------------------------
 # b3lyp 6-31G(2df,p) opt Freq
 -----------------------------

 -----
 titel
 -----
 Symbolic Z-matrix:
 Charge =  0 Multiplicity = 1

 SCF Done:  E(RB3LYP) =  -423.053940828     A.U. after   13 cycles
 Optimization completed.
    -- Stationary point found.
 Normal termination of Gaussian 09 at Tue Jan 28 02:54:31 2020.

 ----------------------------------------------------------------------
 #N Geom=AllCheck Guess=TCheck SCRF=Check GenChk RB3LYP/6-31G(2df,p) Fr
 eq
 ----------------------------------------------------------------------

 Structure from the checkpoint file:  "/scratch/puck/g09_9db17df6-f8e6-40fb-a62c-8485e21889c7/Gau-67034.chk"
 -----
 titel
 -----
 Charge =  0 Multiplicity = 1

                         Standard orientation:
 ---------------------------------------------------------------------
 Center     Atomic      Atomic             Coordinates (Angstroms)
 Number     Number       Type             X           Y           Z
 ---------------------------------------------------------------------
      1          6           0       -2.768392    0.843842    0.186081
      2          6           0       -1.520476    0.251301   -0.421706
      3          8           0       -1.357809   -1.183950   -0.034967
      4          6           0        0.026183   -0.892544    0.145664
      5          6           0        1.258772   -0.863100    1.066697
      6          6           0        1.361990    0.344394   -0.040512
      7          8           0        2.408915    1.220181   -0.207642
      8          6           0        0.963675   -0.684431   -1.092045
      9          6           0       -0.159856    0.607253    0.287796
     10          1           0       -2.856951    1.898624   -0.095525
     11          1           0       -3.655658    0.313474   -0.172843
     12          1           0       -2.742793    0.770100    1.276919
     13          1           0       -1.531444    0.329105   -1.512395
     14          1           0        1.089747   -0.556018    2.101069
     15          1           0        2.018437   -1.645029    0.979169
     16          1           0        2.459744    1.790516    0.567210
     17          1           0        0.508805   -0.297371   -2.004116
     18          1           0        1.683097   -1.478288   -1.301000
     19          1           0       -0.353203    0.944749    1.310532
 ---------------------------------------------------------------------

 SCF Done:  E(RB3LYP) =  -423.053940828     A.U. after    1 cycles

 The electronic state is 1-A.
 Alpha  occ. eigenvalues --  -19.15622 -19.13937 -10.26988 -10.24849 -10.24752
 Alpha  occ. eigenvalues --  -10.20075 -10.18226 -10.18220 -10.18219  -1.04802
 Alpha  occ. eigenvalues --   -1.03666  -0.89786  -0.76116  -0.68475  -0.68062
 Alpha  occ. eigenvalues --   -0.60590  -0.59612  -0.53624  -0.51833  -0.48403
 Alpha  occ. eigenvalues --   -0.46290  -0.43979  -0.42498  -0.40890  -0.40295
 Alpha  occ. eigenvalues --   -0.38718  -0.37196  -0.35752  -0.35429  -0.32476
 Alpha  occ. eigenvalues --   -0.31435  -0.27165  -0.24855  -0.24107
 Alpha virt. eigenvalues --    0.06230   0.07147   0.09387   0.10385   0.11551
 Alpha virt. eigenvalues --    0.11997   0.13561   0.14990   0.15164   0.15836
 Alpha virt. eigenvalues --    0.17458   0.17623   0.19308   0.20716   0.22549

 Mulliken charges:
               1
     1  C   -0.405750
     2  C    0.072370
     3  O   -0.369489
     4  C    0.427187
     5  C   -0.373503
     6  C    0.363521
     7  O   -0.453156
     8  C   -0.314996
     9  C   -0.176285
    10  H    0.122457
    11  H    0.131729
    12  H    0.125129
    13  H    0.093046
    14  H    0.100448
    15  H    0.103365
    16  H    0.286998
    17  H    0.101742
    18  H    0.096521
    19  H    0.068665
 Sum of Mulliken charges =   0.00000

 Dipole moment (field-independent basis, Debye):
    X=              0.1355    Y=              1.5800    Z=              1.0448  Tot=              1.8990
 Quadrupole moment (field-independent basis, Debye-Ang):
   XX=            -54.3737   YY=            -53.9473   ZZ=            -51.3116
   XY=             -3.3953   XZ=              4.1089   YZ=              2.5515

  Exact polarizability:  91.542  -6.270  68.333   2.700   1.606  70.747
 Approx polarizability: 124.889  -1.849 109.049   3.245   1.198 108.435

                      1                      2                      3
                      A                      A                      A
 Frequencies --    173.2139               195.3137               229.5854
 Red. masses --      3.0659                 2.1416                 1.2189
 Frc consts  --      0.0542                 0.0481                 0.0379
 IR Inten    --      0.5588                 3.8591                 2.4122

                      4                      5                      6
                      A                      A                      A
 Frequencies --    271.2750               321.3000               373.2278
 Red. masses --      2.6305                 1.5129                 2.7015
 Frc consts  --      0.1141                 0.0920                 0.2217
 IR Inten    --      5.4088                75.6762                27.8791

                      7                      8                      9
                      A                      A                      A
 Frequencies --    409.3370               419.3905               514.5086
 Red. masses --      3.3206                 3.4835                 2.5641
 Frc consts  --      0.3278                 0.3610                 0.3999
 IR Inten    --      0.4155                 4.5565                 1.3540

                     10                     11                     12
                      A                      A                      A
 Frequencies --    548.5240               578.2493               637.3813
 Red. masses --      3.3867                 2.9430                 4.0498
 Frc consts  --      0.6004                 0.5798                 0.9693
 IR Inten    --      7.0804                 2.6127                 2.0515

                     13                     14                     15
                      A                      A                      A
 Frequencies --    700.2666               750.7778               777.7232
 Red. masses --      3.9995                 3.2103                 4.4918
 Frc consts  --      1.1555                 1.0661                 1.6008
 IR Inten    --      1.5145                 4.1407                53.0739

                     16                     17                     18
                      A                      A                      A
 Frequencies --    797.1085               902.7967               935.3239
 Red. masses --      2.5846                 2.1826                 4.3600
 Frc consts  --      0.9676                 1.0481                 2.2473
 IR Inten    --      0.5722                 0.1753                 9.6755

                     19                     20                     21
                      A                      A                      A
 Frequencies --    993.0685               998.5237              1022.5490
 Red. masses --      1.4252                 1.2593                 2.1662
 Frc consts  --      0.8281                 0.7397                 1.3345
 IR Inten    --      4.3203                 9.1395                35.9483

                     22                     23                     24
                      A                      A                      A
 Frequencies --   1041.9843              1052.6955              1073.3648
 Red. masses --      2.4065                 2.1345                 1.5425
 Frc consts  --      1.5395                 1.3936                 1.0470
 IR Inten    --     33.2262                 6.3310                 2.2830

                     25                     26                     27
                      A                      A                      A
 Frequencies --   1092.6686              1121.2329              1127.2310
 Red. masses --      1.7327                 1.5332                 1.6477
 Frc consts  --      1.2188                 1.1356                 1.2335
 IR Inten    --    112.1639                 8.4694                11.1181

                     28                     29                     30
                      A                      A                      A
 Frequencies --   1129.0828              1159.4635              1204.9088
 Red. masses --      1.6501                 1.9591                 1.7695
 Frc consts  --      1.2394                 1.5517                 1.5136
 IR Inten    --      3.1849                 2.0319                60.8587

                     31                     32                     33
                      A                      A                      A
 Frequencies --   1228.4840              1251.4786              1293.3395
 Red. masses --      2.4628                 1.7454                 2.8022
 Frc consts  --      2.1898                 1.6106                 2.7617
 IR Inten    --     29.6959               210.9289                88.9019

                     34                     35                     36
                      A                      A                      A
 Frequencies --   1331.8732              1364.8627              1404.4639
 Red. masses --      1.3172                 1.4931                 1.3043
 Frc consts  --      1.3767                 1.6388                 1.5159
 IR Inten    --      0.7781                14.5611                 6.8445

                     37                     38                     39
                      A                      A                      A
 Frequencies --   1413.2323              1477.6419              1490.9526
 Red. masses --      1.6858                 1.0475                 1.1005
 Frc consts  --      1.9837                 1.3475                 1.4413
 IR Inten    --      6.5155                 3.4856                 1.5154

                     40                     41                     42
                      A                      A                      A
 Frequencies --   1495.1786              1543.8809              3036.8831
 Red. masses --      1.0583                 1.2516                 1.0353
 Frc consts  --      1.3939                 1.7577                 5.6254
 IR Inten    --      4.5499                 3.7774                13.3565

                     43                     44                     45
                      A                      A                      A
 Frequencies --   3050.4092              3056.1865              3065.6751
 Red. masses --      1.0593                 1.0774                 1.0833
 Frc consts  --      5.8076                 5.9293                 5.9985
 IR Inten    --     43.4762                26.8880                24.0501

                     46                     47                     48
                      A                      A                      A
 Frequencies --   3079.0010              3110.6715              3119.4733
 Red. masses --      1.0595                 1.1010                 1.1020
 Frc consts  --      5.9182                 6.2771                 6.3184
 IR Inten    --     29.9804                14.6772                24.7676

                     49                     50                     51
                      A                      A                      A
 Frequencies --   3130.4773              3145.0765              3808.0032
 Red. masses --      1.1120                 1.1106                 1.0657
 Frc consts  --      6.4203                 6.4722                 9.1053
 IR Inten    --     32.7078                31.2108                33.3651

 - Thermochemistry -
 -------------------
 Temperature   298.150 Kelvin.  Pressure   1.00000 Atm.
 Atom     1 has atomic number  6 and mass  12.00000

 Molecular mass:   126.06808 amu.
 Principal axes and moments of inertia in atomic units:
                           1         2         3
     Eigenvalues --   530.293611396.637131572.76695
           X            0.99883  -0.04822   0.00394
           Y            0.04800   0.99787   0.04411
           Z           -0.00606  -0.04387   0.99902
 This molecule is an asymmetric top.
 Rotational symmetry number  1.
 Warning -- assumption of classical behavior for rotation
           may cause significant error
 Rotational temperatures (Kelvin)      0.16333     0.06202     0.05507
 Rotational constants (GHZ):           3.40329     1.29220     1.14749
 Zero-point vibrational energy     415399.2 (Joules/Mol)
                                   99.28279 (Kcal/Mol)
 Warning -- explicit consideration of  11 degrees of freedom as
           vibrations may cause significant error
 Vibrational temperatures:    249.22   281.01   330.32   390.30   462.28
          (Kelvin)            536.99   588.94   603.41   740.26   789.20
                              831.97   917.05  1007.53  1080.20  1118.97
                             1146.86  1298.92  1345.72  1428.80  1436.65
                             1471.22  1499.18  1514.59  1544.33  1572.10
                             1613.20  1621.83  1624.50  1668.21  1733.59
                             1767.51  1800.60  1860.82  1916.27  1963.73
                             2020.71  2033.32  2125.99  2145.15  2151.23
                             2221.30  4369.39  4388.85  4397.17  4410.82
                             4429.99  4475.56  4488.22  4504.05  4525.06
                             5478.86

 Zero-point correction=                           0.158217 (Hartree/Particle)
 Thermal correction to Energy=                    0.166125
 Thermal correction to Enthalpy=                  0.167069
 Thermal correction to Gibbs Free Energy=         0.126426
 Sum of electronic and zero-point Energies=           -422.895724
 Sum of electronic and thermal Energies=              -422.887816
 Sum of electronic and thermal Enthalpies=            -422.886872
 Sum of electronic and thermal Free Energies=         -422.927515

                     E (Thermal)             CV                S
                      KCal/Mol        Cal/Mol-Kelvin    Cal/Mol-Kelvin
 Total                  104.245             32.337             85.541
 Electronic               0.000              0.000              0.000
 Translational            0.889              2.981             40.409
 Rotational               0.889              2.981             28.545
 Vibrational            102.467             26.375             16.587
 Vibration     1          0.627              1.875              2.400
 Vibration     2          0.636              1.846              2.177
 Vibration     3          0.652              1.796              1.882
 Vibration     4          0.675              1.726              1.588
 Vibration     5          0.707              1.633              1.303
 Vibration     6          0.745              1.527              1.066
 Vibration     7          0.774              1.450              0.929
 Vibration     8          0.782              1.428              0.894
 Vibration     9          0.870              1.218              0.623
 Vibration    10          0.904              1.143              0.547
 Vibration    11          0.935              1.078              0.489

 Optimization completed.
    -- Stationary point found.
 Normal termination of Gaussian 09 at Tue Jan 28 03:41:57 2020.
