 Gaussian 09, Revision D.01,
 Gaussian 09:  ES64L-G09RevD.01 24-Apr-2013

 -----------------------------
 # b3lyp 6-31G(2df,p) opt Freq
 -----------------------------

 -----
 titel
 -----
 Symbolic Z-matrix:
 Charge =  0 Multiplicity = 1

 SCF Done:  E(RB3LYP) =  -423.154135073     A.U. after   13 cycles
 Optimization completed.
    -- Stationary point found.
 Normal termination of Gaussian 09 at Tue Jan 28 01:57:11 2020.

 ----------------------------------------------------------------------
 #N Geom=AllCheck Guess=TCheck SCRF=Check GenChk RB3LYP/6-31G(2df,p) Fr
 eq
 ----------------------------------------------------------------------

 Structure from the checkpoint file:  "/scratch/puck/g09_414c0325-ad6a-4647-be47-36d226f32f7a/Gau-57474.chk"
 -----
 titel
 -----
 Charge =  0 Multiplicity = 1

                         Standard orientation:
 ---------------------------------------------------------------------
 Center     Atomic      Atomic             Coordinates (Angstroms)
 Number     Number       Type             X           Y           Z
 ---------------------------------------------------------------------
      1          6           0       -2.594652    0.771177    0.430416
      2          6           0       -1.660994   -0.416323    0.488600
      3          6           0       -1.322315   -1.186698   -0.778226
      4          6           0       -0.281881   -0.330994   -0.131652
      5          8           0        0.102295    0.838861   -0.825556
      6          6           0        1.242077    1.414022   -0.185594
      7          6           0        1.897398    0.278220    0.572382
      8          8           0        2.101293   -0.887266   -0.230575
      9          6           0        0.927705   -0.819170    0.595419
     10          1           0       -3.640600    0.450138    0.381792
     11          1           0       -2.481065    1.407544    1.315010
     12          1           0       -2.380328    1.384013   -0.448751
     13          1           0       -1.730691   -1.013019    1.396120
     14          1           0       -1.212752   -2.264926   -0.734778
     15          1           0       -1.733848   -0.809730   -1.708855
     16          1           0        1.876909    1.846072   -0.965471
     17          1           0        0.953774    2.209565    0.519474
     18          1           0        2.626282    0.469758    1.354944
     19          1           0        0.849580   -1.553577    1.391496
 ---------------------------------------------------------------------

 SCF Done:  E(RB3LYP) =  -423.154135073     A.U. after    1 cycles

 The electronic state is 1-A.
 Alpha  occ. eigenvalues --  -19.15176 -19.14600 -10.24104 -10.24064 -10.24018
 Alpha  occ. eigenvalues --  -10.23542 -10.19234 -10.18324 -10.17578  -1.08617
 Alpha  occ. eigenvalues --   -1.02934  -0.85880  -0.73172  -0.71826  -0.68211
 Alpha  occ. eigenvalues --   -0.60685  -0.57991  -0.56108  -0.52714  -0.48670
 Alpha  occ. eigenvalues --   -0.47309  -0.45574  -0.43265  -0.41412  -0.39495
 Alpha  occ. eigenvalues --   -0.39187  -0.38741  -0.36206  -0.34791  -0.32701
 Alpha  occ. eigenvalues --   -0.30854  -0.29149  -0.26035  -0.23303
 Alpha virt. eigenvalues --    0.08379   0.09266   0.11291   0.11572   0.12511
 Alpha virt. eigenvalues --    0.13190   0.13707   0.14934   0.15677   0.16496
 Alpha virt. eigenvalues --    0.17691   0.18013   0.18385   0.20415   0.21449

 Mulliken charges:
               1
     1  C   -0.407052
     2  C   -0.080994
     3  C   -0.358898
     4  C    0.447045
     5  O   -0.298291
     6  C   -0.120042
     7  C    0.023754
     8  O   -0.251745
     9  C   -0.069174
    10  H    0.116700
    11  H    0.113348
    12  H    0.134122
    13  H    0.080849
    14  H    0.116817
    15  H    0.126080
    16  H    0.120903
    17  H    0.098165
    18  H    0.103373
    19  H    0.105039
 Sum of Mulliken charges =   0.00000

 Dipole moment (field-independent basis, Debye):
    X=             -0.5197    Y=              0.5473    Z=              2.0798  Tot=              2.2125
 Quadrupole moment (field-independent basis, Debye-Ang):
   XX=            -53.9410   YY=            -51.5496   ZZ=            -52.6985
   XY=              4.4838   XZ=              2.6710   YZ=             -0.5564

  Exact polarizability:  86.968   5.429  75.616   0.859   1.175  64.843
 Approx polarizability: 114.633   7.257 110.448  -2.014   2.549 101.337

                      1                      2                      3
                      A                      A                      A
 Frequencies --    103.9508               151.2805               186.9498
 Red. masses --      3.7702                 2.9331                 1.0655
 Frc consts  --      0.0240                 0.0395                 0.0219
 IR Inten    --      2.1517                 0.8476                 0.6752

                      4                      5                      6
                      A                      A                      A
 Frequencies --    222.9667               302.6828               334.0080
 Red. masses --      2.9629                 2.6960                 3.3391
 Frc consts  --      0.0868                 0.1455                 0.2195
 IR Inten    --      3.0553                 2.1895                 1.4420

                      7                      8                      9
                      A                      A                      A
 Frequencies --    388.2257               433.3845               528.5322
 Red. masses --      3.1788                 2.7569                 4.2074
 Frc consts  --      0.2823                 0.3051                 0.6925
 IR Inten    --      3.5359                 2.4624                 1.7714

                     10                     11                     12
                      A                      A                      A
 Frequencies --    596.4191               734.0924               801.0789
 Red. masses --      3.2854                 5.9715                 3.1264
 Frc consts  --      0.6886                 1.8960                 1.1821
 IR Inten    --      2.3555                 4.2333                10.1713

                     13                     14                     15
                      A                      A                      A
 Frequencies --    822.9701               841.1968               868.7160
 Red. masses --      2.3498                 4.1944                 1.7455
 Frc consts  --      0.9377                 1.7487                 0.7761
 IR Inten    --     13.3497                21.0610                 7.3015

                     16                     17                     18
                      A                      A                      A
 Frequencies --    884.4831               907.6940               934.8348
 Red. masses --      1.6957                 1.7946                 3.4038
 Frc consts  --      0.7816                 0.8712                 1.7526
 IR Inten    --     34.2775                 4.7314                11.8496

                     19                     20                     21
                      A                      A                      A
 Frequencies --    946.9044               981.5031              1011.1836
 Red. masses --      2.8814                 1.5324                 1.3119
 Frc consts  --      1.5222                 0.8698                 0.7903
 IR Inten    --      7.0509                12.7395                 6.6672

                     22                     23                     24
                      A                      A                      A
 Frequencies --   1044.1455              1063.4776              1084.8176
 Red. masses --      1.7631                 1.4731                 2.7624
 Frc consts  --      1.1325                 0.9816                 1.9154
 IR Inten    --     37.9223                 3.4387                48.1575

                     25                     26                     27
                      A                      A                      A
 Frequencies --   1115.5369              1116.6372              1134.8380
 Red. masses --      2.7302                 1.5801                 1.7313
 Frc consts  --      2.0017                 1.1608                 1.3137
 IR Inten    --     14.1570                 4.3255                 1.0484

                     28                     29                     30
                      A                      A                      A
 Frequencies --   1185.5331              1221.8475              1241.6125
 Red. masses --      1.6886                 1.2532                 1.3577
 Frc consts  --      1.3983                 1.1023                 1.2332
 IR Inten    --      1.8035                 1.6892                 3.3266

                     31                     32                     33
                      A                      A                      A
 Frequencies --   1253.9445              1280.8860              1330.5404
 Red. masses --      1.7704                 1.9195                 1.5796
 Frc consts  --      1.6401                 1.8555                 1.6476
 IR Inten    --     34.0828                28.3041                 0.9548

                     34                     35                     36
                      A                      A                      A
 Frequencies --   1369.4973              1402.8497              1424.0133
 Red. masses --      1.7705                 1.3606                 1.6323
 Frc consts  --      1.9564                 1.5777                 1.9502
 IR Inten    --      3.6671                 1.5248                 1.7824

                     37                     38                     39
                      A                      A                      A
 Frequencies --   1445.1042              1487.9628              1496.1870
 Red. masses --      1.9143                 1.3505                 1.1235
 Frc consts  --      2.3553                 1.7617                 1.4818
 IR Inten    --      6.9237                10.2307                 0.9401

                     40                     41                     42
                      A                      A                      A
 Frequencies --   1505.6919              1507.3541              2985.1792
 Red. masses --      1.0818                 1.3121                 1.0691
 Frc consts  --      1.4450                 1.7565                 5.6129
 IR Inten    --      2.0480                 6.1576                61.6456

                     43                     44                     45
                      A                      A                      A
 Frequencies --   3032.7529              3078.8774              3090.0841
 Red. masses --      1.0367                 1.0939                 1.1012
 Frc consts  --      5.6182                 6.1097                 6.1950
 IR Inten    --     37.4206                29.9735                25.3334

                     46                     47                     48
                      A                      A                      A
 Frequencies --   3113.8451              3129.6704              3130.5469
 Red. masses --      1.0916                 1.0946                 1.0547
 Frc consts  --      6.2358                 6.3170                 6.0903
 IR Inten    --      1.6618                25.5697                 8.7993

                     49                     50                     51
                      A                      A                      A
 Frequencies --   3153.6729              3167.0108              3219.1116
 Red. masses --      1.0879                 1.0966                 1.1167
 Frc consts  --      6.3747                 6.4803                 6.8181
 IR Inten    --     17.1870                21.9133                 5.6741

 - Thermochemistry -
 -------------------
 Temperature   298.150 Kelvin.  Pressure   1.00000 Atm.
 Atom     1 has atomic number  6 and mass  12.00000

 Molecular mass:   126.06808 amu.
 Principal axes and moments of inertia in atomic units:
                           1         2         3
     Eigenvalues --   541.391291316.613771533.72196
           X            0.99991   0.01290   0.00422
           Y           -0.01297   0.99980   0.01512
           Z           -0.00403  -0.01517   0.99988
 This molecule is an asymmetric top.
 Rotational symmetry number  1.
 Warning -- assumption of classical behavior for rotation
           may cause significant error
 Rotational temperatures (Kelvin)      0.15998     0.06579     0.05647
 Rotational constants (GHZ):           3.33352     1.37074     1.17671
 Zero-point vibrational energy     417474.5 (Joules/Mol)
                                   99.77880 (Kcal/Mol)
 Warning -- explicit consideration of  10 degrees of freedom as
           vibrations may cause significant error
 Vibrational temperatures:    149.56   217.66   268.98   320.80   435.49
          (Kelvin)            480.56   558.57   623.54   760.44   858.11
                             1056.19  1152.57  1184.07  1210.29  1249.89
                             1272.57  1305.97  1345.02  1362.38  1412.16
                             1454.87  1502.29  1530.11  1560.81  1605.01
                             1606.59  1632.78  1705.72  1757.96  1786.40
                             1804.14  1842.91  1914.35  1970.40  2018.39
                             2048.84  2079.18  2140.84  2152.68  2166.35
                             2168.74  4295.00  4363.45  4429.81  4445.94
                             4480.12  4502.89  4504.15  4537.43  4556.62
                             4631.58

 Zero-point correction=                           0.159008 (Hartree/Particle)
 Thermal correction to Energy=                    0.167018
 Thermal correction to Enthalpy=                  0.167962
 Thermal correction to Gibbs Free Energy=         0.126588
 Sum of electronic and zero-point Energies=           -422.995127
 Sum of electronic and thermal Energies=              -422.987117
 Sum of electronic and thermal Enthalpies=            -422.986173
 Sum of electronic and thermal Free Energies=         -423.027548

                     E (Thermal)             CV                S
                      KCal/Mol        Cal/Mol-Kelvin    Cal/Mol-Kelvin
 Total                  104.805             31.175             87.079
 Electronic               0.000              0.000              0.000
 Translational            0.889              2.981             40.409
 Rotational               0.889              2.981             28.482
 Vibrational            103.028             25.214             18.189
 Vibration     1          0.605              1.946              3.379
 Vibration     2          0.619              1.901              2.656
 Vibration     3          0.632              1.858              2.258
 Vibration     4          0.649              1.806              1.935
 Vibration     5          0.694              1.669              1.402
 Vibration     6          0.716              1.608              1.241
 Vibration     7          0.756              1.495              1.007
 Vibration     8          0.794              1.397              0.848
 Vibration     9          0.883              1.187              0.590
 Vibration    10          0.954              1.039              0.456

 Optimization completed.
    -- Stationary point found.
 Normal termination of Gaussian 09 at Tue Jan 28 02:43:13 2020.
