 Gaussian 09, Revision D.01,
 Gaussian 09:  ES64L-G09RevD.01 24-Apr-2013

 -----------------------------
 # b3lyp 6-31G(2df,p) opt Freq
 -----------------------------

 -----
 titel
 -----
 Symbolic Z-matrix:
 Charge =  0 Multiplicity = 1

 SCF Done:  E(RB3LYP) =  -423.108007142     A.U. after   14 cycles
 Optimization completed.
    -- Stationary point found.
 Normal termination of Gaussian 09 at Tue Jan 28 08:20:53 2020.

 ----------------------------------------------------------------------
 #N Geom=AllCheck Guess=TCheck SCRF=Check GenChk RB3LYP/6-31G(2df,p) Fr
 eq
 ----------------------------------------------------------------------

 Structure from the checkpoint file:  "/scratch/puck/g09_5aa5c536-bdf0-4ed4-843c-3169cc65f881/Gau-106654.chk"
 -----
 titel
 -----
 Charge =  0 Multiplicity = 1

                         Standard orientation:
 ---------------------------------------------------------------------
 Center     Atomic      Atomic             Coordinates (Angstroms)
 Number     Number       Type             X           Y           Z
 ---------------------------------------------------------------------
      1          6           0        0.282622    2.403382   -0.150979
      2          8           0       -0.315015    1.309533    0.512060
      3          6           0        0.018127    0.042243   -0.016918
      4          6           0       -1.035683   -0.955791    0.493356
      5          6           0       -2.368624   -0.697242   -0.033900
      6          6           0       -3.462024   -0.489760   -0.486739
      7          6           0        1.406667   -0.385899    0.427518
      8          6           0        2.573575   -0.326230   -0.462298
      9          8           0        1.917943   -1.566076   -0.194202
     10          1           0        0.041744    2.403382   -1.224720
     11          1           0       -0.125736    3.310076    0.301320
     12          1           0        1.376046    2.416904   -0.039603
     13          1           0       -0.012380    0.059029   -1.117901
     14          1           0       -0.708775   -1.964590    0.216658
     15          1           0       -1.049412   -0.908996    1.589551
     16          1           0       -4.432021   -0.306140   -0.877001
     17          1           0        1.571281   -0.329510    1.505263
     18          1           0        2.455915    0.052159   -1.477030
     19          1           0        3.571950   -0.224183   -0.039634
 ---------------------------------------------------------------------

 SCF Done:  E(RB3LYP) =  -423.108007142     A.U. after    1 cycles

 The electronic state is 1-A.
 Alpha  occ. eigenvalues --  -19.16036 -19.14796 -10.24619 -10.24309 -10.24254
 Alpha  occ. eigenvalues --  -10.22967 -10.20691 -10.17681 -10.16532  -1.08083
 Alpha  occ. eigenvalues --   -1.04084  -0.80455  -0.73691  -0.68668  -0.68254
 Alpha  occ. eigenvalues --   -0.65197  -0.59380  -0.52775  -0.51999  -0.49827
 Alpha  occ. eigenvalues --   -0.48444  -0.46676  -0.44254  -0.44002  -0.41231
 Alpha  occ. eigenvalues --   -0.40174  -0.38731  -0.37240  -0.32699  -0.31300
 Alpha  occ. eigenvalues --   -0.28552  -0.26376  -0.25860  -0.25528
 Alpha virt. eigenvalues --    0.05466   0.06213   0.07991   0.09340   0.10716
 Alpha virt. eigenvalues --    0.11167   0.12100   0.13511   0.14020   0.15043
 Alpha virt. eigenvalues --    0.15580   0.17686   0.18250   0.19014   0.19830

 Mulliken charges:
               1
     1  C   -0.238734
     2  O   -0.237084
     3  C    0.088456
     4  C   -0.374263
     5  C    0.305553
     6  C   -0.443030
     7  C    0.065754
     8  C   -0.182513
     9  O   -0.235275
    10  H    0.110383
    11  H    0.132787
    12  H    0.108749
    13  H    0.081207
    14  H    0.150202
    15  H    0.135536
    16  H    0.192762
    17  H    0.101497
    18  H    0.117497
    19  H    0.120514
 Sum of Mulliken charges =   0.00000

 Dipole moment (field-independent basis, Debye):
    X=              1.3456    Y=              1.6471    Z=             -0.4339  Tot=              2.1707
 Quadrupole moment (field-independent basis, Debye-Ang):
   XX=            -49.8972   YY=            -54.9025   ZZ=            -52.1101
   XY=              3.3176   XZ=              1.6822   YZ=             -2.5704

  Exact polarizability: 100.993  -0.770  68.720   4.651  -2.363  63.228
 Approx polarizability: 136.400  -5.778  97.863   9.843  -2.604  99.611

                      1                      2                      3
                      A                      A                      A
 Frequencies --     59.3154                72.4298                77.9416
 Red. masses --      3.6020                 2.6606                 3.3529
 Frc consts  --      0.0075                 0.0082                 0.0120
 IR Inten    --      1.1707                 2.4657                 1.5590

                      4                      5                      6
                      A                      A                      A
 Frequencies --    124.9691               174.1208               215.2295
 Red. masses --      2.8788                 1.6584                 2.4177
 Frc consts  --      0.0265                 0.0296                 0.0660
 IR Inten    --      0.1474                 1.8964                 5.8820

                      7                      8                      9
                      A                      A                      A
 Frequencies --    245.2821               331.7164               345.5723
 Red. masses --      2.8494                 3.3134                 3.3646
 Frc consts  --      0.1010                 0.2148                 0.2367
 IR Inten    --      1.2007                 9.5208                 4.8119

                     10                     11                     12
                      A                      A                      A
 Frequencies --    369.5080               434.1204               498.5429
 Red. masses --      3.0830                 4.5170                 5.3479
 Frc consts  --      0.2480                 0.5016                 0.7831
 IR Inten    --      2.4141                 1.3360                 1.2275

                     13                     14                     15
                      A                      A                      A
 Frequencies --    575.4946               611.6253               642.5281
 Red. masses --      3.1527                 1.2043                 1.2165
 Frc consts  --      0.6152                 0.2654                 0.2959
 IR Inten    --      3.8345                42.3217                43.7664

                     16                     17                     18
                      A                      A                      A
 Frequencies --    833.5221               866.1732               874.5835
 Red. masses --      2.1677                 3.0800                 3.3311
 Frc consts  --      0.8873                 1.3615                 1.5012
 IR Inten    --      9.2307                22.8941                18.0604

                     19                     20                     21
                      A                      A                      A
 Frequencies --    936.3146               979.3350              1033.0642
 Red. masses --      2.3895                 3.2617                 2.9717
 Frc consts  --      1.2343                 1.8431                 1.8686
 IR Inten    --     12.6690                10.1754                15.9088

                     22                     23                     24
                      A                      A                      A
 Frequencies --   1064.5899              1099.2608              1132.0099
 Red. masses --      1.9767                 1.6517                 2.0234
 Frc consts  --      1.3200                 1.1759                 1.5277
 IR Inten    --      7.5198                 8.8512                 1.0089

                     25                     26                     27
                      A                      A                      A
 Frequencies --   1152.2601              1159.8542              1175.3356
 Red. masses --      3.6550                 1.4824                 1.4206
 Frc consts  --      2.8592                 1.1749                 1.1562
 IR Inten    --    119.2997                13.0164                 4.2899

                     28                     29                     30
                      A                      A                      A
 Frequencies --   1182.1104              1204.9491              1256.0569
 Red. masses --      1.3102                 1.3407                 1.3825
 Frc consts  --      1.0787                 1.1469                 1.2850
 IR Inten    --      4.6415                23.6515                17.2520

                     31                     32                     33
                      A                      A                      A
 Frequencies --   1279.5514              1290.5755              1346.3704
 Red. masses --      1.5681                 1.2602                 1.3934
 Frc consts  --      1.5127                 1.2367                 1.4882
 IR Inten    --     10.9464                 3.4526                15.7837

                     34                     35                     36
                      A                      A                      A
 Frequencies --   1371.9274              1444.4901              1461.0078
 Red. masses --      1.3790                 1.7601                 1.0989
 Frc consts  --      1.5292                 2.1638                 1.3820
 IR Inten    --     14.6076                 0.2030                 3.9189

                     37                     38                     39
                      A                      A                      A
 Frequencies --   1480.6209              1489.2030              1508.6356
 Red. masses --      1.1342                 1.0635                 1.0574
 Frc consts  --      1.4649                 1.3897                 1.4179
 IR Inten    --      2.0649                 2.8166                 7.8069

                     40                     41                     42
                      A                      A                      A
 Frequencies --   1525.0735              2242.9638              2980.7167
 Red. masses --      1.3477                 5.9297                 1.0636
 Frc consts  --      1.8468                17.5763                 5.5678
 IR Inten    --      2.2842                 2.8969                20.9040

                     43                     44                     45
                      A                      A                      A
 Frequencies --   2987.8238              3031.3354              3036.3286
 Red. masses --      1.0546                 1.0601                 1.1028
 Frc consts  --      5.5469                 5.7395                 5.9904
 IR Inten    --     48.8406                13.0233                49.0724

                     46                     47                     48
                      A                      A                      A
 Frequencies --   3075.4989              3082.4357              3098.7840
 Red. masses --      1.0999                 1.0498                 1.0884
 Frc consts  --      6.1294                 5.8771                 6.1577
 IR Inten    --      4.7404                26.2442                20.7903

                     49                     50                     51
                      A                      A                      A
 Frequencies --   3118.5571              3170.6427              3508.0224
 Red. masses --      1.0971                 1.1196                 1.1624
 Frc consts  --      6.2863                 6.6312                 8.4281
 IR Inten    --     25.7997                24.6243                65.3172

 - Thermochemistry -
 -------------------
 Temperature   298.150 Kelvin.  Pressure   1.00000 Atm.
 Atom     1 has atomic number  6 and mass  12.00000

 Molecular mass:   126.06808 amu.
 Principal axes and moments of inertia in atomic units:
                           1         2         3
     Eigenvalues --   758.848831641.509942213.22400
           X            0.99975   0.02253   0.00086
           Y           -0.02250   0.99939  -0.02667
           Z           -0.00147   0.02664   0.99964
 This molecule is an asymmetric top.
 Rotational symmetry number  1.
 Warning -- assumption of classical behavior for rotation
           may cause significant error
 Rotational temperatures (Kelvin)      0.11414     0.05276     0.03913
 Rotational constants (GHZ):           2.37826     1.09944     0.81544
 Zero-point vibrational energy     408275.8 (Joules/Mol)
                                   97.58025 (Kcal/Mol)
 Warning -- explicit consideration of  14 degrees of freedom as
           vibrations may cause significant error
 Vibrational temperatures:     85.34   104.21   112.14   179.80   250.52
          (Kelvin)            309.67   352.91   477.27   497.20   531.64
                              624.60   717.29   828.01   879.99   924.45
                             1199.25  1246.23  1258.33  1347.15  1409.04
                             1486.35  1531.71  1581.59  1628.71  1657.84
                             1668.77  1691.04  1700.79  1733.65  1807.18
                             1840.99  1856.85  1937.12  1973.90  2078.30
                             2102.06  2130.28  2142.63  2170.59  2194.24
                             3227.12  4288.58  4298.81  4361.41  4368.59
                             4424.95  4434.93  4458.45  4486.90  4561.84
                             5047.26

 Zero-point correction=                           0.155504 (Hartree/Particle)
 Thermal correction to Energy=                    0.165661
 Thermal correction to Enthalpy=                  0.166605
 Thermal correction to Gibbs Free Energy=         0.119445
 Sum of electronic and zero-point Energies=           -422.952503
 Sum of electronic and thermal Energies=              -422.942346
 Sum of electronic and thermal Enthalpies=            -422.941402
 Sum of electronic and thermal Free Energies=         -422.988562

                     E (Thermal)             CV                S
                      KCal/Mol        Cal/Mol-Kelvin    Cal/Mol-Kelvin
 Total                  103.954             35.712             99.256
 Electronic               0.000              0.000              0.000
 Translational            0.889              2.981             40.409
 Rotational               0.889              2.981             29.401
 Vibrational            102.176             29.750             29.446
 Vibration     1          0.597              1.974              4.480
 Vibration     2          0.599              1.967              4.086
 Vibration     3          0.599              1.964              3.942
 Vibration     4          0.610              1.928              3.022
 Vibration     5          0.627              1.874              2.391
 Vibration     6          0.645              1.818              1.999
 Vibration     7          0.660              1.771              1.764
 Vibration     8          0.714              1.612              1.252
 Vibration     9          0.724              1.584              1.186
 Vibration    10          0.742              1.535              1.082
 Vibration    11          0.795              1.396              0.845
 Vibration    12          0.854              1.253              0.662
 Vibration    13          0.932              1.084              0.494
 Vibration    14          0.971              1.007              0.430

 Optimization completed.
    -- Stationary point found.
 Normal termination of Gaussian 09 at Tue Jan 28 09:03:15 2020.
