 Gaussian 09, Revision D.01,
 Gaussian 09:  ES64L-G09RevD.01 24-Apr-2013

 -----------------------------
 # b3lyp 6-31G(2df,p) opt Freq
 -----------------------------

 -----
 titel
 -----
 Symbolic Z-matrix:
 Charge =  0 Multiplicity = 1

 SCF Done:  E(RB3LYP) =  -423.130292620     A.U. after   14 cycles
 Optimization completed.
    -- Stationary point found.
 Normal termination of Gaussian 09 at Tue Jan 28 14:09:51 2020.

 ----------------------------------------------------------------------
 #N Geom=AllCheck Guess=TCheck SCRF=Check GenChk RB3LYP/6-31G(2df,p) Fr
 eq
 ----------------------------------------------------------------------

 Structure from the checkpoint file:  "/scratch/puck/g09_635528c5-b82c-4e8f-981c-a37347d0e359/Gau-3923.chk"
 -----
 titel
 -----
 Charge =  0 Multiplicity = 1

                         Standard orientation:
 ---------------------------------------------------------------------
 Center     Atomic      Atomic             Coordinates (Angstroms)
 Number     Number       Type             X           Y           Z
 ---------------------------------------------------------------------
      1          8           0        3.474897    0.063173   -0.004296
      2          6           0        2.139038   -0.414714    0.027831
      3          6           0        1.116191    0.723480    0.095955
      4          6           0       -0.317388    0.260880    0.100439
      5          6           0       -0.920028   -0.865299    1.013258
      6          6           0       -1.877836   -0.867381   -0.212045
      7          8           0       -0.715131   -0.574292   -1.051912
      8          6           0       -2.535212    0.522017   -0.092730
      9          6           0       -1.470171    1.293368    0.123260
     10          1           0        3.604543    0.515069   -0.844076
     11          1           0        1.912887   -1.059968   -0.831960
     12          1           0        2.071421   -1.035787    0.927163
     13          1           0        1.304321    1.329105    0.990445
     14          1           0        1.257072    1.385689   -0.769956
     15          1           0       -0.293589   -1.759338    1.059693
     16          1           0       -1.316601   -0.589119    1.992286
     17          1           0       -2.461970   -1.729599   -0.529487
     18          1           0       -3.586071    0.760805   -0.162479
     19          1           0       -1.377709    2.357995    0.282223
 ---------------------------------------------------------------------

 SCF Done:  E(RB3LYP) =  -423.130292620     A.U. after    1 cycles

 The electronic state is 1-A.
 Alpha  occ. eigenvalues --  -19.13183 -19.12732 -10.24762 -10.24210 -10.22369
 Alpha  occ. eigenvalues --  -10.19110 -10.18661 -10.18571 -10.18525  -1.04452
 Alpha  occ. eigenvalues --   -1.01257  -0.80499  -0.77395  -0.71122  -0.67554
 Alpha  occ. eigenvalues --   -0.61922  -0.55171  -0.54286  -0.50453  -0.49892
 Alpha  occ. eigenvalues --   -0.46999  -0.45449  -0.42149  -0.41172  -0.39748
 Alpha  occ. eigenvalues --   -0.39161  -0.36920  -0.35434  -0.33393  -0.32000
 Alpha  occ. eigenvalues --   -0.31472  -0.26599  -0.25271  -0.23567
 Alpha virt. eigenvalues --   -0.00043   0.07803   0.10100   0.11091   0.11835
 Alpha virt. eigenvalues --    0.12700   0.13610   0.15063   0.15594   0.16301
 Alpha virt. eigenvalues --    0.17127   0.18247   0.20094   0.20330   0.22880

 Mulliken charges:
               1
     1  O   -0.419450
     2  C   -0.067660
     3  C   -0.349994
     4  C    0.382668
     5  C   -0.260103
     6  C    0.014806
     7  O   -0.320113
     8  C   -0.087977
     9  C   -0.121327
    10  H    0.281495
    11  H    0.112434
    12  H    0.111159
    13  H    0.113095
    14  H    0.102712
    15  H    0.107676
    16  H    0.098333
    17  H    0.081195
    18  H    0.111873
    19  H    0.109177
 Sum of Mulliken charges =   0.00000

 Dipole moment (field-independent basis, Debye):
    X=             -1.4366    Y=              0.7411    Z=              0.4247  Tot=              1.6713
 Quadrupole moment (field-independent basis, Debye-Ang):
   XX=            -54.7082   YY=            -50.5856   ZZ=            -54.2708
   XY=              2.4956   XZ=             -5.0437   YZ=             -1.5292

  Exact polarizability:  90.982   3.383  73.809   0.858  -0.490  60.222
 Approx polarizability: 123.524  11.372 113.026   2.555   2.241  97.645

                      1                      2                      3
                      A                      A                      A
 Frequencies --     73.1199                90.2553               138.3381
 Red. masses --      2.0511                 3.3655                 4.3848
 Frc consts  --      0.0065                 0.0162                 0.0494
 IR Inten    --      3.3383                 4.1429                 0.1746

                      4                      5                      6
                      A                      A                      A
 Frequencies --    291.0432               300.7675               344.5806
 Red. masses --      1.5362                 1.5718                 4.8486
 Frc consts  --      0.0767                 0.0838                 0.3392
 IR Inten    --     57.8273                35.6072                 3.2636

                      7                      8                      9
                      A                      A                      A
 Frequencies --    361.7298               477.1900               533.4598
 Red. masses --      3.9403                 1.8574                 2.9158
 Frc consts  --      0.3038                 0.2492                 0.4889
 IR Inten    --     22.0157                 5.4380                 2.1423

                     10                     11                     12
                      A                      A                      A
 Frequencies --    613.9445               708.4428               710.4036
 Red. masses --      3.0917                 1.9683                 3.1063
 Frc consts  --      0.6866                 0.5820                 0.9236
 IR Inten    --      2.6190                17.1293                12.7872

                     13                     14                     15
                      A                      A                      A
 Frequencies --    753.3234               757.3136               833.7025
 Red. masses --      1.6562                 3.5194                 2.5707
 Frc consts  --      0.5538                 1.1892                 1.0528
 IR Inten    --      4.3838                 2.1689                22.7392

                     16                     17                     18
                      A                      A                      A
 Frequencies --    858.5618               875.0852               894.5617
 Red. masses --      2.9395                 2.2890                 2.6347
 Frc consts  --      1.2766                 1.0328                 1.2422
 IR Inten    --      6.7306                 9.9900                22.3186

                     19                     20                     21
                      A                      A                      A
 Frequencies --    904.4126               962.7324               973.8683
 Red. masses --      1.4261                 3.4361                 2.6641
 Frc consts  --      0.6873                 1.8764                 1.4887
 IR Inten    --      0.4994                10.6766                19.5060

                     22                     23                     24
                      A                      A                      A
 Frequencies --   1033.6447              1047.0048              1076.2264
 Red. masses --      2.3544                 1.2240                 3.3075
 Frc consts  --      1.4821                 0.7906                 2.2572
 IR Inten    --     21.6189                12.4243               121.2251

                     25                     26                     27
                      A                      A                      A
 Frequencies --   1078.1882              1087.5884              1128.6252
 Red. masses --      1.7994                 1.5625                 1.7298
 Frc consts  --      1.2325                 1.0890                 1.2982
 IR Inten    --     12.3882                 2.7825                 3.6241

                     28                     29                     30
                      A                      A                      A
 Frequencies --   1174.6272              1214.5346              1236.4685
 Red. masses --      1.2933                 1.5283                 1.4815
 Frc consts  --      1.0513                 1.3282                 1.3345
 IR Inten    --      2.4842                13.0177                 4.0631

                     31                     32                     33
                      A                      A                      A
 Frequencies --   1259.6793              1275.9811              1304.9546
 Red. masses --      1.5374                 1.5566                 1.5816
 Frc consts  --      1.4373                 1.4932                 1.5868
 IR Inten    --      0.8347                 2.7634                 8.0082

                     34                     35                     36
                      A                      A                      A
 Frequencies --   1322.8191              1355.5872              1404.2434
 Red. masses --      1.1744                 2.2047                 1.3973
 Frc consts  --      1.2108                 2.3870                 1.6234
 IR Inten    --      9.6093                27.3562                 6.6652

                     37                     38                     39
                      A                      A                      A
 Frequencies --   1422.5699              1469.2080              1488.6154
 Red. masses --      1.3701                 1.0861                 1.1588
 Frc consts  --      1.6337                 1.3814                 1.5130
 IR Inten    --     45.2762                 2.9196                 1.8490

                     40                     41                     42
                      A                      A                      A
 Frequencies --   1515.0982              1621.2433              3012.3533
 Red. masses --      1.0900                 6.1604                 1.0620
 Frc consts  --      1.4742                 9.5402                 5.6777
 IR Inten    --      0.3592                 0.7251                 6.6540

                     43                     44                     45
                      A                      A                      A
 Frequencies --   3016.8062              3060.6004              3064.1908
 Red. masses --      1.0671                 1.0861                 1.0620
 Frc consts  --      5.7221                 5.9943                 5.8752
 IR Inten    --     42.8480                 7.4024                24.9147

                     46                     47                     48
                      A                      A                      A
 Frequencies --   3084.2458              3135.2157              3138.7732
 Red. masses --      1.1020                 1.1089                 1.0941
 Frc consts  --      6.1762                 6.4218                 6.3507
 IR Inten    --     48.2868                27.8608                44.5408

                     49                     50                     51
                      A                      A                      A
 Frequencies --   3228.0550              3256.4603              3816.7729
 Red. masses --      1.0865                 1.1119                 1.0662
 Frc consts  --      6.6703                 6.9473                 9.1512
 IR Inten    --      2.6939                 6.7712                18.2275

 - Thermochemistry -
 -------------------
 Temperature   298.150 Kelvin.  Pressure   1.00000 Atm.
 Atom     1 has atomic number  8 and mass  15.99491

 Molecular mass:   126.06808 amu.
 Principal axes and moments of inertia in atomic units:
                           1         2         3
     Eigenvalues --   411.139821840.824101964.06533
           X            0.99996   0.00132  -0.00876
           Y           -0.00179   0.99859  -0.05310
           Z            0.00867   0.05312   0.99855
 This molecule is an asymmetric top.
 Rotational symmetry number  1.
 Rotational temperatures (Kelvin)      0.21067     0.04705     0.04410
 Rotational constants (GHZ):           4.38960     0.98040     0.91888
 Zero-point vibrational energy     417420.3 (Joules/Mol)
                                   99.76584 (Kcal/Mol)
 Warning -- explicit consideration of  10 degrees of freedom as
           vibrations may cause significant error
 Vibrational temperatures:    105.20   129.86   199.04   418.75   432.74
          (Kelvin)            495.77   520.45   686.57   767.53   883.33
                             1019.29  1022.11  1083.86  1089.60  1199.51
                             1235.28  1259.05  1287.07  1301.25  1385.16
                             1401.18  1487.18  1506.40  1548.45  1551.27
                             1564.80  1623.84  1690.02  1747.44  1779.00
                             1812.40  1835.85  1877.54  1903.24  1950.39
                             2020.39  2046.76  2113.86  2141.78  2179.89
                             2332.60  4334.10  4340.51  4403.52  4408.68
                             4437.54  4510.87  4515.99  4644.45  4685.31
                             5491.48

 Zero-point correction=                           0.158987 (Hartree/Particle)
 Thermal correction to Energy=                    0.167274
 Thermal correction to Enthalpy=                  0.168218
 Thermal correction to Gibbs Free Energy=         0.125702
 Sum of electronic and zero-point Energies=           -422.971306
 Sum of electronic and thermal Energies=              -422.963019
 Sum of electronic and thermal Enthalpies=            -422.962075
 Sum of electronic and thermal Free Energies=         -423.004591

                     E (Thermal)             CV                S
                      KCal/Mol        Cal/Mol-Kelvin    Cal/Mol-Kelvin
 Total                  104.966             32.012             89.482
 Electronic               0.000              0.000              0.000
 Translational            0.889              2.981             40.409
 Rotational               0.889              2.981             28.787
 Vibrational            103.188             26.050             20.286
 Vibration     1          0.599              1.967              4.068
 Vibration     2          0.602              1.956              3.655
 Vibration     3          0.614              1.915              2.827
 Vibration     4          0.687              1.690              1.468
 Vibration     5          0.693              1.672              1.413
 Vibration     6          0.723              1.586              1.191
 Vibration     7          0.736              1.551              1.115
 Vibration     8          0.834              1.301              0.718
 Vibration     9          0.888              1.176              0.580
 Vibration    10          0.973              1.002              0.426

 Normal termination of Gaussian 09 at Tue Jan 28 14:59:00 2020.
