 Gaussian 09, Revision D.01,
 Gaussian 09:  ES64L-G09RevD.01 24-Apr-2013

 -----------------------------
 # b3lyp 6-31G(2df,p) opt Freq
 -----------------------------

 -----
 titel
 -----
 Symbolic Z-matrix:
 Charge =  0 Multiplicity = 1

 SCF Done:  E(RB3LYP) =  -423.197406678     A.U. after   14 cycles
 Optimization completed.
    -- Stationary point found.
 Normal termination of Gaussian 09 at Tue Jan 28 04:08:43 2020.

 ----------------------------------------------------------------------
 #N Geom=AllCheck Guess=TCheck SCRF=Check GenChk RB3LYP/6-31G(2df,p) Fr
 eq
 ----------------------------------------------------------------------

 Structure from the checkpoint file:  "/scratch/puck/g09_cfe5c9da-697f-4dde-ab84-aa25f7067cb1/Gau-9816.chk"
 -----
 titel
 -----
 Charge =  0 Multiplicity = 1

                         Standard orientation:
 ---------------------------------------------------------------------
 Center     Atomic      Atomic             Coordinates (Angstroms)
 Number     Number       Type             X           Y           Z
 ---------------------------------------------------------------------
      1          6           0        2.168529   -0.981079   -0.936503
      2          6           0        1.648173    0.202235   -0.120728
      3          8           0        1.257856   -0.181901    1.201616
      4          6           0       -0.123635   -0.540239    1.199859
      5          6           0       -0.763427    0.309735    0.117874
      6          6           0       -0.369418    1.780539    0.114738
      7          6           0        0.402111    0.831071   -0.732909
      8          6           0       -2.027599   -0.106372   -0.512443
      9          8           0       -2.652340   -1.094571   -0.207787
     10          1           0        1.382811   -1.724112   -1.106649
     11          1           0        2.536257   -0.645901   -1.912201
     12          1           0        2.992297   -1.465541   -0.405900
     13          1           0        2.450685    0.938684    0.009671
     14          1           0       -0.279289   -1.603908    0.974469
     15          1           0       -0.510997   -0.343004    2.203948
     16          1           0       -1.044148    2.468578   -0.384031
     17          1           0        0.087190    2.156840    1.024326
     18          1           0        0.315998    0.880327   -1.812557
     19          1           0       -2.383336    0.574469   -1.321029
 ---------------------------------------------------------------------

 SCF Done:  E(RB3LYP) =  -423.197406678     A.U. after    1 cycles

 The electronic state is 1-A.
 Alpha  occ. eigenvalues --  -19.14348 -19.13616 -10.27231 -10.24452 -10.23289
 Alpha  occ. eigenvalues --  -10.21488 -10.21305 -10.20869 -10.18186  -1.04648
 Alpha  occ. eigenvalues --   -1.04058  -0.88257  -0.77568  -0.70707  -0.65621
 Alpha  occ. eigenvalues --   -0.64218  -0.58483  -0.55843  -0.51128  -0.49046
 Alpha  occ. eigenvalues --   -0.47566  -0.44554  -0.43121  -0.42071  -0.41156
 Alpha  occ. eigenvalues --   -0.40550  -0.39165  -0.38931  -0.36281  -0.32669
 Alpha  occ. eigenvalues --   -0.31279  -0.29471  -0.26348  -0.24885
 Alpha virt. eigenvalues --   -0.02298   0.08364   0.09917   0.10867   0.11135
 Alpha virt. eigenvalues --    0.12568   0.13976   0.14705   0.15598   0.16242
 Alpha virt. eigenvalues --    0.16514   0.18242   0.19016   0.20552   0.21829

 Mulliken charges:
               1
     1  C   -0.403001
     2  C    0.115766
     3  O   -0.273223
     4  C   -0.162071
     5  C    0.238559
     6  C   -0.352870
     7  C   -0.093345
     8  C    0.073104
     9  O   -0.269401
    10  H    0.125450
    11  H    0.115395
    12  H    0.129543
    13  H    0.089974
    14  H    0.116358
    15  H    0.117233
    16  H    0.123914
    17  H    0.138924
    18  H    0.102943
    19  H    0.066748
 Sum of Mulliken charges =   0.00000

 Dipole moment (field-independent basis, Debye):
    X=              1.4578    Y=              2.1232    Z=             -1.4144  Tot=              2.9383
 Quadrupole moment (field-independent basis, Debye-Ang):
   XX=            -59.6770   YY=            -53.5550   ZZ=            -52.4200
   XY=             -5.0761   XZ=             -2.3433   YZ=             -0.4706

  Exact polarizability:  85.699   3.508  75.245  -1.665  -2.641  68.229
 Approx polarizability: 120.091  15.721 117.324  -3.370  -6.376 103.128

                      1                      2                      3
                      A                      A                      A
 Frequencies --     81.5376               172.7941               186.5957
 Red. masses --      4.9068                 3.1449                 2.6376
 Frc consts  --      0.0192                 0.0553                 0.0541
 IR Inten    --      2.9132                 4.7991                 5.4158

                      4                      5                      6
                      A                      A                      A
 Frequencies --    207.9334               227.7597               324.6059
 Red. masses --      2.5521                 1.2285                 2.2763
 Frc consts  --      0.0650                 0.0375                 0.1413
 IR Inten    --      1.3901                 1.8772                 0.2236

                      7                      8                      9
                      A                      A                      A
 Frequencies --    360.1684               379.3854               471.3793
 Red. masses --      2.2721                 2.9495                 3.1886
 Frc consts  --      0.1737                 0.2501                 0.4174
 IR Inten    --      1.7786                 3.5842                 1.9808

                     10                     11                     12
                      A                      A                      A
 Frequencies --    484.8464               661.5231               707.6353
 Red. masses --      3.6556                 5.2381                 3.5711
 Frc consts  --      0.5063                 1.3506                 1.0536
 IR Inten    --      3.8733                37.7297                 1.3003

                     13                     14                     15
                      A                      A                      A
 Frequencies --    763.9321               802.9838               827.7427
 Red. masses --      2.4173                 2.9419                 3.2830
 Frc consts  --      0.8312                 1.1176                 1.3253
 IR Inten    --      0.2415                 3.3577                 2.5290

                     16                     17                     18
                      A                      A                      A
 Frequencies --    882.6018               934.0298               958.2999
 Red. masses --      2.4614                 1.3217                 1.3626
 Frc consts  --      1.1297                 0.6794                 0.7373
 IR Inten    --     17.8306                17.5318                25.6184

                     19                     20                     21
                      A                      A                      A
 Frequencies --   1009.6932              1025.7096              1042.1584
 Red. masses --      2.2718                 2.7084                 2.0375
 Frc consts  --      1.3646                 1.6789                 1.3038
 IR Inten    --      3.4957                 8.7712                11.7203

                     22                     23                     24
                      A                      A                      A
 Frequencies --   1053.9422              1078.5858              1097.3423
 Red. masses --      1.7154                 1.4029                 1.9413
 Frc consts  --      1.1226                 0.9616                 1.3773
 IR Inten    --     32.8731                 1.9935                 5.1904

                     25                     26                     27
                      A                      A                      A
 Frequencies --   1105.6328              1133.1121              1147.2640
 Red. masses --      1.6606                 2.2913                 2.1719
 Frc consts  --      1.1960                 1.7333                 1.6843
 IR Inten    --     14.6435                 5.6508                41.4550

                     28                     29                     30
                      A                      A                      A
 Frequencies --   1219.0284              1259.5339              1298.7840
 Red. masses --      1.2132                 1.7819                 1.5923
 Frc consts  --      1.0622                 1.6655                 1.5825
 IR Inten    --      6.7414                 9.6663                39.9980

                     31                     32                     33
                      A                      A                      A
 Frequencies --   1324.6720              1357.9358              1376.4335
 Red. masses --      2.0427                 1.6711                 1.4325
 Frc consts  --      2.1119                 1.8156                 1.5990
 IR Inten    --      3.6208                 6.8249                24.6462

                     34                     35                     36
                      A                      A                      A
 Frequencies --   1404.1555              1412.4568              1439.9874
 Red. masses --      1.2754                 1.6254                 1.3052
 Frc consts  --      1.4816                 1.9105                 1.5946
 IR Inten    --     11.0991                 7.4892                 6.7614

                     37                     38                     39
                      A                      A                      A
 Frequencies --   1472.4514              1488.1236              1494.2244
 Red. masses --      1.3749                 1.0553                 1.0530
 Frc consts  --      1.7564                 1.3769                 1.3852
 IR Inten    --      4.3704                 1.7975                 3.1406

                     40                     41                     42
                      A                      A                      A
 Frequencies --   1524.6076              1806.4945              2855.2802
 Red. masses --      1.0859                10.4709                 1.0821
 Frc consts  --      1.4872                20.1330                 5.1975
 IR Inten    --      1.3625               246.2225               108.0144

                     43                     44                     45
                      A                      A                      A
 Frequencies --   3018.4004              3032.7718              3037.9908
 Red. masses --      1.0647                 1.0850                 1.0360
 Frc consts  --      5.7153                 5.8799                 5.6334
 IR Inten    --     40.6914                26.8238                13.4758

                     46                     47                     48
                      A                      A                      A
 Frequencies --   3081.4522              3107.3678              3122.9322
 Red. masses --      1.0990                 1.1009                 1.1019
 Frc consts  --      6.1482                 6.2631                 6.3319
 IR Inten    --     28.5579                24.1139                19.4965

                     49                     50                     51
                      A                      A                      A
 Frequencies --   3129.4015              3179.3588              3220.3592
 Red. masses --      1.0534                 1.0912                 1.1170
 Frc consts  --      6.0780                 6.4990                 6.8252
 IR Inten    --      9.1226                 6.8736                 3.1891

 - Thermochemistry -
 -------------------
 Temperature   298.150 Kelvin.  Pressure   1.00000 Atm.
 Atom     1 has atomic number  6 and mass  12.00000

 Molecular mass:   126.06808 amu.
 Principal axes and moments of inertia in atomic units:
                           1         2         3
     Eigenvalues --   650.978991416.492041505.54119
           X            0.99884  -0.04062  -0.02574
           Y            0.04116   0.99893   0.02108
           Z            0.02486  -0.02212   0.99945
 This molecule is an asymmetric top.
 Rotational symmetry number  1.
 Warning -- assumption of classical behavior for rotation
           may cause significant error
 Rotational temperatures (Kelvin)      0.13305     0.06115     0.05753
 Rotational constants (GHZ):           2.77235     1.27409     1.19873
 Zero-point vibrational energy     417457.2 (Joules/Mol)
                                   99.77467 (Kcal/Mol)
 Warning -- explicit consideration of  10 degrees of freedom as
           vibrations may cause significant error
 Vibrational temperatures:    117.31   248.61   268.47   299.17   327.69
          (Kelvin)            467.03   518.20   545.85   678.21   697.58
                              951.78  1018.13  1099.13  1155.31  1190.94
                             1269.87  1343.86  1378.78  1452.72  1475.77
                             1499.43  1516.39  1551.84  1578.83  1590.76
                             1630.29  1650.65  1753.91  1812.19  1868.66
                             1905.91  1953.76  1980.38  2020.26  2032.21
                             2071.82  2118.53  2141.08  2149.85  2193.57
                             2599.14  4108.11  4342.80  4363.48  4370.99
                             4433.52  4470.80  4493.20  4502.51  4574.38
                             4633.37

 Zero-point correction=                           0.159001 (Hartree/Particle)
 Thermal correction to Energy=                    0.167393
 Thermal correction to Enthalpy=                  0.168338
 Thermal correction to Gibbs Free Energy=         0.126031
 Sum of electronic and zero-point Energies=           -423.038406
 Sum of electronic and thermal Energies=              -423.030013
 Sum of electronic and thermal Enthalpies=            -423.029069
 Sum of electronic and thermal Free Energies=         -423.071376

                     E (Thermal)             CV                S
                      KCal/Mol        Cal/Mol-Kelvin    Cal/Mol-Kelvin
 Total                  105.041             31.901             89.042
 Electronic               0.000              0.000              0.000
 Translational            0.889              2.981             40.409
 Rotational               0.889              2.981             28.720
 Vibrational            103.263             25.939             19.914
 Vibration     1          0.600              1.962              3.854
 Vibration     2          0.626              1.876              2.405
 Vibration     3          0.632              1.858              2.261
 Vibration     4          0.641              1.829              2.062
 Vibration     5          0.651              1.799              1.897
 Vibration     6          0.709              1.626              1.287
 Vibration     7          0.735              1.554              1.121
 Vibration     8          0.749              1.514              1.042
 Vibration     9          0.828              1.314              0.734
 Vibration    10          0.841              1.284              0.697

 Normal termination of Gaussian 09 at Tue Jan 28 04:47:53 2020.
