 Gaussian 09, Revision D.01,
 Gaussian 09:  ES64L-G09RevD.01 24-Apr-2013

 -----------------------------
 # b3lyp 6-31G(2df,p) opt Freq
 -----------------------------

 -----
 titel
 -----
 Symbolic Z-matrix:
 Charge =  0 Multiplicity = 1

 SCF Done:  E(RB3LYP) =  -423.186199136     A.U. after   14 cycles
 SCF Done:  E(RB3LYP) =  -423.186199344     A.U. after    8 cycles
 SCF Done:  E(RB3LYP) =  -423.186199116     A.U. after    8 cycles
 SCF Done:  E(RB3LYP) =  -423.186199469     A.U. after    8 cycles
 SCF Done:  E(RB3LYP) =  -423.186199527     A.U. after    7 cycles
 SCF Done:  E(RB3LYP) =  -423.186199741     A.U. after    9 cycles
 SCF Done:  E(RB3LYP) =  -423.186199837     A.U. after    8 cycles
 SCF Done:  E(RB3LYP) =  -423.186199961     A.U. after    8 cycles
 SCF Done:  E(RB3LYP) =  -423.186200446     A.U. after    9 cycles
 SCF Done:  E(RB3LYP) =  -423.186202198     A.U. after   11 cycles
 SCF Done:  E(RB3LYP) =  -423.186203002     A.U. after   11 cycles
 SCF Done:  E(RB3LYP) =  -423.186203570     A.U. after   11 cycles
 SCF Done:  E(RB3LYP) =  -423.186203682     A.U. after    9 cycles
 SCF Done:  E(RB3LYP) =  -423.186203801     A.U. after   10 cycles
 SCF Done:  E(RB3LYP) =  -423.186203793     A.U. after    7 cycles
 Optimization completed on the basis of negligible forces.
    -- Stationary point found.
 Normal termination of Gaussian 09 at Mon Jan 27 16:16:06 2020.

 ----------------------------------------------------------------------
 #N Geom=AllCheck Guess=TCheck SCRF=Check GenChk RB3LYP/6-31G(2df,p) Fr
 eq
 ----------------------------------------------------------------------

 Structure from the checkpoint file:  "/scratch/puck/g09_700ad893-d52d-416f-9b48-8f3820161e07/Gau-162488.chk"
 -----
 titel
 -----
 Charge =  0 Multiplicity = 1

                         Standard orientation:
 ---------------------------------------------------------------------
 Center     Atomic      Atomic             Coordinates (Angstroms)
 Number     Number       Type             X           Y           Z
 ---------------------------------------------------------------------
      1          6           0        3.397026   -1.057938    0.511883
      2          6           0        2.667261   -0.026241   -0.371018
      3          6           0        3.031119    1.417373    0.031545
      4          6           0        1.218718   -0.226076   -0.327881
      5          6           0        0.025868   -0.380276   -0.272416
      6          6           0       -1.405837   -0.606916   -0.225421
      7          8           0       -2.067334    0.627028    0.160509
      8          6           0       -3.400917    0.546705    0.238433
      9          8           0       -4.063565   -0.430879    0.021234
     10          1           0        3.112359   -0.936305    1.561456
     11          1           0        3.151907   -2.079556    0.209999
     12          1           0        4.480379   -0.924100    0.431518
     13          1           0        2.996154   -0.177753   -1.408579
     14          1           0        4.112308    1.568158   -0.046971
     15          1           0        2.531470    2.144428   -0.613614
     16          1           0        2.729684    1.616271    1.064372
     17          1           0       -1.799106   -0.924633   -1.197083
     18          1           0       -1.670842   -1.385549    0.497891
     19          1           0       -3.796554    1.530067    0.536310
 ---------------------------------------------------------------------

 SCF Done:  E(RB3LYP) =  -423.186203793     A.U. after    1 cycles

 The electronic state is 1-A.
 Alpha  occ. eigenvalues --  -19.19329 -19.13647 -10.31028 -10.26590 -10.21769
 Alpha  occ. eigenvalues --  -10.18436 -10.18432 -10.18329 -10.17831  -1.10924
 Alpha  occ. eigenvalues --   -1.02378  -0.82044  -0.78213  -0.70948  -0.69221
 Alpha  occ. eigenvalues --   -0.62185  -0.60082  -0.53887  -0.49728  -0.49358
 Alpha  occ. eigenvalues --   -0.47765  -0.45588  -0.44827  -0.41908  -0.40744
 Alpha  occ. eigenvalues --   -0.39195  -0.37567  -0.36989  -0.35605  -0.35483
 Alpha  occ. eigenvalues --   -0.31369  -0.28946  -0.26306  -0.25771
 Alpha virt. eigenvalues --    0.00639   0.02760   0.04936   0.09269   0.11500
 Alpha virt. eigenvalues --    0.13461   0.13613   0.14610   0.15070   0.16355
 Alpha virt. eigenvalues --    0.17832   0.17953   0.18552   0.20088   0.21281

 Mulliken charges:
               1
     1  C   -0.375539
     2  C   -0.129091
     3  C   -0.374452
     4  C    0.190137
     5  C   -0.042200
     6  C   -0.225581
     7  O   -0.200090
     8  C    0.193408
     9  O   -0.299297
    10  H    0.125968
    11  H    0.124712
    12  H    0.114763
    13  H    0.107655
    14  H    0.114758
    15  H    0.127300
    16  H    0.127188
    17  H    0.151960
    18  H    0.151747
    19  H    0.116654
 Sum of Mulliken charges =   0.00000

 Dipole moment (field-independent basis, Debye):
    X=              2.4730    Y=              0.6427    Z=              0.0366  Tot=              2.5554
 Quadrupole moment (field-independent basis, Debye-Ang):
   XX=            -56.8317   YY=            -52.3729   ZZ=            -52.1590
   XY=             -4.7195   XZ=             -1.3879   YZ=              0.2667

  Exact polarizability: 123.112   2.217  70.186  -1.003   1.488  57.356
 Approx polarizability: 163.244  11.390 100.688  -2.511   3.230  85.455

                      1                      2                      3
                      A                      A                      A
 Frequencies --      7.0695                29.1026                64.1650
 Red. masses --      2.9567                 7.2030                 4.3879
 Frc consts  --      0.0001                 0.0036                 0.0106
 IR Inten    --      0.3953                 1.0026                 0.0894

                      4                      5                      6
                      A                      A                      A
 Frequencies --    128.4781               175.6347               223.2653
 Red. masses --      2.7622                 3.9948                 1.0292
 Frc consts  --      0.0269                 0.0726                 0.0302
 IR Inten    --      1.9982                 2.7294                 0.0045

                      7                      8                      9
                      A                      A                      A
 Frequencies --    231.6694               256.9491               315.4786
 Red. masses --      3.8864                 1.3037                 2.9172
 Frc consts  --      0.1229                 0.0507                 0.1711
 IR Inten    --      5.7922                 1.1651                 3.4943

                     10                     11                     12
                      A                      A                      A
 Frequencies --    340.7585               349.2145               436.7297
 Red. masses --      2.2672                 2.8388                 4.2005
 Frc consts  --      0.1551                 0.2040                 0.4720
 IR Inten    --     22.1748                 1.1521                 2.0227

                     13                     14                     15
                      A                      A                      A
 Frequencies --    528.3051               570.8661               692.0372
 Red. masses --      4.1090                 5.4581                 3.6195
 Frc consts  --      0.6757                 1.0480                 1.0213
 IR Inten    --      0.9869                 0.7357                 6.5169

                     16                     17                     18
                      A                      A                      A
 Frequencies --    810.3702               897.7076               932.7983
 Red. masses --      4.7700                 2.6255                 1.1735
 Frc consts  --      1.8456                 1.2466                 0.6016
 IR Inten    --      1.0217                12.3483                 1.3107

                     19                     20                     21
                      A                      A                      A
 Frequencies --    941.5374               965.5804              1010.5006
 Red. masses --      8.5016                 1.5242                 1.6680
 Frc consts  --      4.4405                 0.8373                 1.0035
 IR Inten    --     49.0955                 0.0489                 1.9245

                     22                     23                     24
                      A                      A                      A
 Frequencies --   1042.8701              1079.9214              1118.9587
 Red. masses --      1.6546                 1.7505                 2.3363
 Frc consts  --      1.0602                 1.2028                 1.7235
 IR Inten    --      0.1752                 0.2626                 2.8590

                     25                     26                     27
                      A                      A                      A
 Frequencies --   1154.0247              1204.6265              1212.1860
 Red. masses --      1.9738                 7.7525                 1.8932
 Frc consts  --      1.5487                 6.6282                 1.6390
 IR Inten    --      2.9641               497.5079                 5.8329

                     28                     29                     30
                      A                      A                      A
 Frequencies --   1249.3162              1325.5225              1352.4871
 Red. masses --      1.0680                 1.3195                 1.5519
 Frc consts  --      0.9821                 1.3659                 1.6726
 IR Inten    --      2.1122                 1.4468                24.5555

                     31                     32                     33
                      A                      A                      A
 Frequencies --   1391.7482              1396.0834              1402.7814
 Red. masses --      1.4541                 1.2102                 1.1580
 Frc consts  --      1.6594                 1.3897                 1.3426
 IR Inten    --     51.3446                 1.5841                12.7245

                     34                     35                     36
                      A                      A                      A
 Frequencies --   1418.2209              1485.6648              1487.1684
 Red. masses --      1.2138                 1.0424                 1.0720
 Frc consts  --      1.4385                 1.3555                 1.3969
 IR Inten    --      1.4028                 1.4470                 5.7799

                     37                     38                     39
                      A                      A                      A
 Frequencies --   1488.4211              1498.4074              1510.0784
 Red. masses --      1.0491                 1.0444                 1.0570
 Frc consts  --      1.3693                 1.3815                 1.4201
 IR Inten    --      0.8733                 5.4747                 3.5075

                     40                     41                     42
                      A                      A                      A
 Frequencies --   1818.9002              2370.9207              3007.7171
 Red. masses --      9.5098                11.8828                 1.0818
 Frc consts  --     18.5371                39.3553                 5.7658
 IR Inten    --    328.9173                20.0215                15.6458

                     43                     44                     45
                      A                      A                      A
 Frequencies --   3031.1181              3037.7786              3041.4848
 Red. masses --      1.0907                 1.0342                 1.0347
 Frc consts  --      5.9040                 5.6232                 5.6395
 IR Inten    --     64.0034                20.6810                28.7649

                     46                     47                     48
                      A                      A                      A
 Frequencies --   3044.5908              3078.8726              3109.6270
 Red. masses --      1.0565                 1.1055                 1.1025
 Frc consts  --      5.7700                 6.1743                 6.2811
 IR Inten    --      7.6680                 8.7687                 1.9884

                     49                     50                     51
                      A                      A                      A
 Frequencies --   3114.9651              3119.8189              3123.0435
 Red. masses --      1.1019                 1.1023                 1.1022
 Frc consts  --      6.2994                 6.3213                 6.3338
 IR Inten    --     51.1653                20.1136                24.7641

 - Thermochemistry -
 -------------------
 Temperature   298.150 Kelvin.  Pressure   1.00000 Atm.
 Atom     1 has atomic number  6 and mass  12.00000

 Molecular mass:   126.06808 amu.
 Principal axes and moments of inertia in atomic units:
                           1         2         3
     Eigenvalues --   339.490133437.216003656.22586
           X            0.99999   0.00046   0.00406
           Y           -0.00043   0.99997  -0.00766
           Z           -0.00407   0.00765   0.99996
 This molecule is an asymmetric top.
 Rotational symmetry number  1.
 Rotational temperatures (Kelvin)      0.25513     0.02520     0.02369
 Rotational constants (GHZ):           5.31603     0.52506     0.49361
 Zero-point vibrational energy     410471.9 (Joules/Mol)
                                   98.10514 (Kcal/Mol)
 Warning -- explicit consideration of  14 degrees of freedom as
           vibrations may cause significant error
 Vibrational temperatures:     10.17    41.87    92.32   184.85   252.70
          (Kelvin)            321.23   333.32   369.69   453.90   490.27
                              502.44   628.36   760.11   821.35   995.69
                             1165.94  1291.60  1342.09  1354.66  1389.25
                             1453.88  1500.46  1553.76  1609.93  1660.38
                             1733.19  1744.06  1797.49  1907.13  1945.92
                             2002.41  2008.65  2018.29  2040.50  2137.54
                             2139.70  2141.50  2155.87  2172.66  2616.99
                             3411.22  4327.43  4361.10  4370.68  4376.01
                             4380.48  4429.81  4474.05  4481.73  4488.72
                             4493.36

 Zero-point correction=                           0.156340 (Hartree/Particle)
 Thermal correction to Energy=                    0.167013
 Thermal correction to Enthalpy=                  0.167957
 Thermal correction to Gibbs Free Energy=         0.116991
 Sum of electronic and zero-point Energies=           -423.029863
 Sum of electronic and thermal Energies=              -423.019191
 Sum of electronic and thermal Enthalpies=            -423.018246
 Sum of electronic and thermal Free Energies=         -423.069212

                     E (Thermal)             CV                S
                      KCal/Mol        Cal/Mol-Kelvin    Cal/Mol-Kelvin
 Total                  104.802             36.000            107.267
 Electronic               0.000              0.000              0.000
 Translational            0.889              2.981             40.409
 Rotational               0.889              2.981             29.835
 Vibrational            103.025             30.038             37.023
 Vibration     1          0.593              1.987              8.700
 Vibration     2          0.593              1.984              5.890
 Vibration     3          0.597              1.971              4.325
 Vibration     4          0.611              1.925              2.969
 Vibration     5          0.628              1.872              2.374
 Vibration     6          0.649              1.806              1.932
 Vibration     7          0.653              1.793              1.866
 Vibration     8          0.667              1.751              1.682
 Vibration     9          0.703              1.644              1.333
 Vibration    10          0.720              1.594              1.209
 Vibration    11          0.726              1.577              1.170
 Vibration    12          0.797              1.390              0.837
 Vibration    13          0.883              1.187              0.591
 Vibration    14          0.927              1.094              0.503

 Optimization completed on the basis of negligible forces.
    -- Stationary point found.
 Normal termination of Gaussian 09 at Mon Jan 27 16:45:36 2020.
