 Gaussian 09, Revision D.01,
 Gaussian 09:  ES64L-G09RevD.01 24-Apr-2013

 -----------------------------
 # b3lyp 6-31G(2df,p) opt Freq
 -----------------------------

 -----
 titel
 -----
 Symbolic Z-matrix:
 Charge =  0 Multiplicity = 1

 SCF Done:  E(RB3LYP) =  -423.042921824     A.U. after   14 cycles
 Optimization completed.
    -- Stationary point found.
 Normal termination of Gaussian 09 at Mon Jan 27 16:14:01 2020.

 ----------------------------------------------------------------------
 #N Geom=AllCheck Guess=TCheck SCRF=Check GenChk RB3LYP/6-31G(2df,p) Fr
 eq
 ----------------------------------------------------------------------

 Structure from the checkpoint file:  "/scratch/puck/g09_710b9082-ecb3-42e4-b65b-2a91077a8dbb/Gau-10779.chk"
 -----
 titel
 -----
 Charge =  0 Multiplicity = 1

                         Standard orientation:
 ---------------------------------------------------------------------
 Center     Atomic      Atomic             Coordinates (Angstroms)
 Number     Number       Type             X           Y           Z
 ---------------------------------------------------------------------
      1          6           0        1.763434    1.441075    0.069647
      2          6           0        1.104505    0.075539   -0.066995
      3          8           0        2.003440   -0.812577   -0.685180
      4          6           0        0.229360   -0.556878    1.184617
      5          6           0       -0.393140   -1.492551    0.138816
      6          6           0       -0.374531   -0.075030   -0.547719
      7          6           0       -1.757505    0.355795   -1.078670
      8          8           0       -2.232712    0.339601    0.314325
      9          6           0       -0.838716    0.498474    0.778444
     10          1           0        2.096174    1.785657   -0.914436
     11          1           0        1.115236    2.203336    0.501146
     12          1           0        2.648201    1.362140    0.714108
     13          1           0        2.878779   -0.662103   -0.314041
     14          1           0        0.630140   -0.815566    2.170470
     15          1           0        0.257406   -2.244292   -0.299845
     16          1           0       -1.384134   -1.872983    0.377336
     17          1           0       -1.819082    1.367395   -1.498186
     18          1           0       -2.301248   -0.357348   -1.704661
     19          1           0       -0.687736    1.539026    1.066106
 ---------------------------------------------------------------------

 SCF Done:  E(RB3LYP) =  -423.042921824     A.U. after    1 cycles

 The electronic state is 1-A.
 Alpha  occ. eigenvalues --  -19.14751 -19.13421 -10.26558 -10.23793 -10.22448
 Alpha  occ. eigenvalues --  -10.20566 -10.20064 -10.18888 -10.17455  -1.04066
 Alpha  occ. eigenvalues --   -1.02789  -0.88525  -0.74223  -0.69562  -0.65390
 Alpha  occ. eigenvalues --   -0.62246  -0.60066  -0.52954  -0.49740  -0.47810
 Alpha  occ. eigenvalues --   -0.47099  -0.44495  -0.44141  -0.42705  -0.40404
 Alpha  occ. eigenvalues --   -0.38553  -0.36367  -0.34547  -0.32877  -0.30913
 Alpha  occ. eigenvalues --   -0.30413  -0.26636  -0.25641  -0.24017
 Alpha virt. eigenvalues --    0.05949   0.06723   0.08506   0.11379   0.11754
 Alpha virt. eigenvalues --    0.12626   0.13858   0.14718   0.15262   0.16103
 Alpha virt. eigenvalues --    0.17955   0.18183   0.19752   0.20548   0.20885

 Mulliken charges:
               1
     1  C   -0.485641
     2  C    0.338818
     3  O   -0.469522
     4  C   -0.178593
     5  C   -0.245039
     6  C    0.185265
     7  C   -0.194899
     8  O   -0.308418
     9  C    0.111003
    10  H    0.134262
    11  H    0.131213
    12  H    0.115596
    13  H    0.281717
    14  H    0.063599
    15  H    0.112704
    16  H    0.112076
    17  H    0.105758
    18  H    0.116452
    19  H    0.073648
 Sum of Mulliken charges =   0.00000

 Dipole moment (field-independent basis, Debye):
    X=              2.4513    Y=              0.9875    Z=              0.0303  Tot=              2.6429
 Quadrupole moment (field-independent basis, Debye-Ang):
   XX=            -52.8040   YY=            -52.9071   ZZ=            -53.4144
   XY=              1.6810   XZ=              4.8352   YZ=             -1.1271

  Exact polarizability:  87.350   0.618  73.811   6.330  -0.946  68.562
 Approx polarizability: 126.400  -3.158 108.439   5.858   0.918 110.580

                      1                      2                      3
                      A                      A                      A
 Frequencies --    186.6624               199.7170               252.4853
 Red. masses --      1.5721                 1.7181                 2.4846
 Frc consts  --      0.0323                 0.0404                 0.0933
 IR Inten    --      2.3770                 0.2149                24.3847

                      4                      5                      6
                      A                      A                      A
 Frequencies --    262.9991               287.4093               357.7385
 Red. masses --      1.1589                 4.0875                 2.2974
 Frc consts  --      0.0472                 0.1989                 0.1732
 IR Inten    --     64.5537                 6.4009                 6.0241

                      7                      8                      9
                      A                      A                      A
 Frequencies --    416.1980               441.2644               498.0148
 Red. masses --      3.0782                 4.2882                 3.5411
 Frc consts  --      0.3142                 0.4920                 0.5175
 IR Inten    --      0.7448                 6.9024                 1.4665

                     10                     11                     12
                      A                      A                      A
 Frequencies --    540.2977               599.5309               636.4218
 Red. masses --      3.1718                 3.3278                 3.3769
 Frc consts  --      0.5455                 0.7047                 0.8059
 IR Inten    --      1.1232                 6.0489                 3.5451

                     13                     14                     15
                      A                      A                      A
 Frequencies --    722.8717               814.5293               833.1290
 Red. masses --      3.7199                 3.6146                 2.9787
 Frc consts  --      1.1452                 1.4129                 1.2182
 IR Inten    --      5.8825                16.0320                 3.6271

                     16                     17                     18
                      A                      A                      A
 Frequencies --    862.4848               889.8304               914.8272
 Red. masses --      2.5936                 5.5530                 1.9692
 Frc consts  --      1.1367                 2.5906                 0.9710
 IR Inten    --     14.1729                42.0419                 6.3147

                     19                     20                     21
                      A                      A                      A
 Frequencies --    947.8784               956.5021              1012.0545
 Red. masses --      3.4229                 2.2861                 1.6195
 Frc consts  --      1.8120                 1.2323                 0.9773
 IR Inten    --     73.4300                25.3624                 4.3514

                     22                     23                     24
                      A                      A                      A
 Frequencies --   1041.9291              1042.8189              1059.3788
 Red. masses --      1.4086                 1.7218                 1.6658
 Frc consts  --      0.9010                 1.1032                 1.1015
 IR Inten    --      0.6787                 6.9488                 4.0076

                     25                     26                     27
                      A                      A                      A
 Frequencies --   1100.3823              1131.3023              1146.6343
 Red. masses --      1.8289                 1.8270                 1.2767
 Frc consts  --      1.3047                 1.3777                 0.9890
 IR Inten    --     44.1297                66.1058                 3.9868

                     28                     29                     30
                      A                      A                      A
 Frequencies --   1158.7515              1186.8084              1193.2510
 Red. masses --      1.4613                 3.1608                 1.9398
 Frc consts  --      1.1560                 2.6231                 1.6273
 IR Inten    --      0.5612                23.1584                 1.1501

                     31                     32                     33
                      A                      A                      A
 Frequencies --   1216.7067              1227.0323              1245.6025
 Red. masses --      2.1535                 2.2045                 2.2037
 Frc consts  --      1.8783                 1.9556                 2.0145
 IR Inten    --     30.4919                23.4460                35.9247

                     34                     35                     36
                      A                      A                      A
 Frequencies --   1291.9294              1354.6680              1373.3304
 Red. masses --      1.3642                 1.1876                 1.8078
 Frc consts  --      1.3416                 1.2841                 2.0089
 IR Inten    --      4.6014                 3.8344                40.1930

                     37                     38                     39
                      A                      A                      A
 Frequencies --   1412.9703              1490.4913              1494.8591
 Red. masses --      1.2623                 1.0486                 1.0658
 Frc consts  --      1.4849                 1.3726                 1.4033
 IR Inten    --     10.3980                 3.6982                 3.6611

                     40                     41                     42
                      A                      A                      A
 Frequencies --   1502.8437              1506.2550              3023.6687
 Red. masses --      1.0957                 1.1329                 1.0576
 Frc consts  --      1.4581                 1.5144                 5.6968
 IR Inten    --      2.9436                 5.9741                82.5204

                     43                     44                     45
                      A                      A                      A
 Frequencies --   3029.6212              3048.1541              3092.7562
 Red. masses --      1.0448                 1.0875                 1.0934
 Frc consts  --      5.6501                 5.9530                 6.1623
 IR Inten    --     21.2648                77.6799                25.3381

                     46                     47                     48
                      A                      A                      A
 Frequencies --   3097.7130              3098.2226              3115.4374
 Red. masses --      1.1079                 1.0889                 1.0559
 Frc consts  --      6.2639                 6.1584                 6.0383
 IR Inten    --     34.6607                35.8987                22.0743

                     49                     50                     51
                      A                      A                      A
 Frequencies --   3149.4504              3188.2736              3813.9869
 Red. masses --      1.0954                 1.1122                 1.0660
 Frc consts  --      6.4016                 6.6609                 9.1362
 IR Inten    --     19.9947                 8.6779                21.9113

 - Thermochemistry -
 -------------------
 Temperature   298.150 Kelvin.  Pressure   1.00000 Atm.
 Atom     1 has atomic number  6 and mass  12.00000

 Molecular mass:   126.06808 amu.
 Principal axes and moments of inertia in atomic units:
                           1         2         3
     Eigenvalues --   572.014461223.041561338.43039
           X            0.99889   0.03743   0.02847
           Y           -0.03678   0.99906  -0.02297
           Z           -0.02930   0.02190   0.99933
 This molecule is an asymmetric top.
 Rotational symmetry number  1.
 Warning -- assumption of classical behavior for rotation
           may cause significant error
 Rotational temperatures (Kelvin)      0.15142     0.07082     0.06471
 Rotational constants (GHZ):           3.15506     1.47562     1.34840
 Zero-point vibrational energy     415511.4 (Joules/Mol)
                                   99.30960 (Kcal/Mol)
 Warning -- explicit consideration of  11 degrees of freedom as
           vibrations may cause significant error
 Vibrational temperatures:    268.57   287.35   363.27   378.40   413.52
          (Kelvin)            514.71   598.82   634.88   716.53   777.37
                              862.59   915.67  1040.05  1171.92  1198.69
                             1240.92  1280.27  1316.23  1363.78  1376.19
                             1456.12  1499.10  1500.38  1524.21  1583.20
                             1627.69  1649.75  1667.18  1707.55  1716.82
                             1750.57  1765.42  1792.14  1858.80  1949.06
                             1975.91  2032.95  2144.48  2150.77  2162.25
                             2167.16  4350.38  4358.94  4385.61  4449.78
                             4456.91  4457.65  4482.41  4531.35  4587.21
                             5487.47

 Zero-point correction=                           0.158260 (Hartree/Particle)
 Thermal correction to Energy=                    0.166119
 Thermal correction to Enthalpy=                  0.167063
 Thermal correction to Gibbs Free Energy=         0.126630
 Sum of electronic and zero-point Energies=           -422.884662
 Sum of electronic and thermal Energies=              -422.876803
 Sum of electronic and thermal Enthalpies=            -422.875859
 Sum of electronic and thermal Free Energies=         -422.916292

                     E (Thermal)             CV                S
                      KCal/Mol        Cal/Mol-Kelvin    Cal/Mol-Kelvin
 Total                  104.241             32.192             85.098
 Electronic               0.000              0.000              0.000
 Translational            0.889              2.981             40.409
 Rotational               0.889              2.981             28.328
 Vibrational            102.464             26.230             16.362
 Vibration     1          0.632              1.858              2.261
 Vibration     2          0.638              1.840              2.136
 Vibration     3          0.664              1.759              1.713
 Vibration     4          0.670              1.741              1.642
 Vibration     5          0.685              1.697              1.489
 Vibration     6          0.733              1.559              1.132
 Vibration     7          0.779              1.435              0.905
 Vibration     8          0.801              1.380              0.823
 Vibration     9          0.854              1.254              0.663
 Vibration    10          0.895              1.161              0.565
 Vibration    11          0.958              1.033              0.450

 Optimization completed.
    -- Stationary point found.
 Normal termination of Gaussian 09 at Mon Jan 27 18:19:31 2020.
