 Gaussian 09, Revision D.01,
 Gaussian 09:  ES64L-G09RevD.01 24-Apr-2013

 -----------------------------
 # b3lyp 6-31G(2df,p) opt Freq
 -----------------------------

 -----
 titel
 -----
 Symbolic Z-matrix:
 Charge =  0 Multiplicity = 1

 SCF Done:  E(RB3LYP) =  -423.172141129     A.U. after   14 cycles
 Optimization completed.
    -- Stationary point found.
 Normal termination of Gaussian 09 at Mon Jan 27 22:04:03 2020.

 ----------------------------------------------------------------------
 #N Geom=AllCheck Guess=TCheck SCRF=Check GenChk RB3LYP/6-31G(2df,p) Fr
 eq
 ----------------------------------------------------------------------

 Structure from the checkpoint file:  "/scratch/puck/g09_876b27d9-1423-4ec8-a292-9180139831f8/Gau-14907.chk"
 -----
 titel
 -----
 Charge =  0 Multiplicity = 1

                         Standard orientation:
 ---------------------------------------------------------------------
 Center     Atomic      Atomic             Coordinates (Angstroms)
 Number     Number       Type             X           Y           Z
 ---------------------------------------------------------------------
      1          6           0       -2.833540   -0.508454    0.311950
      2          6           0       -1.399648   -0.203775   -0.018517
      3          6           0       -0.531830   -1.123049   -0.446921
      4          6           0        0.906972   -0.807752   -0.697176
      5          8           0        1.770439   -1.195989    0.419841
      6          6           0        1.880251    0.170236    0.869837
      7          6           0        1.253292    0.676844   -0.452285
      8          8           0        0.215114    1.613750   -0.465911
      9          6           0       -0.977518    1.229197    0.195977
     10          1           0       -3.072546   -0.217846    1.343135
     11          1           0       -3.518272    0.052282   -0.336931
     12          1           0       -3.050381   -1.573743    0.202002
     13          1           0       -0.849065   -2.154585   -0.582732
     14          1           0        1.271339   -1.259000   -1.626712
     15          1           0        1.274185    0.364830    1.764993
     16          1           0        2.917924    0.457195    1.070349
     17          1           0        2.004641    1.059835   -1.145018
     18          1           0       -0.898105    1.420440    1.281195
     19          1           0       -1.752021    1.909018   -0.178911
 ---------------------------------------------------------------------

 SCF Done:  E(RB3LYP) =  -423.172141129     A.U. after    1 cycles

 The electronic state is 1-A.
 Alpha  occ. eigenvalues --  -19.14827 -19.12901 -10.23741 -10.23590 -10.23018
 Alpha  occ. eigenvalues --  -10.22397 -10.19928 -10.18956 -10.17966  -1.05115
 Alpha  occ. eigenvalues --   -1.02189  -0.81640  -0.75305  -0.71797  -0.68213
 Alpha  occ. eigenvalues --   -0.64534  -0.58576  -0.52268  -0.50922  -0.49813
 Alpha  occ. eigenvalues --   -0.46531  -0.44862  -0.42382  -0.41868  -0.41624
 Alpha  occ. eigenvalues --   -0.39719  -0.38958  -0.36850  -0.35603  -0.35236
 Alpha  occ. eigenvalues --   -0.28931  -0.25539  -0.25156  -0.24088
 Alpha virt. eigenvalues --    0.00762   0.08334   0.09489   0.10049   0.11663
 Alpha virt. eigenvalues --    0.13091   0.13795   0.15420   0.16307   0.17325
 Alpha virt. eigenvalues --    0.18652   0.18901   0.19611   0.21298   0.21724

 Mulliken charges:
               1
     1  C   -0.475410
     2  C    0.276203
     3  C   -0.159648
     4  C    0.035937
     5  O   -0.292355
     6  C   -0.123448
     7  C    0.076828
     8  O   -0.259932
     9  C   -0.160008
    10  H    0.129110
    11  H    0.129535
    12  H    0.129276
    13  H    0.088292
    14  H    0.078819
    15  H    0.099571
    16  H    0.105950
    17  H    0.098685
    18  H    0.105865
    19  H    0.116730
 Sum of Mulliken charges =   0.00000

 Dipole moment (field-independent basis, Debye):
    X=             -1.4627    Y=              0.5234    Z=              0.0682  Tot=              1.5551
 Quadrupole moment (field-independent basis, Debye-Ang):
   XX=            -50.0256   YY=            -56.7953   ZZ=            -52.4805
   XY=              2.6768   XZ=             -1.7722   YZ=              3.2165

  Exact polarizability:  94.859  -3.261  73.136  -3.666   6.295  63.238
 Approx polarizability: 126.009 -14.129 115.512  -7.112  10.249  97.712

                      1                      2                      3
                      A                      A                      A
 Frequencies --     88.0684               139.5063               188.3727
 Red. masses --      2.5645                 2.1976                 1.3402
 Frc consts  --      0.0117                 0.0252                 0.0280
 IR Inten    --      1.3700                 2.0728                 0.8452

                      4                      5                      6
                      A                      A                      A
 Frequencies --    203.1809               311.6104               382.6402
 Red. masses --      2.6144                 2.7070                 4.1139
 Frc consts  --      0.0636                 0.1549                 0.3549
 IR Inten    --      2.1861                 0.6604                 7.6605

                      7                      8                      9
                      A                      A                      A
 Frequencies --    411.0181               463.8928               490.3811
 Red. masses --      2.7636                 2.6971                 4.4811
 Frc consts  --      0.2751                 0.3420                 0.6349
 IR Inten    --      2.8549                 8.2831                 0.9323

                     10                     11                     12
                      A                      A                      A
 Frequencies --    548.4338               669.2206               759.8427
 Red. masses --      3.8680                 6.3876                 2.1171
 Frc consts  --      0.6855                 1.6855                 0.7202
 IR Inten    --      6.3196                 3.1268                 0.2474

                     13                     14                     15
                      A                      A                      A
 Frequencies --    842.5483               854.9465               894.2131
 Red. masses --      2.8634                 1.7668                 2.1091
 Frc consts  --      1.1976                 0.7609                 0.9936
 IR Inten    --     12.5333                 2.9030                 4.5385

                     16                     17                     18
                      A                      A                      A
 Frequencies --    915.6064               960.5128               984.2889
 Red. masses --      3.3285                 2.8208                 2.1637
 Frc consts  --      1.6440                 1.5333                 1.2351
 IR Inten    --     17.0779                28.9892                28.1519

                     19                     20                     21
                      A                      A                      A
 Frequencies --    995.7488              1006.6269              1051.8308
 Red. masses --      5.0340                 1.5939                 2.7535
 Frc consts  --      2.9408                 0.9516                 1.7948
 IR Inten    --     57.3131                 9.9098                24.5327

                     22                     23                     24
                      A                      A                      A
 Frequencies --   1078.0608              1090.7555              1104.1136
 Red. masses --      2.0925                 2.1308                 1.6283
 Frc consts  --      1.4328                 1.4937                 1.1695
 IR Inten    --      3.7198                 1.8622                 1.9576

                     25                     26                     27
                      A                      A                      A
 Frequencies --   1150.9163              1186.5934              1199.3183
 Red. masses --      1.2153                 2.4821                 4.7096
 Frc consts  --      0.9485                 2.0591                 3.9912
 IR Inten    --      2.1085                 2.2215               117.9949

                     28                     29                     30
                      A                      A                      A
 Frequencies --   1260.9233              1274.2886              1280.5691
 Red. masses --      1.3348                 1.3507                 1.2066
 Frc consts  --      1.2504                 1.2922                 1.1657
 IR Inten    --      3.3270                11.7580                 1.0918

                     31                     32                     33
                      A                      A                      A
 Frequencies --   1330.0771              1355.5682              1366.7593
 Red. masses --      1.3264                 1.4020                 1.6608
 Frc consts  --      1.3825                 1.5179                 1.8279
 IR Inten    --      0.1894                 0.8691                17.3332

                     34                     35                     36
                      A                      A                      A
 Frequencies --   1393.8884              1411.1544              1428.7199
 Red. masses --      1.4759                 1.2799                 1.4949
 Frc consts  --      1.6895                 1.5017                 1.7979
 IR Inten    --      2.0176                 1.5769                11.5880

                     37                     38                     39
                      A                      A                      A
 Frequencies --   1477.9982              1486.9295              1495.4715
 Red. masses --      1.0454                 1.0625                 1.0933
 Frc consts  --      1.3455                 1.3840                 1.4407
 IR Inten    --      7.1897                 3.9996                 6.6157

                     40                     41                     42
                      A                      A                      A
 Frequencies --   1518.4184              1737.2029              2946.5013
 Red. masses --      1.0983                 7.1306                 1.0724
 Frc consts  --      1.4919                12.6787                 5.4854
 IR Inten    --      1.3231                 8.2163                38.7674

                     43                     44                     45
                      A                      A                      A
 Frequencies --   3011.2161              3017.5376              3041.4411
 Red. masses --      1.0602                 1.0388                 1.0859
 Frc consts  --      5.6637                 5.5731                 5.9183
 IR Inten    --     59.8213                29.8140                37.5340

                     46                     47                     48
                      A                      A                      A
 Frequencies --   3048.9939              3064.6807              3066.9493
 Red. masses --      1.0868                 1.0984                 1.1030
 Frc consts  --      5.9526                 6.0784                 6.1125
 IR Inten    --     34.6885                22.2166                30.4433

                     49                     50                     51
                      A                      A                      A
 Frequencies --   3100.5213              3117.6696              3149.9709
 Red. masses --      1.0895                 1.0990                 1.0901
 Frc consts  --      6.1711                 6.2936                 6.3726
 IR Inten    --     49.1364                15.1648                19.0528

 - Thermochemistry -
 -------------------
 Temperature   298.150 Kelvin.  Pressure   1.00000 Atm.
 Atom     1 has atomic number  6 and mass  12.00000

 Molecular mass:   126.06808 amu.
 Principal axes and moments of inertia in atomic units:
                           1         2         3
     Eigenvalues --   610.168851243.752371570.08247
           X            0.99957   0.02759  -0.01018
           Y           -0.02712   0.99868   0.04361
           Z            0.01137  -0.04332   0.99900
 This molecule is an asymmetric top.
 Rotational symmetry number  1.
 Warning -- assumption of classical behavior for rotation
           may cause significant error
 Rotational temperatures (Kelvin)      0.14195     0.06964     0.05517
 Rotational constants (GHZ):           2.95777     1.45105     1.14946
 Zero-point vibrational energy     420820.5 (Joules/Mol)
                                  100.57852 (Kcal/Mol)
 Warning -- explicit consideration of  10 degrees of freedom as
           vibrations may cause significant error
 Vibrational temperatures:    126.71   200.72   271.03   292.33   448.34
          (Kelvin)            550.53   591.36   667.44   705.55   789.07
                              962.86  1093.24  1212.24  1230.08  1286.57
                             1317.35  1381.96  1416.17  1432.66  1448.31
                             1513.35  1551.09  1569.35  1588.57  1655.91
                             1707.24  1725.55  1814.19  1833.41  1842.45
                             1913.68  1950.36  1966.46  2005.49  2030.33
                             2055.61  2126.51  2139.36  2151.65  2184.66
                             2499.44  4239.35  4332.46  4341.56  4375.95
                             4386.82  4409.39  4412.65  4460.95  4485.63
                             4532.10

 Zero-point correction=                           0.160282 (Hartree/Particle)
 Thermal correction to Energy=                    0.168254
 Thermal correction to Enthalpy=                  0.169198
 Thermal correction to Gibbs Free Energy=         0.127674
 Sum of electronic and zero-point Energies=           -423.011859
 Sum of electronic and thermal Energies=              -423.003887
 Sum of electronic and thermal Enthalpies=            -423.002943
 Sum of electronic and thermal Free Energies=         -423.044467

                     E (Thermal)             CV                S
                      KCal/Mol        Cal/Mol-Kelvin    Cal/Mol-Kelvin
 Total                  105.581             30.540             87.396
 Electronic               0.000              0.000              0.000
 Translational            0.889              2.981             40.409
 Rotational               0.889              2.981             28.568
 Vibrational            103.804             24.578             18.419
 Vibration     1          0.601              1.958              3.703
 Vibration     2          0.615              1.914              2.811
 Vibration     3          0.633              1.856              2.244
 Vibration     4          0.639              1.835              2.104
 Vibration     5          0.700              1.652              1.354
 Vibration     6          0.752              1.507              1.029
 Vibration     7          0.775              1.446              0.923
 Vibration     8          0.821              1.330              0.755
 Vibration     9          0.846              1.271              0.683
 Vibration    10          0.904              1.143              0.547

 Optimization completed.
    -- Stationary point found.
 Normal termination of Gaussian 09 at Mon Jan 27 22:53:51 2020.
