 Gaussian 09, Revision D.01,
 Gaussian 09:  ES64L-G09RevD.01 24-Apr-2013

 -----------------------------
 # b3lyp 6-31G(2df,p) opt Freq
 -----------------------------

 -----
 titel
 -----
 Symbolic Z-matrix:
 Charge =  0 Multiplicity = 1

 SCF Done:  E(RB3LYP) =  -423.102664952     A.U. after   14 cycles
 Optimization completed.
    -- Stationary point found.
 Normal termination of Gaussian 09 at Mon Jan 27 15:28:52 2020.

 ----------------------------------------------------------------------
 #N Geom=AllCheck Guess=TCheck SCRF=Check GenChk RB3LYP/6-31G(2df,p) Fr
 eq
 ----------------------------------------------------------------------

 Structure from the checkpoint file:  "/scratch/puck/g09_eac06981-27fc-4aff-af5f-bef66fc62e15/Gau-67182.chk"
 -----
 titel
 -----
 Charge =  0 Multiplicity = 1

                         Standard orientation:
 ---------------------------------------------------------------------
 Center     Atomic      Atomic             Coordinates (Angstroms)
 Number     Number       Type             X           Y           Z
 ---------------------------------------------------------------------
      1          6           0       -2.228229    0.647444    0.953976
      2          6           0       -1.554558    0.094854   -0.302270
      3          8           0       -1.975114   -1.234522   -0.595785
      4          6           0       -0.055301    0.163805   -0.201565
      5          8           0        0.572399    1.451976   -0.305764
      6          6           0        1.010637    0.386576   -1.170620
      7          6           0        1.977639   -0.551171   -0.382538
      8          6           0        2.151037   -0.097492    1.042943
      9          6           0        0.874278   -0.785605    0.639402
     10          1           0       -3.315524    0.588459    0.856301
     11          1           0       -1.926785    0.075214    1.840269
     12          1           0       -1.941136    1.690095    1.116795
     13          1           0       -1.853591    0.694469   -1.169236
     14          1           0       -1.930774   -1.743283    0.220803
     15          1           0        0.993581    0.571205   -2.238216
     16          1           0        2.612901   -1.286133   -0.857673
     17          1           0        2.828164   -0.706797    1.633190
     18          1           0        2.149870    0.958572    1.280610
     19          1           0        0.552000   -1.731899    1.053588
 ---------------------------------------------------------------------

 SCF Done:  E(RB3LYP) =  -423.102664952     A.U. after    1 cycles

 The electronic state is 1-A.
 Alpha  occ. eigenvalues --  -19.15222 -19.14015 -10.24027 -10.23732 -10.23538
 Alpha  occ. eigenvalues --  -10.19549 -10.19515 -10.18908 -10.18057  -1.07783
 Alpha  occ. eigenvalues --   -1.02191  -0.86761  -0.76375  -0.69193  -0.65829
 Alpha  occ. eigenvalues --   -0.62067  -0.56416  -0.54225  -0.53359  -0.48952
 Alpha  occ. eigenvalues --   -0.47099  -0.45016  -0.44518  -0.40676  -0.39607
 Alpha  occ. eigenvalues --   -0.38589  -0.37377  -0.35055  -0.34246  -0.32490
 Alpha  occ. eigenvalues --   -0.30215  -0.28189  -0.25893  -0.23061
 Alpha virt. eigenvalues --    0.06170   0.06690   0.09480   0.10730   0.12416
 Alpha virt. eigenvalues --    0.14082   0.14801   0.15144   0.16149   0.16637
 Alpha virt. eigenvalues --    0.17448   0.17794   0.19305   0.21607   0.22499

 Mulliken charges:
               1
     1  C   -0.418445
     2  C   -0.011166
     3  O   -0.423208
     4  C    0.445114
     5  O   -0.296602
     6  C   -0.075304
     7  C   -0.082143
     8  C   -0.289045
     9  C   -0.145160
    10  H    0.124614
    11  H    0.112555
    12  H    0.140320
    13  H    0.100221
    14  H    0.281926
    15  H    0.108579
    16  H    0.095844
    17  H    0.111196
    18  H    0.136188
    19  H    0.084516
 Sum of Mulliken charges =   0.00000

 Dipole moment (field-independent basis, Debye):
    X=              0.1468    Y=             -1.2315    Z=              0.8759  Tot=              1.5184
 Quadrupole moment (field-independent basis, Debye-Ang):
   XX=            -52.4789   YY=            -54.2766   ZZ=            -51.4331
   XY=             -3.0817   XZ=             -3.2422   YZ=             -3.0641

  Exact polarizability:  83.985  -2.610  67.093  -0.703  -2.693  71.395
 Approx polarizability: 110.599   0.480 107.963  -3.442  -3.579 108.986

                      1                      2                      3
                      A                      A                      A
 Frequencies --     60.8921               130.6130               168.2065
 Red. masses --      3.5179                 3.5631                 3.0015
 Frc consts  --      0.0077                 0.0358                 0.0500
 IR Inten    --      2.2737                 2.6299                 0.1468

                      4                      5                      6
                      A                      A                      A
 Frequencies --    247.7824               254.6237               309.9291
 Red. masses --      1.1489                 1.0493                 3.2295
 Frc consts  --      0.0416                 0.0401                 0.1828
 IR Inten    --     90.5750                27.4391                 0.4743

                      7                      8                      9
                      A                      A                      A
 Frequencies --    356.3478               411.9571               493.4922
 Red. masses --      3.9316                 3.2317                 2.9155
 Frc consts  --      0.2941                 0.3231                 0.4183
 IR Inten    --      4.9655                 7.9816                13.4584

                     10                     11                     12
                      A                      A                      A
 Frequencies --    526.7402               578.7855               623.2213
 Red. masses --      4.6317                 3.4283                 3.1403
 Frc consts  --      0.7571                 0.6767                 0.7186
 IR Inten    --      2.3838                10.5165                 0.6350

                     13                     14                     15
                      A                      A                      A
 Frequencies --    730.0922               759.3424               812.8165
 Red. masses --      2.6187                 1.4911                 3.3861
 Frc consts  --      0.8224                 0.5066                 1.3181
 IR Inten    --      7.0102                 6.4168                11.5821

                     16                     17                     18
                      A                      A                      A
 Frequencies --    841.1235               885.2568               913.6343
 Red. masses --      2.5448                 2.4981                 2.5210
 Frc consts  --      1.0608                 1.1534                 1.2398
 IR Inten    --      8.5332                10.0675                 7.0471

                     19                     20                     21
                      A                      A                      A
 Frequencies --    922.5745               936.0060               989.1771
 Red. masses --      3.2596                 1.9412                 1.6410
 Frc consts  --      1.6346                 1.0020                 0.9460
 IR Inten    --     15.9902                 6.9799                34.1460

                     22                     23                     24
                      A                      A                      A
 Frequencies --   1000.3505              1030.0307              1048.8171
 Red. masses --      1.4806                 1.8736                 2.1046
 Frc consts  --      0.8730                 1.1712                 1.3640
 IR Inten    --      2.1720                20.8716                 1.3850

                     25                     26                     27
                      A                      A                      A
 Frequencies --   1053.6339              1068.3386              1102.9509
 Red. masses --      1.2976                 1.5109                 1.2363
 Frc consts  --      0.8488                 1.0160                 0.8861
 IR Inten    --      2.0559                55.6766                 9.6215

                     28                     29                     30
                      A                      A                      A
 Frequencies --   1107.5024              1169.7866              1188.0297
 Red. masses --      3.4610                 1.6348                 2.0008
 Frc consts  --      2.5012                 1.3181                 1.6638
 IR Inten    --     34.3718                 2.9362                16.2738

                     31                     32                     33
                      A                      A                      A
 Frequencies --   1261.4885              1270.4829              1292.0961
 Red. masses --      1.5564                 1.8788                 1.6668
 Frc consts  --      1.4593                 1.7868                 1.6396
 IR Inten    --      3.5542                 5.4958                 6.4911

                     34                     35                     36
                      A                      A                      A
 Frequencies --   1305.0975              1343.4360              1397.4725
 Red. masses --      2.1133                 1.4232                 1.2029
 Frc consts  --      2.1207                 1.5134                 1.3841
 IR Inten    --      6.4388                16.1625                10.8089

                     37                     38                     39
                      A                      A                      A
 Frequencies --   1406.0064              1457.6380              1480.6248
 Red. masses --      1.2685                 1.3176                 1.8177
 Frc consts  --      1.4775                 1.6495                 2.3478
 IR Inten    --     46.9239                 2.3568                 6.1236

                     40                     41                     42
                      A                      A                      A
 Frequencies --   1491.0440              1502.3011              3028.1477
 Red. masses --      1.0504                 1.5833                 1.0404
 Frc consts  --      1.3759                 2.1053                 5.6206
 IR Inten    --      6.7034                 0.4467                11.3156

                     43                     44                     45
                      A                      A                      A
 Frequencies --   3054.2032              3102.2452              3126.7524
 Red. masses --      1.0833                 1.0960                 1.1028
 Frc consts  --      5.9540                 6.2149                 6.3526
 IR Inten    --     16.0821                27.3087                15.9749

                     46                     47                     48
                      A                      A                      A
 Frequencies --   3140.3695              3187.5080              3194.5707
 Red. masses --      1.0543                 1.0935                 1.0908
 Frc consts  --      6.1260                 6.5458                 6.5590
 IR Inten    --     16.8821                11.3584                14.7468

                     49                     50                     51
                      A                      A                      A
 Frequencies --   3210.2862              3233.7541              3809.2194
 Red. masses --      1.0976                 1.1138                 1.0660
 Frc consts  --      6.6645                 6.8623                 9.1136
 IR Inten    --      9.6439                 3.3999                14.1917

 - Thermochemistry -
 -------------------
 Temperature   298.150 Kelvin.  Pressure   1.00000 Atm.
 Atom     1 has atomic number  6 and mass  12.00000

 Molecular mass:   126.06808 amu.
 Principal axes and moments of inertia in atomic units:
                           1         2         3
     Eigenvalues --   583.191381431.463031487.90526
           X            0.99949  -0.02952  -0.01231
           Y            0.02909   0.99903  -0.03305
           Z            0.01327   0.03268   0.99938
 This molecule is an asymmetric top.
 Rotational symmetry number  1.
 Warning -- assumption of classical behavior for rotation
           may cause significant error
 Rotational temperatures (Kelvin)      0.14852     0.06051     0.05821
 Rotational constants (GHZ):           3.09460     1.26077     1.21294
 Zero-point vibrational energy     412812.1 (Joules/Mol)
                                   98.66447 (Kcal/Mol)
 Warning -- explicit consideration of  11 degrees of freedom as
           vibrations may cause significant error
 Vibrational temperatures:     87.61   187.92   242.01   356.50   366.35
          (Kelvin)            445.92   512.70   592.71   710.02   757.86
                              832.74   896.68  1050.44  1092.52  1169.46
                             1210.19  1273.69  1314.51  1327.38  1346.70
                             1423.20  1439.28  1481.98  1509.01  1515.94
                             1537.10  1586.90  1593.45  1683.06  1709.31
                             1815.00  1827.94  1859.04  1877.74  1932.90
                             2010.65  2022.93  2097.21  2130.29  2145.28
                             2161.47  4356.82  4394.31  4463.43  4498.69
                             4518.29  4586.11  4596.27  4618.88  4652.65
                             5480.61

 Zero-point correction=                           0.157232 (Hartree/Particle)
 Thermal correction to Energy=                    0.165865
 Thermal correction to Enthalpy=                  0.166809
 Thermal correction to Gibbs Free Energy=         0.123940
 Sum of electronic and zero-point Energies=           -422.945433
 Sum of electronic and thermal Energies=              -422.936800
 Sum of electronic and thermal Enthalpies=            -422.935856
 Sum of electronic and thermal Free Energies=         -422.978725

                     E (Thermal)             CV                S
                      KCal/Mol        Cal/Mol-Kelvin    Cal/Mol-Kelvin
 Total                  104.082             33.415             90.226
 Electronic               0.000              0.000              0.000
 Translational            0.889              2.981             40.409
 Rotational               0.889              2.981             28.609
 Vibrational            102.304             27.453             21.208
 Vibration     1          0.597              1.973              4.428
 Vibration     2          0.612              1.923              2.937
 Vibration     3          0.625              1.882              2.455
 Vibration     4          0.661              1.766              1.746
 Vibration     5          0.665              1.755              1.698
 Vibration     6          0.699              1.655              1.363
 Vibration     7          0.732              1.562              1.138
 Vibration     8          0.776              1.444              0.920
 Vibration     9          0.849              1.264              0.675
 Vibration    10          0.882              1.191              0.595
 Vibration    11          0.935              1.077              0.488

 Optimization completed.
    -- Stationary point found.
 Normal termination of Gaussian 09 at Mon Jan 27 16:23:43 2020.
