 Gaussian 09, Revision D.01,
 Gaussian 09:  ES64L-G09RevD.01 24-Apr-2013

 -----------------------------
 # b3lyp 6-31G(2df,p) opt Freq
 -----------------------------

 -----
 titel
 -----
 Symbolic Z-matrix:
 Charge =  0 Multiplicity = 1

 SCF Done:  E(RB3LYP) =  -423.119058881     A.U. after   13 cycles
 Optimization completed.
    -- Stationary point found.
 Normal termination of Gaussian 09 at Tue Jan 28 03:04:17 2020.

 ----------------------------------------------------------------------
 #N Geom=AllCheck Guess=TCheck SCRF=Check GenChk RB3LYP/6-31G(2df,p) Fr
 eq
 ----------------------------------------------------------------------

 Structure from the checkpoint file:  "/scratch/puck/g09_d11e1277-5613-4f39-98f5-c9f38c796024/Gau-44521.chk"
 -----
 titel
 -----
 Charge =  0 Multiplicity = 1

                         Standard orientation:
 ---------------------------------------------------------------------
 Center     Atomic      Atomic             Coordinates (Angstroms)
 Number     Number       Type             X           Y           Z
 ---------------------------------------------------------------------
      1          6           0        2.545271    0.779592   -0.175728
      2          6           0        1.470948   -0.074340    0.468358
      3          8           0        1.151901   -1.258086   -0.345803
      4          6           0       -0.088700   -0.673429   -0.805669
      5          6           0       -1.427462   -0.889455   -0.080125
      6          6           0       -2.136793    0.471301   -0.411493
      7          6           0       -0.982179    1.471786    0.020364
      8          6           0        0.013547    0.362603    0.320645
      9          8           0       -0.788255   -0.541981    1.170504
     10          1           0        2.243149    1.119242   -1.171126
     11          1           0        2.757661    1.657764    0.443393
     12          1           0        3.466461    0.199139   -0.279330
     13          1           0        1.737574   -0.370802    1.487301
     14          1           0       -0.082418   -0.461778   -1.878137
     15          1           0       -2.032274   -1.797705   -0.059872
     16          1           0       -2.416719    0.577010   -1.463772
     17          1           0       -3.031214    0.585045    0.202759
     18          1           0       -0.667651    2.134180   -0.789394
     19          1           0       -1.251525    2.070096    0.892459
 ---------------------------------------------------------------------

 SCF Done:  E(RB3LYP) =  -423.119058881     A.U. after    1 cycles

 The electronic state is 1-A.
 Alpha  occ. eigenvalues --  -19.13663 -19.13120 -10.24294 -10.24077 -10.24005
 Alpha  occ. eigenvalues --  -10.22877 -10.19752 -10.19378 -10.18322  -1.07586
 Alpha  occ. eigenvalues --   -1.00571  -0.79545  -0.76415  -0.70561  -0.69428
 Alpha  occ. eigenvalues --   -0.62922  -0.57028  -0.52860  -0.50916  -0.48930
 Alpha  occ. eigenvalues --   -0.48036  -0.45372  -0.43398  -0.40445  -0.39660
 Alpha  occ. eigenvalues --   -0.37815  -0.36982  -0.35964  -0.35041  -0.33390
 Alpha  occ. eigenvalues --   -0.31803  -0.27806  -0.25234  -0.24747
 Alpha virt. eigenvalues --    0.06711   0.08844   0.09294   0.10354   0.12696
 Alpha virt. eigenvalues --    0.14046   0.14291   0.14830   0.15478   0.16594
 Alpha virt. eigenvalues --    0.17249   0.18228   0.19142   0.19295   0.21120

 Mulliken charges:
               1
     1  C   -0.406129
     2  C    0.025159
     3  O   -0.313347
     4  C    0.101113
     5  C    0.012920
     6  C   -0.218382
     7  C   -0.324260
     8  C    0.370114
     9  O   -0.326057
    10  H    0.119184
    11  H    0.120776
    12  H    0.133999
    13  H    0.099733
    14  H    0.078049
    15  H    0.084016
    16  H    0.103183
    17  H    0.117516
    18  H    0.107586
    19  H    0.114828
 Sum of Mulliken charges =   0.00000

 Dipole moment (field-independent basis, Debye):
    X=             -0.4964    Y=              2.0390    Z=             -1.2101  Tot=              2.4224
 Quadrupole moment (field-independent basis, Debye-Ang):
   XX=            -50.0094   YY=            -54.7914   ZZ=            -53.9481
   XY=              2.7983   XZ=              2.8368   YZ=              0.7303

  Exact polarizability:  88.607   2.214  69.436   2.858   0.381  65.659
 Approx polarizability: 115.599   1.550 105.139   3.633   0.943 107.496

                      1                      2                      3
                      A                      A                      A
 Frequencies --    152.7598               215.2997               221.6996
 Red. masses --      2.9765                 2.2443                 1.1098
 Frc consts  --      0.0409                 0.0613                 0.0321
 IR Inten    --      1.2239                 0.6941                 0.2007

                      4                      5                      6
                      A                      A                      A
 Frequencies --    291.0967               356.1661               422.6176
 Red. masses --      1.9320                 2.9186                 3.9730
 Frc consts  --      0.0965                 0.2181                 0.4181
 IR Inten    --      0.3586                 1.2417                 0.5778

                      7                      8                      9
                      A                      A                      A
 Frequencies --    483.8768               496.7039               608.3766
 Red. masses --      3.4151                 4.8030                 4.4745
 Frc consts  --      0.4711                 0.6982                 0.9758
 IR Inten    --      9.0828                 4.4302                 8.8782

                     10                     11                     12
                      A                      A                      A
 Frequencies --    713.0455               761.6440               817.7951
 Red. masses --      3.9889                 2.6305                 1.4580
 Frc consts  --      1.1949                 0.8991                 0.5745
 IR Inten    --      3.0370                 8.2515                 1.7701

                     13                     14                     15
                      A                      A                      A
 Frequencies --    825.7135               845.8227               858.0092
 Red. masses --      2.8285                 3.7056                 2.7075
 Frc consts  --      1.1362                 1.5619                 1.1744
 IR Inten    --     23.3645                16.5625                 0.7899

                     16                     17                     18
                      A                      A                      A
 Frequencies --    885.1139               918.5534               929.3075
 Red. masses --      3.5074                 2.5480                 3.4150
 Frc consts  --      1.6189                 1.2666                 1.7377
 IR Inten    --     10.6613                13.3315                13.0125

                     19                     20                     21
                      A                      A                      A
 Frequencies --    973.8818              1015.6723              1016.1831
 Red. masses --      3.7018                 3.0747                 1.7123
 Frc consts  --      2.0686                 1.8688                 1.0418
 IR Inten    --     54.0692                61.9622                23.9447

                     22                     23                     24
                      A                      A                      A
 Frequencies --   1048.9006              1055.3350              1076.5754
 Red. masses --      1.4835                 2.3032                 2.3990
 Frc consts  --      0.9616                 1.5114                 1.6382
 IR Inten    --      3.5822                 9.6323                 9.2564

                     25                     26                     27
                      A                      A                      A
 Frequencies --   1128.2696              1157.1276              1176.2376
 Red. masses --      2.2202                 1.5986                 1.4925
 Frc consts  --      1.6652                 1.2611                 1.2166
 IR Inten    --     12.8102                 4.7402                 1.3414

                     28                     29                     30
                      A                      A                      A
 Frequencies --   1206.5075              1230.9528              1236.7404
 Red. masses --      1.6948                 1.3544                 1.6191
 Frc consts  --      1.4535                 1.2092                 1.4591
 IR Inten    --      6.5221                 2.8121                13.5269

                     31                     32                     33
                      A                      A                      A
 Frequencies --   1274.0110              1290.3613              1294.4404
 Red. masses --      1.4134                 1.4790                 1.4757
 Frc consts  --      1.3516                 1.4509                 1.4569
 IR Inten    --      1.8235                 2.1027                 1.9210

                     34                     35                     36
                      A                      A                      A
 Frequencies --   1321.8199              1347.9283              1370.3950
 Red. masses --      1.8693                 1.5756                 1.7935
 Frc consts  --      1.9243                 1.6867                 1.9844
 IR Inten    --     13.8985                 1.6341                 8.5397

                     37                     38                     39
                      A                      A                      A
 Frequencies --   1404.7889              1476.1144              1485.1473
 Red. masses --      1.2910                 1.0892                 1.0618
 Frc consts  --      1.5010                 1.3983                 1.3798
 IR Inten    --      9.8507                 0.7338                 2.5491

                     40                     41                     42
                      A                      A                      A
 Frequencies --   1491.6391              1499.1919              3036.9640
 Red. masses --      1.0495                 1.1254                 1.0351
 Frc consts  --      1.3758                 1.4903                 5.6248
 IR Inten    --      3.6416                 3.2524                12.9923

                     43                     44                     45
                      A                      A                      A
 Frequencies --   3062.7955              3067.1964              3071.1220
 Red. masses --      1.0641                 1.0848                 1.0760
 Frc consts  --      5.8813                 6.0127                 5.9795
 IR Inten    --     12.9799                42.9604                18.3815

                     46                     47                     48
                      A                      A                      A
 Frequencies --   3076.6846              3107.2463              3109.7801
 Red. masses --      1.0685                 1.0921                 1.1008
 Frc consts  --      5.9595                 6.2126                 6.2724
 IR Inten    --     39.8430                53.5267                23.5501

                     49                     50                     51
                      A                      A                      A
 Frequencies --   3118.0932              3119.1227              3134.3365
 Red. masses --      1.1027                 1.1047                 1.1056
 Frc consts  --      6.3164                 6.3325                 6.3994
 IR Inten    --     14.1834                11.4855                34.1897

 - Thermochemistry -
 -------------------
 Temperature   298.150 Kelvin.  Pressure   1.00000 Atm.
 Atom     1 has atomic number  6 and mass  12.00000

 Molecular mass:   126.06808 amu.
 Principal axes and moments of inertia in atomic units:
                           1         2         3
     Eigenvalues --   530.116541157.252151337.80353
           X            0.99971   0.02096   0.01202
           Y           -0.02076   0.99965  -0.01657
           Z           -0.01236   0.01631   0.99979
 This molecule is an asymmetric top.
 Rotational symmetry number  1.
 Warning -- assumption of classical behavior for rotation
           may cause significant error
 Rotational temperatures (Kelvin)      0.16339     0.07484     0.06474
 Rotational constants (GHZ):           3.40442     1.55951     1.34903
 Zero-point vibrational energy     420398.6 (Joules/Mol)
                                  100.47769 (Kcal/Mol)
 Warning -- explicit consideration of   9 degrees of freedom as
           vibrations may cause significant error
 Vibrational temperatures:    219.79   309.77   318.98   418.82   512.44
          (Kelvin)            608.05   696.19   714.65   875.32  1025.91
                             1095.83  1176.62  1188.02  1216.95  1234.48
                             1273.48  1321.59  1337.06  1401.20  1461.32
                             1462.06  1509.13  1518.39  1548.95  1623.33
                             1664.85  1692.34  1735.89  1771.06  1779.39
                             1833.02  1856.54  1862.41  1901.80  1939.37
                             1971.69  2021.18  2123.80  2136.79  2146.13
                             2157.00  4369.51  4406.67  4413.01  4418.65
                             4426.66  4470.63  4474.27  4486.24  4487.72
                             4509.61

 Zero-point correction=                           0.160121 (Hartree/Particle)
 Thermal correction to Energy=                    0.167372
 Thermal correction to Enthalpy=                  0.168316
 Thermal correction to Gibbs Free Energy=         0.128826
 Sum of electronic and zero-point Energies=           -422.958937
 Sum of electronic and thermal Energies=              -422.951687
 Sum of electronic and thermal Enthalpies=            -422.950743
 Sum of electronic and thermal Free Energies=         -422.990233

                     E (Thermal)             CV                S
                      KCal/Mol        Cal/Mol-Kelvin    Cal/Mol-Kelvin
 Total                  105.028             29.684             83.114
 Electronic               0.000              0.000              0.000
 Translational            0.889              2.981             40.409
 Rotational               0.889              2.981             28.197
 Vibrational            103.250             23.722             14.509
 Vibration     1          0.619              1.900              2.638
 Vibration     2          0.645              1.818              1.998
 Vibration     3          0.648              1.808              1.945
 Vibration     4          0.687              1.690              1.468
 Vibration     5          0.732              1.563              1.139
 Vibration     6          0.785              1.421              0.883
 Vibration     7          0.840              1.286              0.700
 Vibration     8          0.852              1.257              0.666
 Vibration     9          0.967              1.014              0.435

 Optimization completed.
    -- Stationary point found.
 Normal termination of Gaussian 09 at Tue Jan 28 05:08:31 2020.
