 Gaussian 09, Revision D.01,
 Gaussian 09:  ES64L-G09RevD.01 24-Apr-2013

 -----------------------------
 # b3lyp 6-31G(2df,p) opt Freq
 -----------------------------

 -----
 titel
 -----
 Symbolic Z-matrix:
 Charge =  0 Multiplicity = 1

 SCF Done:  E(RB3LYP) =  -423.177691954     A.U. after   14 cycles
 Optimization completed.
    -- Stationary point found.
 Normal termination of Gaussian 09 at Tue Jan 28 12:36:30 2020.

 ----------------------------------------------------------------------
 #N Geom=AllCheck Guess=TCheck SCRF=Check GenChk RB3LYP/6-31G(2df,p) Fr
 eq
 ----------------------------------------------------------------------

 Structure from the checkpoint file:  "/scratch/puck/g09_b49a186f-8178-479a-aef3-5f4cef92637f/Gau-142041.chk"
 -----
 titel
 -----
 Charge =  0 Multiplicity = 1

                         Standard orientation:
 ---------------------------------------------------------------------
 Center     Atomic      Atomic             Coordinates (Angstroms)
 Number     Number       Type             X           Y           Z
 ---------------------------------------------------------------------
      1          8           0        3.111760    0.382109    0.366503
      2          6           0        2.263448   -0.324199   -0.533338
      3          6           0        0.799843   -0.225574   -0.153738
      4          6           0        0.088826   -1.342512    0.063693
      5          6           0       -1.372656   -1.365580    0.419803
      6          8           0       -2.169400   -0.541990   -0.423003
      7          6           0       -2.261668    0.803441   -0.026023
      8          6           0       -0.976735    1.571599    0.088098
      9          6           0        0.289077    1.141156   -0.000709
     10          1           0        2.959428    0.019514    1.245866
     11          1           0        2.437071    0.143732   -1.509490
     12          1           0        2.555993   -1.380888   -0.617835
     13          1           0        0.579694   -2.307071   -0.047761
     14          1           0       -1.766225   -2.380768    0.307308
     15          1           0       -1.515490   -1.076477    1.474564
     16          1           0       -2.889237    1.282050   -0.790073
     17          1           0       -2.818660    0.899999    0.925601
     18          1           0       -1.135653    2.638604    0.241899
     19          1           0        1.073387    1.890366    0.075204
 ---------------------------------------------------------------------

 SCF Done:  E(RB3LYP) =  -423.177691954     A.U. after    1 cycles

 The electronic state is 1-A.
 Alpha  occ. eigenvalues --  -19.13955 -19.13789 -10.23442 -10.23250 -10.22887
 Alpha  occ. eigenvalues --  -10.19106 -10.18873 -10.18376 -10.18306  -1.03358
 Alpha  occ. eigenvalues --   -1.01737  -0.81644  -0.78116  -0.71259  -0.68017
 Alpha  occ. eigenvalues --   -0.64151  -0.57015  -0.52812  -0.51148  -0.49205
 Alpha  occ. eigenvalues --   -0.46834  -0.44852  -0.43979  -0.43161  -0.42690
 Alpha  occ. eigenvalues --   -0.38501  -0.37634  -0.35516  -0.33052  -0.32512
 Alpha  occ. eigenvalues --   -0.29535  -0.27035  -0.25757  -0.22207
 Alpha virt. eigenvalues --   -0.02931   0.05952   0.09321   0.09858   0.11201
 Alpha virt. eigenvalues --    0.12997   0.14353   0.15174   0.15752   0.16529
 Alpha virt. eigenvalues --    0.17729   0.19070   0.20321   0.21594   0.23797

 Mulliken charges:
               1
     1  O   -0.407747
     2  C   -0.158787
     3  C    0.259238
     4  C   -0.184039
     5  C   -0.147028
     6  O   -0.234632
     7  C   -0.138947
     8  C   -0.079570
     9  C   -0.119728
    10  H    0.282252
    11  H    0.118445
    12  H    0.091835
    13  H    0.085235
    14  H    0.112868
    15  H    0.103039
    16  H    0.123066
    17  H    0.096806
    18  H    0.094328
    19  H    0.103368
 Sum of Mulliken charges =   0.00000

 Dipole moment (field-independent basis, Debye):
    X=             -0.5626    Y=             -0.4945    Z=              1.3760  Tot=              1.5667
 Quadrupole moment (field-independent basis, Debye-Ang):
   XX=            -58.3518   YY=            -49.6172   ZZ=            -52.1581
   XY=             -5.3053   XZ=             -0.8214   YZ=             -1.4428

  Exact polarizability:  99.539  -4.400  91.169  -4.147  -0.983  55.385
 Approx polarizability: 139.261  -4.376 145.020  -4.644  -1.933  87.302

                      1                      2                      3
                      A                      A                      A
 Frequencies --     75.3891                81.5450               175.8368
 Red. masses --      2.7250                 2.9953                 3.2845
 Frc consts  --      0.0091                 0.0117                 0.0598
 IR Inten    --      0.8308                 2.6650                 3.1153

                      4                      5                      6
                      A                      A                      A
 Frequencies --    232.6252               283.0658               329.3151
 Red. masses --      6.0438                 2.5451                 2.0814
 Frc consts  --      0.1927                 0.1202                 0.1330
 IR Inten    --      2.4824                13.0118                21.3564

                      7                      8                      9
                      A                      A                      A
 Frequencies --    364.5207               393.2198               412.9547
 Red. masses --      2.0488                 1.5440                 3.9146
 Frc consts  --      0.1604                 0.1407                 0.3933
 IR Inten    --     17.7845                74.2677                 2.3814

                     10                     11                     12
                      A                      A                      A
 Frequencies --    503.8482               575.9224               649.6440
 Red. masses --      3.3112                 3.0076                 2.0892
 Frc consts  --      0.4953                 0.5878                 0.5195
 IR Inten    --     15.1216                 9.8243                17.3481

                     13                     14                     15
                      A                      A                      A
 Frequencies --    729.2330               781.7636               835.4236
 Red. masses --      4.2303                 1.7294                 1.5799
 Frc consts  --      1.3254                 0.6227                 0.6497
 IR Inten    --      8.1130                 5.2847                 4.1233

                     16                     17                     18
                      A                      A                      A
 Frequencies --    879.5911               891.3346               931.5854
 Red. masses --      4.7528                 2.7015                 2.6924
 Frc consts  --      2.1665                 1.2645                 1.3767
 IR Inten    --     10.7523                 7.6500                 9.1831

                     19                     20                     21
                      A                      A                      A
 Frequencies --    986.4971              1009.5205              1024.3656
 Red. masses --      1.8446                 1.7420                 1.2990
 Frc consts  --      1.0577                 1.0460                 0.8031
 IR Inten    --     50.9781                 3.1125                 1.2707

                     22                     23                     24
                      A                      A                      A
 Frequencies --   1031.9885              1057.4365              1093.2422
 Red. masses --      4.7931                 1.9587                 3.6099
 Frc consts  --      3.0076                 1.2904                 2.5420
 IR Inten    --     27.0373                22.0816                29.6751

                     25                     26                     27
                      A                      A                      A
 Frequencies --   1153.9034              1191.4221              1206.4189
 Red. masses --      3.2807                 2.3199                 1.2618
 Frc consts  --      2.5737                 1.9402                 1.0821
 IR Inten    --     58.5828                41.4542                15.6447

                     28                     29                     30
                      A                      A                      A
 Frequencies --   1250.8981              1269.2048              1327.7036
 Red. masses --      1.0485                 1.1821                 1.1731
 Frc consts  --      0.9667                 1.1220                 1.2184
 IR Inten    --      1.2123                 6.8314                 3.3317

                     31                     32                     33
                      A                      A                      A
 Frequencies --   1344.0642              1378.0159              1390.0858
 Red. masses --      1.3436                 1.2144                 1.3244
 Frc consts  --      1.4301                 1.3586                 1.5078
 IR Inten    --      1.7102                 0.4131                 1.6297

                     34                     35                     36
                      A                      A                      A
 Frequencies --   1413.1851              1418.3438              1451.7404
 Red. masses --      1.3404                 1.2685                 1.6141
 Frc consts  --      1.5772                 1.5035                 2.0043
 IR Inten    --     40.4901                36.8404                 1.8732

                     37                     38                     39
                      A                      A                      A
 Frequencies --   1472.8390              1482.7581              1499.8542
 Red. masses --      1.0819                 1.0951                 1.0841
 Frc consts  --      1.3828                 1.4186                 1.4369
 IR Inten    --      2.4668                 6.1557                 1.7731

                     40                     41                     42
                      A                      A                      A
 Frequencies --   1688.9637              1720.5614              2920.6944
 Red. masses --      8.0869                 6.4809                 1.0731
 Frc consts  --     13.5916                11.3039                 5.3936
 IR Inten    --      4.0967                 3.9929                61.9631

                     43                     44                     45
                      A                      A                      A
 Frequencies --   2965.2326              2996.9784              3031.8910
 Red. masses --      1.0699                 1.0655                 1.0849
 Frc consts  --      5.5424                 5.6384                 5.8759
 IR Inten    --     46.7999                53.5991                22.5208

                     46                     47                     48
                      A                      A                      A
 Frequencies --   3059.0056              3072.0625              3129.7773
 Red. masses --      1.0972                 1.0913                 1.0847
 Frc consts  --      6.0494                 6.0681                 6.2604
 IR Inten    --     25.3984                30.9083                11.1065

                     49                     50                     51
                      A                      A                      A
 Frequencies --   3147.2555              3162.8795              3805.3272
 Red. masses --      1.0890                 1.0904                 1.0661
 Frc consts  --      6.3551                 6.4271                 9.0959
 IR Inten    --     17.5314                13.3319                15.9209

 - Thermochemistry -
 -------------------
 Temperature   298.150 Kelvin.  Pressure   1.00000 Atm.
 Atom     1 has atomic number  8 and mass  15.99491

 Molecular mass:   126.06808 amu.
 Principal axes and moments of inertia in atomic units:
                           1         2         3
     Eigenvalues --   543.116731646.525852054.02742
           X            0.99976  -0.01880  -0.01137
           Y            0.01872   0.99980  -0.00767
           Z            0.01151   0.00745   0.99991
 This molecule is an asymmetric top.
 Rotational symmetry number  1.
 Warning -- assumption of classical behavior for rotation
           may cause significant error
 Rotational temperatures (Kelvin)      0.15948     0.05260     0.04217
 Rotational constants (GHZ):           3.32293     1.09609     0.87864
 Zero-point vibrational energy     420373.3 (Joules/Mol)
                                  100.47164 (Kcal/Mol)
 Warning -- explicit consideration of  11 degrees of freedom as
           vibrations may cause significant error
 Vibrational temperatures:    108.47   117.32   252.99   334.70   407.27
          (Kelvin)            473.81   524.46   565.75   594.15   724.92
                              828.62   934.69  1049.20  1124.78  1201.99
                             1265.53  1282.43  1340.34  1419.35  1452.47
                             1473.83  1484.80  1521.41  1572.93  1660.21
                             1714.19  1735.77  1799.76  1826.10  1910.27
                             1933.81  1982.66  2000.02  2033.26  2040.68
                             2088.73  2119.08  2133.36  2157.95  2430.04
                             2475.50  4202.22  4266.30  4311.98  4362.21
                             4401.22  4420.01  4503.05  4528.19  4550.67
                             5475.01

 Zero-point correction=                           0.160112 (Hartree/Particle)
 Thermal correction to Energy=                    0.168690
 Thermal correction to Enthalpy=                  0.169634
 Thermal correction to Gibbs Free Energy=         0.126509
 Sum of electronic and zero-point Energies=           -423.017580
 Sum of electronic and thermal Energies=              -423.009002
 Sum of electronic and thermal Enthalpies=            -423.008058
 Sum of electronic and thermal Free Energies=         -423.051183

                     E (Thermal)             CV                S
                      KCal/Mol        Cal/Mol-Kelvin    Cal/Mol-Kelvin
 Total                  105.855             32.278             90.765
 Electronic               0.000              0.000              0.000
 Translational            0.889              2.981             40.409
 Rotational               0.889              2.981             28.998
 Vibrational            104.077             26.317             21.358
 Vibration     1          0.599              1.965              4.007
 Vibration     2          0.600              1.962              3.853
 Vibration     3          0.628              1.872              2.372
 Vibration     4          0.653              1.791              1.859
 Vibration     5          0.682              1.705              1.515
 Vibration     6          0.712              1.617              1.263
 Vibration     7          0.738              1.545              1.103
 Vibration     8          0.760              1.485              0.988
 Vibration     9          0.777              1.442              0.916
 Vibration    10          0.859              1.241              0.649
 Vibration    11          0.932              1.083              0.493

 Optimization completed.
    -- Stationary point found.
 Normal termination of Gaussian 09 at Tue Jan 28 13:16:55 2020.
