 Gaussian 09, Revision D.01,
 Gaussian 09:  ES64L-G09RevD.01 24-Apr-2013

 -----------------------------
 # b3lyp 6-31G(2df,p) opt Freq
 -----------------------------

 -----
 titel
 -----
 Symbolic Z-matrix:
 Charge =  0 Multiplicity = 1

 SCF Done:  E(RB3LYP) =  -423.181214095     A.U. after   14 cycles
 Optimization completed.
    -- Stationary point found.
 Normal termination of Gaussian 09 at Tue Jan 28 09:16:40 2020.

 ----------------------------------------------------------------------
 #N Geom=AllCheck Guess=TCheck SCRF=Check GenChk RB3LYP/6-31G(2df,p) Fr
 eq
 ----------------------------------------------------------------------

 Structure from the checkpoint file:  "/scratch/puck/g09_93922f15-031e-43a7-ab85-4203949cc7b4/Gau-17484.chk"
 -----
 titel
 -----
 Charge =  0 Multiplicity = 1

                         Standard orientation:
 ---------------------------------------------------------------------
 Center     Atomic      Atomic             Coordinates (Angstroms)
 Number     Number       Type             X           Y           Z
 ---------------------------------------------------------------------
      1          6           0        3.079329   -0.248826   -0.172520
      2          6           0        1.731121    0.206745   -0.751602
      3          6           0        0.570182   -0.084457    0.154587
      4          6           0        0.139018    0.792617    1.288104
      5          6           0       -0.866855    0.648414    0.184429
      6          8           0       -1.361952    1.756921   -0.443484
      7          6           0       -1.452437   -0.705237    0.074366
      8          8           0       -2.489409   -1.052797   -0.435078
      9          6           0       -0.113756   -1.449638    0.316987
     10          1           0        3.290569    0.254862    0.776162
     11          1           0        3.085717   -1.327677    0.013836
     12          1           0        3.896056   -0.023175   -0.864909
     13          1           0        1.760492    1.284740   -0.952137
     14          1           0        1.566052   -0.284719   -1.719146
     15          1           0       -0.049492    0.384500    2.279216
     16          1           0        0.580068    1.786439    1.295755
     17          1           0       -1.933727    1.443279   -1.157154
     18          1           0        0.016822   -1.948268    1.281956
     19          1           0        0.078711   -2.160684   -0.491192
 ---------------------------------------------------------------------

 SCF Done:  E(RB3LYP) =  -423.181214095     A.U. after    1 cycles

 The electronic state is 1-A.
 Alpha  occ. eigenvalues --  -19.16729 -19.12541 -10.26568 -10.25377 -10.21929
 Alpha  occ. eigenvalues --  -10.20628 -10.19920 -10.19668 -10.18467  -1.06068
 Alpha  occ. eigenvalues --   -1.03069  -0.90376  -0.77587  -0.73354  -0.65692
 Alpha  occ. eigenvalues --   -0.63395  -0.57774  -0.55219  -0.48926  -0.48136
 Alpha  occ. eigenvalues --   -0.46409  -0.45363  -0.43473  -0.41307  -0.40465
 Alpha  occ. eigenvalues --   -0.39444  -0.38675  -0.37261  -0.36127  -0.35138
 Alpha  occ. eigenvalues --   -0.33978  -0.31276  -0.24396  -0.23512
 Alpha virt. eigenvalues --   -0.00505   0.06864   0.08958   0.10366   0.11828
 Alpha virt. eigenvalues --    0.12210   0.13463   0.14612   0.14771   0.15913
 Alpha virt. eigenvalues --    0.17102   0.17558   0.19790   0.20561   0.20964

 Mulliken charges:
               1
     1  C   -0.375305
     2  C   -0.287620
     3  C    0.258237
     4  C   -0.374616
     5  C    0.282180
     6  O   -0.446638
     7  C    0.324182
     8  O   -0.347004
     9  C   -0.406511
    10  H    0.121446
    11  H    0.122282
    12  H    0.118075
    13  H    0.111740
    14  H    0.104913
    15  H    0.117653
    16  H    0.132970
    17  H    0.302437
    18  H    0.115037
    19  H    0.126541
 Sum of Mulliken charges =   0.00000

 Dipole moment (field-independent basis, Debye):
    X=              2.8521    Y=              0.3295    Z=              0.1857  Tot=              2.8771
 Quadrupole moment (field-independent basis, Debye-Ang):
   XX=            -59.6189   YY=            -55.8215   ZZ=            -49.9696
   XY=             -3.0099   XZ=             -0.3216   YZ=             -1.4305

  Exact polarizability:  92.489   1.681  75.549   3.926   1.141  67.075
 Approx polarizability: 135.372   4.688 115.307  10.341   3.043 102.442

                      1                      2                      3
                      A                      A                      A
 Frequencies --     73.7466                84.6782               129.5233
 Red. masses --      3.7890                 3.0054                 3.1523
 Frc consts  --      0.0121                 0.0127                 0.0312
 IR Inten    --      3.0061                 3.0321                 1.1531

                      4                      5                      6
                      A                      A                      A
 Frequencies --    208.1247               236.8223               261.9348
 Red. masses --      1.5812                 1.8981                 3.3276
 Frc consts  --      0.0404                 0.0627                 0.1345
 IR Inten    --      7.3556                 6.2170                 5.6274

                      7                      8                      9
                      A                      A                      A
 Frequencies --    357.7762               390.0320               423.4011
 Red. masses --      1.8941                 1.5334                 1.6108
 Frc consts  --      0.1428                 0.1374                 0.1701
 IR Inten    --      0.0946                32.1700                45.5959

                     10                     11                     12
                      A                      A                      A
 Frequencies --    473.2707               515.9910               577.1882
 Red. masses --      3.2968                 5.0481                 3.9406
 Frc consts  --      0.4351                 0.7919                 0.7735
 IR Inten    --      3.2519                 2.6099                 7.7947

                     13                     14                     15
                      A                      A                      A
 Frequencies --    653.4601               687.9693               709.0330
 Red. masses --      2.8760                 5.5629                 3.8946
 Frc consts  --      0.7236                 1.5513                 1.1536
 IR Inten    --      2.7012                10.5992                 2.0493

                     16                     17                     18
                      A                      A                      A
 Frequencies --    774.2424               790.2830               896.6095
 Red. masses --      4.1899                 1.1807                 2.1061
 Frc consts  --      1.4798                 0.4345                 0.9975
 IR Inten    --     33.2899                 0.8581                 7.7328

                     19                     20                     21
                      A                      A                      A
 Frequencies --    958.0338               979.8486               993.3731
 Red. masses --      2.0052                 1.6086                 2.3107
 Frc consts  --      1.0844                 0.9100                 1.3434
 IR Inten    --      0.5417                 3.8436                 3.0979

                     22                     23                     24
                      A                      A                      A
 Frequencies --   1022.0899              1046.2238              1086.8185
 Red. masses --      1.5004                 1.8826                 1.6318
 Frc consts  --      0.9235                 1.2141                 1.1356
 IR Inten    --      7.5560                12.1193                 8.4948

                     25                     26                     27
                      A                      A                      A
 Frequencies --   1102.2942              1116.7815              1142.9049
 Red. masses --      1.5527                 1.4141                 2.4567
 Frc consts  --      1.1116                 1.0391                 1.8907
 IR Inten    --     10.2986                 5.3563                97.2862

                     28                     29                     30
                      A                      A                      A
 Frequencies --   1202.6109              1227.0790              1320.2639
 Red. masses --      1.4184                 2.1913                 1.6283
 Frc consts  --      1.2086                 1.9440                 1.6722
 IR Inten    --      8.9151                 1.8823                17.1346

                     31                     32                     33
                      A                      A                      A
 Frequencies --   1329.3821              1369.1069              1392.4993
 Red. masses --      1.3955                 1.8150                 4.1406
 Frc consts  --      1.4530                 2.0045                 4.7304
 IR Inten    --     11.0504                68.2652                64.8967

                     34                     35                     36
                      A                      A                      A
 Frequencies --   1411.3300              1424.2844              1467.2251
 Red. masses --      1.3103                 1.6864                 1.1104
 Frc consts  --      1.5377                 2.0156                 1.4084
 IR Inten    --      3.8985                 5.8425                 3.1088

                     37                     38                     39
                      A                      A                      A
 Frequencies --   1480.0435              1497.8924              1507.3446
 Red. masses --      1.0919                 1.0392                 1.0894
 Frc consts  --      1.4093                 1.3738                 1.4583
 IR Inten    --      3.5122                 5.4966                 2.9784

                     40                     41                     42
                      A                      A                      A
 Frequencies --   1507.9505              1832.3722              3019.7363
 Red. masses --      1.4167                12.4775                 1.0602
 Frc consts  --      1.8980                24.6834                 5.6959
 IR Inten    --      6.4704               435.1155                23.4593

                     43                     44                     45
                      A                      A                      A
 Frequencies --   3036.0945              3051.1604              3057.1192
 Red. masses --      1.0347                 1.0589                 1.1010
 Frc consts  --      5.6196                 5.8079                 6.0629
 IR Inten    --     26.3948                21.8614                10.1128

                     46                     47                     48
                      A                      A                      A
 Frequencies --   3095.7421              3107.3626              3109.1197
 Red. masses --      1.0569                 1.1021                 1.1030
 Frc consts  --      5.9680                 6.2700                 6.2823
 IR Inten    --     18.3529                31.4013                12.6968

                     49                     50                     51
                      A                      A                      A
 Frequencies --   3109.7767              3184.7636              3764.2956
 Red. masses --      1.1049                 1.1131                 1.0654
 Frc consts  --      6.2953                 6.6515                 8.8944
 IR Inten    --     31.0470                 6.6435                42.4658

 - Thermochemistry -
 -------------------
 Temperature   298.150 Kelvin.  Pressure   1.00000 Atm.
 Atom     1 has atomic number  6 and mass  12.00000

 Molecular mass:   126.06808 amu.
 Principal axes and moments of inertia in atomic units:
                           1         2         3
     Eigenvalues --   644.000501471.891201754.51738
           X            0.99986  -0.01531  -0.00705
           Y            0.01527   0.99987  -0.00536
           Z            0.00713   0.00526   0.99996
 This molecule is an asymmetric top.
 Rotational symmetry number  1.
 Warning -- assumption of classical behavior for rotation
           may cause significant error
 Rotational temperatures (Kelvin)      0.13449     0.05885     0.04937
 Rotational constants (GHZ):           2.80239     1.22614     1.02863
 Zero-point vibrational energy     413890.0 (Joules/Mol)
                                   98.92209 (Kcal/Mol)
 Warning -- explicit consideration of  12 degrees of freedom as
           vibrations may cause significant error
 Vibrational temperatures:    106.10   121.83   186.35   299.44   340.73
          (Kelvin)            376.87   514.76   561.17   609.18   680.93
                              742.40   830.44   940.18   989.83  1020.14
                             1113.96  1137.04  1290.02  1378.40  1409.78
                             1429.24  1470.56  1505.28  1563.69  1585.95
                             1606.80  1644.38  1730.29  1765.49  1899.56
                             1912.68  1969.84  2003.49  2030.59  2049.22
                             2111.01  2129.45  2155.13  2168.73  2169.60
                             2636.37  4344.72  4368.26  4389.93  4398.51
                             4454.08  4470.80  4473.32  4474.27  4582.16
                             5415.97

 Zero-point correction=                           0.157642 (Hartree/Particle)
 Thermal correction to Energy=                    0.166789
 Thermal correction to Enthalpy=                  0.167733
 Thermal correction to Gibbs Free Energy=         0.123537
 Sum of electronic and zero-point Energies=           -423.023572
 Sum of electronic and thermal Energies=              -423.014425
 Sum of electronic and thermal Enthalpies=            -423.013481
 Sum of electronic and thermal Free Energies=         -423.057677

                     E (Thermal)             CV                S
                      KCal/Mol        Cal/Mol-Kelvin    Cal/Mol-Kelvin
 Total                  104.662             34.164             93.019
 Electronic               0.000              0.000              0.000
 Translational            0.889              2.981             40.409
 Rotational               0.889              2.981             28.899
 Vibrational            102.884             28.203             23.711
 Vibration     1          0.599              1.966              4.051
 Vibration     2          0.601              1.960              3.779
 Vibration     3          0.612              1.924              2.953
 Vibration     4          0.641              1.828              2.060
 Vibration     5          0.656              1.784              1.827
 Vibration     6          0.669              1.742              1.649
 Vibration     7          0.733              1.559              1.132
 Vibration     8          0.758              1.491              1.000
 Vibration     9          0.786              1.419              0.880
 Vibration    10          0.830              1.309              0.728
 Vibration    11          0.871              1.215              0.619
 Vibration    12          0.934              1.081              0.491

 Normal termination of Gaussian 09 at Tue Jan 28 10:01:35 2020.
