 Gaussian 09, Revision D.01,
 Gaussian 09:  ES64L-G09RevD.01 24-Apr-2013

 -----------------------------
 # b3lyp 6-31G(2df,p) opt Freq
 -----------------------------

 -----
 titel
 -----
 Symbolic Z-matrix:
 Charge =  0 Multiplicity = 1

 SCF Done:  E(RB3LYP) =  -423.151446826     A.U. after   13 cycles
 Optimization completed.
    -- Stationary point found.
 Normal termination of Gaussian 09 at Tue Jan 28 12:10:03 2020.

 ----------------------------------------------------------------------
 #N Geom=AllCheck Guess=TCheck SCRF=Check GenChk RB3LYP/6-31G(2df,p) Fr
 eq
 ----------------------------------------------------------------------

 Structure from the checkpoint file:  "/scratch/puck/g09_7e064953-0f7e-4449-9ff7-99b520e1ce64/Gau-18863.chk"
 -----
 titel
 -----
 Charge =  0 Multiplicity = 1

                         Standard orientation:
 ---------------------------------------------------------------------
 Center     Atomic      Atomic             Coordinates (Angstroms)
 Number     Number       Type             X           Y           Z
 ---------------------------------------------------------------------
      1          8           0       -2.741416    0.025468   -0.565663
      2          6           0       -1.914199   -0.163137    0.569603
      3          6           0       -0.456361   -0.082068    0.218266
      4          8           0       -0.123057    1.188218   -0.329675
      5          6           0        1.235460    1.464020    0.039209
      6          6           0        1.823056    0.087964    0.340531
      7          6           0        1.629195   -0.850855   -0.895909
      8          6           0        0.292791   -1.294261   -0.302579
      9          6           0        0.643701   -0.644783    1.045931
     10          1           0       -2.448615    0.845804   -0.978719
     11          1           0       -2.136699    0.580865    1.350765
     12          1           0       -2.148157   -1.153855    0.972264
     13          1           0        1.723217    1.970147   -0.800561
     14          1           0        1.265930    2.124631    0.919248
     15          1           0        2.802988    0.097211    0.815648
     16          1           0        1.614841   -0.373800   -1.881860
     17          1           0        2.357086   -1.665698   -0.898221
     18          1           0       -0.217891   -2.232052   -0.491342
     19          1           0        0.581234   -1.004031    2.065168
 ---------------------------------------------------------------------

 SCF Done:  E(RB3LYP) =  -423.151446826     A.U. after    1 cycles

 The electronic state is 1-A.
 Alpha  occ. eigenvalues --  -19.14125 -19.12631 -10.23461 -10.22967 -10.22679
 Alpha  occ. eigenvalues --  -10.19982 -10.19305 -10.19239 -10.18772  -1.04628
 Alpha  occ. eigenvalues --   -1.00670  -0.88589  -0.77230  -0.69180  -0.67326
 Alpha  occ. eigenvalues --   -0.62565  -0.56552  -0.53417  -0.52585  -0.48099
 Alpha  occ. eigenvalues --   -0.47489  -0.45414  -0.44965  -0.41580  -0.40686
 Alpha  occ. eigenvalues --   -0.39457  -0.35609  -0.34355  -0.33385  -0.31782
 Alpha  occ. eigenvalues --   -0.30758  -0.27335  -0.25905  -0.23250
 Alpha virt. eigenvalues --    0.08470   0.09925   0.10150   0.10971   0.12359
 Alpha virt. eigenvalues --    0.14150   0.14846   0.15211   0.16072   0.16352
 Alpha virt. eigenvalues --    0.16790   0.18507   0.18879   0.20861   0.22471

 Mulliken charges:
               1
     1  O   -0.418718
     2  C   -0.154760
     3  C    0.451055
     4  O   -0.327891
     5  C   -0.086957
     6  C   -0.077469
     7  C   -0.238864
     8  C   -0.122556
     9  C   -0.173928
    10  H    0.293222
    11  H    0.090899
    12  H    0.107485
    13  H    0.107688
    14  H    0.092155
    15  H    0.077574
    16  H    0.099284
    17  H    0.104256
    18  H    0.088846
    19  H    0.088679
 Sum of Mulliken charges =   0.00000

 Dipole moment (field-independent basis, Debye):
    X=              2.2927    Y=              0.0147    Z=              1.1035  Tot=              2.5445
 Quadrupole moment (field-independent basis, Debye-Ang):
   XX=            -56.3437   YY=            -51.5300   ZZ=            -51.8891
   XY=             -0.3982   XZ=             -1.5283   YZ=             -1.0289

  Exact polarizability:  80.904   1.970  73.169  -1.847   0.747  68.370
 Approx polarizability: 109.087   2.007 108.275   2.006  -0.059 106.459

                      1                      2                      3
                      A                      A                      A
 Frequencies --     84.7319               145.5295               224.5938
 Red. masses --      3.8556                 4.4142                 2.4417
 Frc consts  --      0.0163                 0.0551                 0.0726
 IR Inten    --      3.0905                 0.9659                 0.4363

                      4                      5                      6
                      A                      A                      A
 Frequencies --    312.6181               368.4397               382.1906
 Red. masses --      1.9113                 2.6221                 1.9746
 Frc consts  --      0.1101                 0.2097                 0.1699
 IR Inten    --     18.9427                 6.4636                 7.4322

                      7                      8                      9
                      A                      A                      A
 Frequencies --    408.9819               499.9805               636.2403
 Red. masses --      1.5350                 3.4850                 3.5080
 Frc consts  --      0.1513                 0.5133                 0.8367
 IR Inten    --     96.2330                 5.1237                 2.5414

                     10                     11                     12
                      A                      A                      A
 Frequencies --    673.2350               716.7924               810.1972
 Red. masses --      3.6861                 3.8672                 4.8974
 Frc consts  --      0.9843                 1.1707                 1.8941
 IR Inten    --     12.5519                 4.4722                14.3179

                     13                     14                     15
                      A                      A                      A
 Frequencies --    837.4146               848.3191               869.9328
 Red. masses --      1.6410                 2.3382                 2.1186
 Frc consts  --      0.6780                 0.9914                 0.9446
 IR Inten    --      1.5196                 4.5488                 1.9640

                     16                     17                     18
                      A                      A                      A
 Frequencies --    876.4701               944.3630               974.1422
 Red. masses --      2.0900                 1.5741                 1.7420
 Frc consts  --      0.9460                 0.8271                 0.9740
 IR Inten    --     16.5348                 4.4566                12.3806

                     19                     20                     21
                      A                      A                      A
 Frequencies --    996.5216              1008.2421              1033.4606
 Red. masses --      1.5871                 1.7969                 2.2099
 Frc consts  --      0.9286                 1.0762                 1.3906
 IR Inten    --      8.2562                38.2949                41.5816

                     22                     23                     24
                      A                      A                      A
 Frequencies --   1042.5951              1055.9224              1070.9150
 Red. masses --      3.4611                 2.1461                 4.2602
 Frc consts  --      2.2166                 1.4098                 2.8787
 IR Inten    --     35.1624                17.6140                60.4482

                     25                     26                     27
                      A                      A                      A
 Frequencies --   1102.1566              1118.5930              1152.7545
 Red. masses --      2.6625                 1.5540                 1.6136
 Frc consts  --      1.9056                 1.1456                 1.2633
 IR Inten    --     16.1292                15.3543                13.3439

                     28                     29                     30
                      A                      A                      A
 Frequencies --   1174.9627              1208.4376              1230.4188
 Red. masses --      1.5077                 1.2970                 1.3879
 Frc consts  --      1.2263                 1.1159                 1.2380
 IR Inten    --     11.5977                 1.2888                 3.7271

                     31                     32                     33
                      A                      A                      A
 Frequencies --   1254.9040              1269.9747              1275.0457
 Red. masses --      1.3684                 1.9943                 1.7418
 Frc consts  --      1.2697                 1.8951                 1.6684
 IR Inten    --     17.2093                 6.6797                 1.1650

                     34                     35                     36
                      A                      A                      A
 Frequencies --   1313.8595              1376.9297              1379.9534
 Red. masses --      1.7770                 1.3001                 1.3350
 Frc consts  --      1.8073                 1.4522                 1.4978
 IR Inten    --      1.2144                 1.1254                 4.4908

                     37                     38                     39
                      A                      A                      A
 Frequencies --   1404.7846              1454.5051              1492.9659
 Red. masses --      1.8647                 2.0405                 1.1176
 Frc consts  --      2.1681                 2.5434                 1.4677
 IR Inten    --     56.6140                30.6952                 0.4004

                     40                     41                     42
                      A                      A                      A
 Frequencies --   1495.3336              1513.9165              2980.3749
 Red. masses --      1.1034                 1.0976                 1.0698
 Frc consts  --      1.4537                 1.4821                 5.5989
 IR Inten    --      0.8507                 0.2176                50.6118

                     43                     44                     45
                      A                      A                      A
 Frequencies --   2986.8002              3042.2132              3071.9841
 Red. masses --      1.0681                 1.0602                 1.0956
 Frc consts  --      5.6143                 5.7813                 6.0919
 IR Inten    --     87.9563                45.5255                36.9137

                     46                     47                     48
                      A                      A                      A
 Frequencies --   3078.9161              3102.5810              3126.6447
 Red. masses --      1.0926                 1.1047                 1.0896
 Frc consts  --      6.1028                 6.2653                 6.2760
 IR Inten    --     21.3995                19.7740                32.1418

                     49                     50                     51
                      A                      A                      A
 Frequencies --   3171.8432              3193.1170              3804.0464
 Red. masses --      1.0903                 1.0964                 1.0658
 Frc consts  --      6.4630                 6.5865                 9.0866
 IR Inten    --     18.7461                11.8751                26.3936

 - Thermochemistry -
 -------------------
 Temperature   298.150 Kelvin.  Pressure   1.00000 Atm.
 Atom     1 has atomic number  8 and mass  15.99491

 Molecular mass:   126.06808 amu.
 Principal axes and moments of inertia in atomic units:
                           1         2         3
     Eigenvalues --   549.151461252.535821434.93365
           X            0.99984   0.00461  -0.01725
           Y           -0.00445   0.99995   0.00950
           Z            0.01729  -0.00942   0.99981
 This molecule is an asymmetric top.
 Rotational symmetry number  1.
 Warning -- assumption of classical behavior for rotation
           may cause significant error
 Rotational temperatures (Kelvin)      0.15772     0.06915     0.06036
 Rotational constants (GHZ):           3.28642     1.44087     1.25772
 Zero-point vibrational energy     422280.9 (Joules/Mol)
                                  100.92755 (Kcal/Mol)
 Warning -- explicit consideration of   8 degrees of freedom as
           vibrations may cause significant error
 Vibrational temperatures:    121.91   209.38   323.14   449.79   530.10
          (Kelvin)            549.89   588.43   719.36   915.41   968.63
                             1031.30  1165.69  1204.85  1220.54  1251.64
                             1261.04  1358.73  1401.57  1433.77  1450.63
                             1486.92  1500.06  1519.23  1540.81  1585.76
                             1609.40  1658.55  1690.51  1738.67  1770.30
                             1805.52  1827.21  1834.50  1890.35  1981.09
                             1985.44  2021.17  2092.71  2148.04  2151.45
                             2178.19  4288.09  4297.33  4377.06  4419.89
                             4429.87  4463.92  4498.54  4563.57  4594.18
                             5473.17

 Zero-point correction=                           0.160838 (Hartree/Particle)
 Thermal correction to Energy=                    0.168399
 Thermal correction to Enthalpy=                  0.169343
 Thermal correction to Gibbs Free Energy=         0.128776
 Sum of electronic and zero-point Energies=           -422.990609
 Sum of electronic and thermal Energies=              -422.983048
 Sum of electronic and thermal Enthalpies=            -422.982104
 Sum of electronic and thermal Free Energies=         -423.022671

                     E (Thermal)             CV                S
                      KCal/Mol        Cal/Mol-Kelvin    Cal/Mol-Kelvin
 Total                  105.672             30.106             85.380
 Electronic               0.000              0.000              0.000
 Translational            0.889              2.981             40.409
 Rotational               0.889              2.981             28.381
 Vibrational            103.894             24.145             16.591
 Vibration     1          0.601              1.960              3.778
 Vibration     2          0.617              1.908              2.730
 Vibration     3          0.649              1.804              1.922
 Vibration     4          0.701              1.650              1.348
 Vibration     5          0.741              1.537              1.086
 Vibration     6          0.752              1.508              1.030
 Vibration     7          0.773              1.451              0.930
 Vibration     8          0.855              1.250              0.658

 Optimization completed.
    -- Stationary point found.
 Normal termination of Gaussian 09 at Tue Jan 28 13:04:01 2020.
