 Gaussian 09, Revision D.01,
 Gaussian 09:  ES64L-G09RevD.01 24-Apr-2013

 -----------------------------
 # b3lyp 6-31G(2df,p) opt Freq
 -----------------------------

 -----
 titel
 -----
 Symbolic Z-matrix:
 Charge =  0 Multiplicity = 1

 SCF Done:  E(RB3LYP) =  -423.200929972     A.U. after   14 cycles
 Optimization completed.
    -- Stationary point found.
 Normal termination of Gaussian 09 at Mon Jan 27 23:05:49 2020.

 ----------------------------------------------------------------------
 #N Geom=AllCheck Guess=TCheck SCRF=Check GenChk RB3LYP/6-31G(2df,p) Fr
 eq
 ----------------------------------------------------------------------

 Structure from the checkpoint file:  "/scratch/puck/g09_1d200822-f0b9-4645-b672-22d93e57f7ab/Gau-185882.chk"
 -----
 titel
 -----
 Charge =  0 Multiplicity = 1

                         Standard orientation:
 ---------------------------------------------------------------------
 Center     Atomic      Atomic             Coordinates (Angstroms)
 Number     Number       Type             X           Y           Z
 ---------------------------------------------------------------------
      1          6           0       -2.243352    0.545125   -0.907359
      2          6           0       -1.218303    0.303156    0.207021
      3          6           0       -0.861274   -1.176146    0.302592
      4          8           0        0.197930   -1.444930    1.213800
      5          6           0        0.503462   -1.423930   -0.198233
      6          6           0        1.081914   -0.089068   -0.590941
      7          8           0        2.080087    0.084727   -1.242538
      8          6           0        0.142722    1.010997   -0.060001
      9          6           0        0.754383    1.712325    1.164000
     10          1           0       -2.494709    1.607345   -0.979868
     11          1           0       -1.853183    0.227669   -1.881217
     12          1           0       -3.170945   -0.007064   -0.722846
     13          1           0       -1.641120    0.634233    1.162583
     14          1           0       -1.634830   -1.939118    0.243572
     15          1           0        0.858002   -2.352264   -0.633811
     16          1           0        0.035213    1.746684   -0.863991
     17          1           0        1.736829    2.123891    0.915515
     18          1           0        0.112522    2.535293    1.494412
     19          1           0        0.870766    1.010198    1.993077
 ---------------------------------------------------------------------

 SCF Done:  E(RB3LYP) =  -423.200929972     A.U. after    1 cycles

 The electronic state is 1-A.
 Alpha  occ. eigenvalues --  -19.17159 -19.13653 -10.27065 -10.25220 -10.24609
 Alpha  occ. eigenvalues --  -10.20524 -10.19912 -10.19093 -10.18187  -1.09258
 Alpha  occ. eigenvalues --   -1.04446  -0.83218  -0.75097  -0.71604  -0.66680
 Alpha  occ. eigenvalues --   -0.64343  -0.58138  -0.55403  -0.51286  -0.46564
 Alpha  occ. eigenvalues --   -0.45691  -0.44645  -0.42945  -0.41822  -0.41631
 Alpha  occ. eigenvalues --   -0.40384  -0.37768  -0.36770  -0.36297  -0.35293
 Alpha  occ. eigenvalues --   -0.33984  -0.31195  -0.29113  -0.23902
 Alpha virt. eigenvalues --   -0.03044   0.08117   0.09834   0.11660   0.11850
 Alpha virt. eigenvalues --    0.12970   0.14068   0.14607   0.15388   0.16172
 Alpha virt. eigenvalues --    0.17101   0.17292   0.18472   0.20345   0.20652

 Mulliken charges:
               1
     1  C   -0.412622
     2  C   -0.035166
     3  C    0.055985
     4  O   -0.252807
     5  C   -0.090925
     6  C    0.415753
     7  O   -0.327544
     8  C   -0.105687
     9  C   -0.413762
    10  H    0.125931
    11  H    0.123353
    12  H    0.119082
    13  H    0.088457
    14  H    0.103326
    15  H    0.114419
    16  H    0.101410
    17  H    0.133624
    18  H    0.115406
    19  H    0.141766
 Sum of Mulliken charges =   0.00000

 Dipole moment (field-independent basis, Debye):
    X=             -3.0434    Y=              0.1740    Z=              0.0070  Tot=              3.0484
 Quadrupole moment (field-independent basis, Debye-Ang):
   XX=            -56.6638   YY=            -50.5307   ZZ=            -56.8826
   XY=              0.1776   XZ=              3.0375   YZ=              2.9391

  Exact polarizability:  81.795   0.780  75.415  -4.025   1.696  66.499
 Approx polarizability: 120.887   1.184 104.300 -13.788  -2.099 108.310

                      1                      2                      3
                      A                      A                      A
 Frequencies --     66.6655               169.5487               209.7207
 Red. masses --      4.1556                 3.6788                 3.3587
 Frc consts  --      0.0109                 0.0623                 0.0870
 IR Inten    --      2.0161                 3.1518                 1.8452

                      4                      5                      6
                      A                      A                      A
 Frequencies --    232.4926               242.4802               249.4128
 Red. masses --      1.2068                 1.1334                 1.9760
 Frc consts  --      0.0384                 0.0393                 0.0724
 IR Inten    --      0.3945                 0.2592                 1.0086

                      7                      8                      9
                      A                      A                      A
 Frequencies --    294.9860               404.0730               464.3949
 Red. masses --      2.7338                 4.6360                 4.7000
 Frc consts  --      0.1402                 0.4460                 0.5972
 IR Inten    --      4.9232                 3.2104                14.3922

                     10                     11                     12
                      A                      A                      A
 Frequencies --    489.3414               597.1287               644.8204
 Red. masses --      3.7033                 6.6939                 4.3952
 Frc consts  --      0.5225                 1.4063                 1.0767
 IR Inten    --      0.1903                 2.5249                 1.8691

                     13                     14                     15
                      A                      A                      A
 Frequencies --    732.7388               808.7198               813.0541
 Red. masses --      4.5565                 2.3932                 2.2842
 Frc consts  --      1.4414                 0.9222                 0.8897
 IR Inten    --      3.9547                12.4781                 5.1062

                     16                     17                     18
                      A                      A                      A
 Frequencies --    863.6406               875.3702               924.9463
 Red. masses --      2.4358                 4.5469                 2.2859
 Frc consts  --      1.0704                 2.0528                 1.1522
 IR Inten    --     17.1820                15.1449                 7.1012

                     19                     20                     21
                      A                      A                      A
 Frequencies --    982.9887              1020.4757              1035.8527
 Red. masses --      1.3990                 1.4638                 1.7924
 Frc consts  --      0.7965                 0.8981                 1.1332
 IR Inten    --     13.7639                 1.9234                 0.8517

                     22                     23                     24
                      A                      A                      A
 Frequencies --   1052.2703              1068.6942              1107.3837
 Red. masses --      2.1996                 1.6823                 1.7328
 Frc consts  --      1.4350                 1.1320                 1.2520
 IR Inten    --      3.4133                 4.0421                 0.7711

                     25                     26                     27
                      A                      A                      A
 Frequencies --   1146.4534              1163.8890              1192.4946
 Red. masses --      1.8127                 2.0238                 2.2755
 Frc consts  --      1.4038                 1.6152                 1.9065
 IR Inten    --      0.8176                 7.4183                29.2087

                     28                     29                     30
                      A                      A                      A
 Frequencies --   1235.7930              1252.0154              1306.1291
 Red. masses --      1.6316                 1.3849                 1.3754
 Frc consts  --      1.4681                 1.2790                 1.3825
 IR Inten    --      3.9428                 1.3348                 3.4787

                     31                     32                     33
                      A                      A                      A
 Frequencies --   1308.0245              1332.0332              1360.2488
 Red. masses --      1.3430                 1.7228                 1.6385
 Frc consts  --      1.3538                 1.8010                 1.7862
 IR Inten    --      3.6857                 1.5885                 3.8627

                     34                     35                     36
                      A                      A                      A
 Frequencies --   1396.4382              1408.0510              1421.1263
 Red. masses --      1.5322                 1.4116                 1.6797
 Frc consts  --      1.7604                 1.6489                 1.9987
 IR Inten    --      5.9744                 1.0740                 7.8051

                     37                     38                     39
                      A                      A                      A
 Frequencies --   1494.2311              1498.1296              1499.6267
 Red. masses --      1.0427                 1.0491                 1.0489
 Frc consts  --      1.3717                 1.3872                 1.3898
 IR Inten    --      6.6070                 2.3192                 5.4704

                     40                     41                     42
                      A                      A                      A
 Frequencies --   1509.1333              1840.9852              3029.6853
 Red. masses --      1.0517                12.2237                 1.0367
 Frc consts  --      1.4113                24.4092                 5.6065
 IR Inten    --      2.5008               209.7886                19.0640

                     43                     44                     45
                      A                      A                      A
 Frequencies --   3038.5265              3042.4759              3054.5854
 Red. masses --      1.0587                 1.0594                 1.0837
 Frc consts  --      5.7588                 5.7779                 5.9577
 IR Inten    --      4.4043                35.0759                 8.7213

                     46                     47                     48
                      A                      A                      A
 Frequencies --   3096.5917              3108.4178              3110.3108
 Red. masses --      1.1010                 1.1013                 1.1011
 Frc consts  --      6.2200                 6.2695                 6.2763
 IR Inten    --     27.8849                17.1588                20.3691

                     49                     50                     51
                      A                      A                      A
 Frequencies --   3131.5961              3138.6130              3180.2129
 Red. masses --      1.1020                 1.0898                 1.0942
 Frc consts  --      6.3676                 6.3253                 6.5201
 IR Inten    --     14.6696                21.4494                13.9514

 - Thermochemistry -
 -------------------
 Temperature   298.150 Kelvin.  Pressure   1.00000 Atm.
 Atom     1 has atomic number  6 and mass  12.00000

 Molecular mass:   126.06808 amu.
 Principal axes and moments of inertia in atomic units:
                           1         2         3
     Eigenvalues --   888.341821090.556511306.12513
           X            0.99716  -0.01010   0.07458
           Y            0.00264   0.99503   0.09949
           Z           -0.07522  -0.09901   0.99224
 This molecule is an asymmetric top.
 Rotational symmetry number  1.
 Warning -- assumption of classical behavior for rotation
           may cause significant error
 Rotational temperatures (Kelvin)      0.09750     0.07942     0.06631
 Rotational constants (GHZ):           2.03158     1.65488     1.38175
 Zero-point vibrational energy     416581.7 (Joules/Mol)
                                   99.56541 (Kcal/Mol)
 Warning -- explicit consideration of  11 degrees of freedom as
           vibrations may cause significant error
 Vibrational temperatures:     95.92   243.94   301.74   334.50   348.87
          (Kelvin)            358.85   424.42   581.37   668.16   704.05
                              859.13   927.75  1054.25  1163.57  1169.80
                             1242.58  1259.46  1330.79  1414.30  1468.24
                             1490.36  1513.98  1537.61  1593.28  1649.49
                             1674.57  1715.73  1778.03  1801.37  1879.23
                             1881.95  1916.50  1957.09  2009.16  2025.87
                             2044.68  2149.86  2155.47  2157.63  2171.30
                             2648.76  4359.04  4371.76  4377.44  4394.86
                             4455.30  4472.31  4475.04  4505.66  4515.76
                             4575.61

 Zero-point correction=                           0.158668 (Hartree/Particle)
 Thermal correction to Energy=                    0.167244
 Thermal correction to Enthalpy=                  0.168188
 Thermal correction to Gibbs Free Energy=         0.125516
 Sum of electronic and zero-point Energies=           -423.042262
 Sum of electronic and thermal Energies=              -423.033686
 Sum of electronic and thermal Enthalpies=            -423.032742
 Sum of electronic and thermal Free Energies=         -423.075414

                     E (Thermal)             CV                S
                      KCal/Mol        Cal/Mol-Kelvin    Cal/Mol-Kelvin
 Total                  104.947             32.487             89.810
 Electronic               0.000              0.000              0.000
 Translational            0.889              2.981             40.409
 Rotational               0.889              2.981             28.627
 Vibrational            103.170             26.525             20.774
 Vibration     1          0.598              1.970              4.249
 Vibration     2          0.625              1.880              2.440
 Vibration     3          0.642              1.826              2.046
 Vibration     4          0.653              1.791              1.860
 Vibration     5          0.659              1.775              1.785
 Vibration     6          0.662              1.764              1.735
 Vibration     7          0.689              1.683              1.445
 Vibration     8          0.769              1.461              0.948
 Vibration     9          0.822              1.329              0.753
 Vibration    10          0.845              1.274              0.685
 Vibration    11          0.955              1.038              0.455

 Optimization completed.
    -- Stationary point found.
 Normal termination of Gaussian 09 at Mon Jan 27 23:53:05 2020.
