 Gaussian 09, Revision D.01,
 Gaussian 09:  ES64L-G09RevD.01 24-Apr-2013

 -----------------------------
 # b3lyp 6-31G(2df,p) opt Freq
 -----------------------------

 -----
 titel
 -----
 Symbolic Z-matrix:
 Charge =  0 Multiplicity = 1

 SCF Done:  E(RB3LYP) =  -423.121846720     A.U. after   12 cycles
 Optimization completed.
    -- Stationary point found.
 Normal termination of Gaussian 09 at Tue Jan 28 10:04:18 2020.

 ----------------------------------------------------------------------
 #N Geom=AllCheck Guess=TCheck SCRF=Check GenChk RB3LYP/6-31G(2df,p) Fr
 eq
 ----------------------------------------------------------------------

 Structure from the checkpoint file:  "/scratch/puck/g09_b95188f9-6535-4b03-a928-9236eb16fe80/Gau-20044.chk"
 -----
 titel
 -----
 Charge =  0 Multiplicity = 1

                         Standard orientation:
 ---------------------------------------------------------------------
 Center     Atomic      Atomic             Coordinates (Angstroms)
 Number     Number       Type             X           Y           Z
 ---------------------------------------------------------------------
      1          8           0        2.903244   -0.514127   -0.348119
      2          6           0        1.983627   -0.221792    0.696716
      3          6           0        0.599677    0.061163    0.175961
      4          6           0        0.285627    1.364679   -0.628122
      5          6           0       -1.139295    1.206430   -0.112040
      6          6           0       -0.690059    0.348059    1.057747
      7          6           0       -1.444326   -0.306766   -0.060129
      8          8           0       -2.736277   -0.782410    0.025657
      9          6           0       -0.211091   -1.039331   -0.577399
     10          1           0        2.955481    0.261671   -0.915812
     11          1           0        1.972806   -1.109462    1.339060
     12          1           0        2.332990    0.623065    1.313260
     13          1           0        0.778753    2.238662   -0.187989
     14          1           0        0.461699    1.348039   -1.710993
     15          1           0       -1.952927    1.921144   -0.118136
     16          1           0       -0.869385    0.414040    2.120749
     17          1           0       -3.167402   -0.648223   -0.825800
     18          1           0       -0.101560   -2.014358   -0.093810
     19          1           0       -0.051144   -1.136936   -1.657239
 ---------------------------------------------------------------------

 SCF Done:  E(RB3LYP) =  -423.121846720     A.U. after    1 cycles

 The electronic state is 1-A.
 Alpha  occ. eigenvalues --  -19.14878 -19.13456 -10.23834 -10.22547 -10.20080
 Alpha  occ. eigenvalues --  -10.19073 -10.18669 -10.18656 -10.17816  -1.03560
 Alpha  occ. eigenvalues --   -1.01458  -0.92319  -0.73544  -0.71732  -0.67566
 Alpha  occ. eigenvalues --   -0.60506  -0.56751  -0.53353  -0.51872  -0.48579
 Alpha  occ. eigenvalues --   -0.46352  -0.45244  -0.43139  -0.42687  -0.41606
 Alpha  occ. eigenvalues --   -0.37374  -0.36923  -0.34059  -0.32305  -0.31139
 Alpha  occ. eigenvalues --   -0.29286  -0.27175  -0.24813  -0.24202
 Alpha virt. eigenvalues --    0.06296   0.07935   0.11405   0.11563   0.12688
 Alpha virt. eigenvalues --    0.13257   0.14017   0.14944   0.16167   0.16477
 Alpha virt. eigenvalues --    0.17191   0.17993   0.19667   0.21291   0.21993

 Mulliken charges:
               1
     1  O   -0.415442
     2  C   -0.189903
     3  C    0.307101
     4  C   -0.293274
     5  C   -0.134335
     6  C   -0.199445
     7  C    0.403129
     8  O   -0.465077
     9  C   -0.333029
    10  H    0.286192
    11  H    0.111105
    12  H    0.085808
    13  H    0.095244
    14  H    0.085885
    15  H    0.085825
    16  H    0.096386
    17  H    0.285018
    18  H    0.103673
    19  H    0.085137
 Sum of Mulliken charges =   0.00000

 Dipole moment (field-independent basis, Debye):
    X=             -0.5675    Y=              1.7115    Z=             -0.9492  Tot=              2.0377
 Quadrupole moment (field-independent basis, Debye-Ang):
   XX=            -56.4397   YY=            -54.0286   ZZ=            -49.9390
   XY=              2.4637   XZ=              3.8145   YZ=             -0.4058

  Exact polarizability:  83.059   0.717  72.072   0.778  -0.625  69.497
 Approx polarizability: 111.629   1.451 108.662   0.396  -1.798 109.946

                      1                      2                      3
                      A                      A                      A
 Frequencies --     82.7808               148.0012               226.6051
 Red. masses --      3.7250                 4.2314                 1.9615
 Frc consts  --      0.0150                 0.0546                 0.0593
 IR Inten    --      1.5607                 0.5301                13.7150

                      4                      5                      6
                      A                      A                      A
 Frequencies --    280.6124               302.2135               337.4583
 Red. masses --      1.3147                 1.3686                 2.2193
 Frc consts  --      0.0610                 0.0736                 0.1489
 IR Inten    --    100.7315                64.0818                23.4599

                      7                      8                      9
                      A                      A                      A
 Frequencies --    367.3794               390.7502               442.3337
 Red. masses --      2.9476                 3.0796                 2.0582
 Frc consts  --      0.2344                 0.2770                 0.2373
 IR Inten    --     16.6467                12.8629                 1.8320

                     10                     11                     12
                      A                      A                      A
 Frequencies --    464.8919               603.2287               663.8558
 Red. masses --      2.1935                 4.3825                 3.2895
 Frc consts  --      0.2793                 0.9396                 0.8541
 IR Inten    --      8.4691                 7.1581                 4.2925

                     13                     14                     15
                      A                      A                      A
 Frequencies --    741.5843               748.2508               835.8279
 Red. masses --      3.3670                 2.8915                 1.4198
 Frc consts  --      1.0910                 0.9538                 0.5844
 IR Inten    --      6.4946                 1.9263                 9.0872

                     16                     17                     18
                      A                      A                      A
 Frequencies --    889.3675               906.2765               922.0825
 Red. masses --      2.0220                 2.3452                 2.5888
 Frc consts  --      0.9423                 1.1349                 1.2969
 IR Inten    --      1.4928                 9.4670                10.2039

                     19                     20                     21
                      A                      A                      A
 Frequencies --    948.8433               957.5060               982.4730
 Red. masses --      1.7101                 1.4857                 1.4566
 Frc consts  --      0.9071                 0.8025                 0.8284
 IR Inten    --      2.5317                 0.9163                 4.1980

                     22                     23                     24
                      A                      A                      A
 Frequencies --   1011.6452              1040.1169              1073.9874
 Red. masses --      3.0609                 2.8282                 2.5867
 Frc consts  --      1.8457                 1.8027                 1.7579
 IR Inten    --      8.9196                65.2404                40.7703

                     25                     26                     27
                      A                      A                      A
 Frequencies --   1086.5704              1116.6050              1125.5795
 Red. masses --      1.8769                 1.8478                 1.3279
 Frc consts  --      1.3056                 1.3574                 0.9912
 IR Inten    --      8.8157                 2.2409                 1.5512

                     28                     29                     30
                      A                      A                      A
 Frequencies --   1140.0788              1191.0719              1206.6141
 Red. masses --      1.3100                 1.5804                 1.6688
 Frc consts  --      1.0032                 1.3210                 1.4315
 IR Inten    --      2.3512                 5.7271                 8.4886

                     31                     32                     33
                      A                      A                      A
 Frequencies --   1237.6785              1268.5686              1283.9796
 Red. masses --      1.6972                 1.8431                 2.4331
 Frc consts  --      1.5318                 1.7475                 2.3634
 IR Inten    --      7.8120                70.9590                 3.5539

                     34                     35                     36
                      A                      A                      A
 Frequencies --   1304.2563              1344.9103              1377.3387
 Red. masses --      1.8197                 2.5587                 1.3175
 Frc consts  --      1.8238                 2.7268                 1.4726
 IR Inten    --    117.3558                 2.2303                 5.0496

                     37                     38                     39
                      A                      A                      A
 Frequencies --   1419.3345              1438.1419              1492.8266
 Red. masses --      1.4219                 2.4841                 1.1667
 Frc consts  --      1.6877                 3.0271                 1.5319
 IR Inten    --     39.1408                51.3050                 3.6880

                     40                     41                     42
                      A                      A                      A
 Frequencies --   1499.8404              1512.0569              2967.4732
 Red. masses --      1.1109                 1.1837                 1.0705
 Frc consts  --      1.4723                 1.5946                 5.5541
 IR Inten    --      0.8112                 5.6692                61.0385

                     43                     44                     45
                      A                      A                      A
 Frequencies --   3015.0201              3034.5075              3064.2277
 Red. masses --      1.0576                 1.0593                 1.0919
 Frc consts  --      5.6642                 5.7471                 6.0405
 IR Inten    --     54.8037                46.7015                22.8220

                     46                     47                     48
                      A                      A                      A
 Frequencies --   3071.5192              3098.7803              3192.5197
 Red. masses --      1.1056                 1.1051                 1.0915
 Frc consts  --      6.1457                 6.2520                 6.5545
 IR Inten    --     36.9220                26.8677                18.1097

                     49                     50                     51
                      A                      A                      A
 Frequencies --   3227.8518              3789.2493              3814.1499
 Red. masses --      1.0979                 1.0660                 1.0661
 Frc consts  --      6.7397                 9.0182                 9.1378
 IR Inten    --      4.3292                21.5635                14.2060

 - Thermochemistry -
 -------------------
 Temperature   298.150 Kelvin.  Pressure   1.00000 Atm.
 Atom     1 has atomic number  8 and mass  15.99491

 Molecular mass:   126.06808 amu.
 Principal axes and moments of inertia in atomic units:
                           1         2         3
     Eigenvalues --   478.990771548.234761699.74472
           X            0.99996   0.00223   0.00910
           Y           -0.00215   0.99996  -0.00886
           Z           -0.00912   0.00884   0.99992
 This molecule is an asymmetric top.
 Rotational symmetry number  1.
 Warning -- assumption of classical behavior for rotation
           may cause significant error
 Rotational temperatures (Kelvin)      0.18083     0.05594     0.05096
 Rotational constants (GHZ):           3.76780     1.16568     1.06177
 Zero-point vibrational energy     416831.7 (Joules/Mol)
                                   99.62517 (Kcal/Mol)
 Warning -- explicit consideration of  11 degrees of freedom as
           vibrations may cause significant error
 Vibrational temperatures:    119.10   212.94   326.03   403.74   434.82
          (Kelvin)            485.53   528.58   562.20   636.42   668.87
                              867.91   955.14  1066.97  1076.56  1202.57
                             1279.60  1303.93  1326.67  1365.17  1377.64
                             1413.56  1455.53  1496.49  1545.23  1563.33
                             1606.54  1619.46  1640.32  1713.68  1736.05
                             1780.74  1825.19  1847.36  1876.53  1935.02
                             1981.68  2042.10  2069.16  2147.84  2157.93
                             2175.51  4269.53  4337.94  4365.97  4408.73
                             4419.23  4458.45  4593.32  4644.15  5451.88
                             5487.70

 Zero-point correction=                           0.158763 (Hartree/Particle)
 Thermal correction to Energy=                    0.167101
 Thermal correction to Enthalpy=                  0.168045
 Thermal correction to Gibbs Free Energy=         0.126096
 Sum of electronic and zero-point Energies=           -422.963084
 Sum of electronic and thermal Energies=              -422.954746
 Sum of electronic and thermal Enthalpies=            -422.953802
 Sum of electronic and thermal Free Energies=         -422.995751

                     E (Thermal)             CV                S
                      KCal/Mol        Cal/Mol-Kelvin    Cal/Mol-Kelvin
 Total                  104.857             32.874             88.290
 Electronic               0.000              0.000              0.000
 Translational            0.889              2.981             40.409
 Rotational               0.889              2.981             28.624
 Vibrational            103.080             26.912             19.258
 Vibration     1          0.600              1.961              3.824
 Vibration     2          0.617              1.905              2.698
 Vibration     3          0.650              1.800              1.906
 Vibration     4          0.680              1.709              1.530
 Vibration     5          0.694              1.670              1.405
 Vibration     6          0.718              1.601              1.224
 Vibration     7          0.740              1.539              1.091
 Vibration     8          0.758              1.490              0.997
 Vibration     9          0.802              1.378              0.819
 Vibration    10          0.822              1.328              0.752
 Vibration    11          0.962              1.025              0.444

 Normal termination of Gaussian 09 at Tue Jan 28 10:47:53 2020.
