 Gaussian 09, Revision D.01,
 Gaussian 09:  ES64L-G09RevD.01 24-Apr-2013

 -----------------------------
 # b3lyp 6-31G(2df,p) opt Freq
 -----------------------------

 -----
 titel
 -----
 Symbolic Z-matrix:
 Charge =  0 Multiplicity = 1

 SCF Done:  E(RB3LYP) =  -423.210572157     A.U. after   14 cycles
 Optimization completed.
    -- Stationary point found.
 Normal termination of Gaussian 09 at Tue Jan 28 08:13:14 2020.

 ----------------------------------------------------------------------
 #N Geom=AllCheck Guess=TCheck SCRF=Check GenChk RB3LYP/6-31G(2df,p) Fr
 eq
 ----------------------------------------------------------------------

 Structure from the checkpoint file:  "/scratch/puck/g09_18455dd1-eea4-47db-8fac-7c6dc0564ddc/Gau-14295.chk"
 -----
 titel
 -----
 Charge =  0 Multiplicity = 1

                         Standard orientation:
 ---------------------------------------------------------------------
 Center     Atomic      Atomic             Coordinates (Angstroms)
 Number     Number       Type             X           Y           Z
 ---------------------------------------------------------------------
      1          6           0       -2.640878   -1.233566    0.334451
      2          6           0       -1.595416   -0.360670   -0.374835
      3          6           0       -1.524228    1.050251    0.231295
      4          8           0       -0.430872    1.783946   -0.283754
      5          6           0        0.818258    1.240263    0.097878
      6          6           0        0.881243   -0.254401   -0.094544
      7          6           0        2.191213   -0.915098   -0.009567
      8          8           0        3.231300   -0.338016    0.219481
      9          6           0       -0.223913   -0.973690   -0.332909
     10          1           0       -2.388700   -1.370744    1.391411
     11          1           0       -3.632895   -0.773975    0.280510
     12          1           0       -2.705219   -2.223972   -0.126808
     13          1           0       -1.889600   -0.264107   -1.430911
     14          1           0       -2.423803    1.624003   -0.009025
     15          1           0       -1.455863    0.970991    1.330026
     16          1           0        1.579870    1.728958   -0.516566
     17          1           0        1.051424    1.488545    1.147605
     18          1           0        2.163614   -2.016396   -0.173728
     19          1           0       -0.139928   -2.049279   -0.488945
 ---------------------------------------------------------------------

 SCF Done:  E(RB3LYP) =  -423.210572157     A.U. after    1 cycles

 The electronic state is 1-A.
 Alpha  occ. eigenvalues --  -19.14608 -19.13475 -10.26772 -10.23564 -10.23549
 Alpha  occ. eigenvalues --  -10.21331 -10.20768 -10.20059 -10.19325  -1.04361
 Alpha  occ. eigenvalues --   -1.03912  -0.83495  -0.79346  -0.71148  -0.65791
 Alpha  occ. eigenvalues --   -0.65450  -0.58135  -0.53815  -0.51325  -0.49056
 Alpha  occ. eigenvalues --   -0.47055  -0.45571  -0.43182  -0.42303  -0.41228
 Alpha  occ. eigenvalues --   -0.39896  -0.39243  -0.38298  -0.37305  -0.35563
 Alpha  occ. eigenvalues --   -0.31546  -0.26844  -0.26392  -0.24945
 Alpha virt. eigenvalues --   -0.05700   0.05672   0.08528   0.10071   0.11359
 Alpha virt. eigenvalues --    0.12256   0.13819   0.13906   0.15384   0.16331
 Alpha virt. eigenvalues --    0.17310   0.18362   0.18669   0.21096   0.22812

 Mulliken charges:
               1
     1  C   -0.404964
     2  C   -0.044299
     3  C   -0.089370
     4  O   -0.247303
     5  C   -0.167522
     6  C    0.162966
     7  C    0.097835
     8  O   -0.277516
     9  C   -0.124614
    10  H    0.125192
    11  H    0.123689
    12  H    0.122311
    13  H    0.105223
    14  H    0.111640
    15  H    0.089498
    16  H    0.137102
    17  H    0.112034
    18  H    0.068998
    19  H    0.099099
 Sum of Mulliken charges =   0.00000

 Dipole moment (field-independent basis, Debye):
    X=             -3.3462    Y=             -1.6831    Z=              0.0389  Tot=              3.7459
 Quadrupole moment (field-independent basis, Debye-Ang):
   XX=            -61.1765   YY=            -53.5089   ZZ=            -52.9426
   XY=              0.7928   XZ=             -1.2695   YZ=              1.6631

  Exact polarizability: 110.712   5.886  77.468   3.675   3.431  56.068
 Approx polarizability: 165.333  19.240 113.699  12.429   5.625  89.496

                      1                      2                      3
                      A                      A                      A
 Frequencies --     94.5378               109.6212               180.4343
 Red. masses --      4.5742                 2.2955                 4.6128
 Frc consts  --      0.0241                 0.0163                 0.0885
 IR Inten    --      3.4408                 0.6313                 6.3403

                      4                      5                      6
                      A                      A                      A
 Frequencies --    209.1585               242.1353               290.5272
 Red. masses --      1.2330                 2.0959                 2.8474
 Frc consts  --      0.0318                 0.0724                 0.1416
 IR Inten    --      1.7308                 2.9821                 3.7552

                      7                      8                      9
                      A                      A                      A
 Frequencies --    321.1149               399.0819               430.5850
 Red. masses --      2.4276                 3.1216                 2.7943
 Frc consts  --      0.1475                 0.2929                 0.3052
 IR Inten    --      3.4940                 2.0307                 1.9509

                     10                     11                     12
                      A                      A                      A
 Frequencies --    464.1084               543.6663               556.4326
 Red. masses --      3.7277                 3.4272                 3.1965
 Frc consts  --      0.4731                 0.5968                 0.5831
 IR Inten    --      2.2415                 3.1090                 1.7534

                     13                     14                     15
                      A                      A                      A
 Frequencies --    711.2710               852.3911               876.2584
 Red. masses --      5.0037                 2.0390                 1.9230
 Frc consts  --      1.4915                 0.8729                 0.8699
 IR Inten    --     37.9385                14.3709                 2.7481

                     16                     17                     18
                      A                      A                      A
 Frequencies --    882.1371               949.5841               967.8799
 Red. masses --      1.8368                 2.3432                 1.5725
 Frc consts  --      0.8422                 1.2449                 0.8679
 IR Inten    --      1.9964                 9.6398                 4.5742

                     19                     20                     21
                      A                      A                      A
 Frequencies --    986.4704              1021.5195              1047.5280
 Red. masses --      2.5230                 1.5590                 1.9622
 Frc consts  --      1.4466                 0.9585                 1.2686
 IR Inten    --     12.0069                 6.9316                 2.7184

                     22                     23                     24
                      A                      A                      A
 Frequencies --   1074.6758              1117.8653              1143.9822
 Red. masses --      2.3917                 2.0229                 4.8479
 Frc consts  --      1.6275                 1.4894                 3.7381
 IR Inten    --     13.6434                 0.3316                63.0117

                     25                     26                     27
                      A                      A                      A
 Frequencies --   1171.4115              1216.0278              1243.2608
 Red. masses --      2.0882                 1.9027                 1.1838
 Frc consts  --      1.6883                 1.6577                 1.0780
 IR Inten    --      8.4233                37.2247                20.4223

                     28                     29                     30
                      A                      A                      A
 Frequencies --   1303.3113              1309.8749              1334.9807
 Red. masses --      1.3922                 1.3503                 1.3228
 Frc consts  --      1.3933                 1.3651                 1.3889
 IR Inten    --     14.2059                 5.6964                15.3982

                     31                     32                     33
                      A                      A                      A
 Frequencies --   1354.1487              1392.5070              1409.9072
 Red. masses --      1.4557                 1.5140                 1.3437
 Frc consts  --      1.5728                 1.7297                 1.5737
 IR Inten    --      2.4852                12.9317                 6.8812

                     34                     35                     36
                      A                      A                      A
 Frequencies --   1420.0495              1429.7137              1482.0472
 Red. masses --      1.4448                 1.2796                 1.0830
 Frc consts  --      1.7165                 1.5411                 1.4015
 IR Inten    --     14.9269                 4.8769                 2.0084

                     37                     38                     39
                      A                      A                      A
 Frequencies --   1494.9510              1498.9726              1501.5084
 Red. masses --      1.0594                 1.0619                 1.0738
 Frc consts  --      1.3950                 1.4058                 1.4263
 IR Inten    --      1.5079                 4.6288                 6.1142

                     40                     41                     42
                      A                      A                      A
 Frequencies --   1704.3518              1785.1275              2872.1951
 Red. masses --      7.5332                10.4569                 1.0828
 Frc consts  --     12.8928                19.6333                 5.2631
 IR Inten    --     45.6211               255.5154               110.3761

                     43                     44                     45
                      A                      A                      A
 Frequencies --   2958.6357              2964.1694              2994.8659
 Red. masses --      1.0708                 1.0723                 1.0806
 Frc consts  --      5.5224                 5.5510                 5.7106
 IR Inten    --     26.5465                53.2059                22.0360

                     46                     47                     48
                      A                      A                      A
 Frequencies --   3033.5222              3086.5172              3088.6250
 Red. masses --      1.0348                 1.0903                 1.0907
 Frc consts  --      5.6105                 6.1198                 6.1303
 IR Inten    --     27.0345                26.9735                12.2551

                     49                     50                     51
                      A                      A                      A
 Frequencies --   3104.3941              3106.5621              3128.9697
 Red. masses --      1.1016                 1.1018                 1.0887
 Frc consts  --      6.2553                 6.2650                 6.2799
 IR Inten    --     29.0076                22.0232                15.5459

 - Thermochemistry -
 -------------------
 Temperature   298.150 Kelvin.  Pressure   1.00000 Atm.
 Atom     1 has atomic number  6 and mass  12.00000

 Molecular mass:   126.06808 amu.
 Principal axes and moments of inertia in atomic units:
                           1         2         3
     Eigenvalues --   592.501981601.864552087.39963
           X            0.99960   0.02714  -0.00741
           Y           -0.02704   0.99954   0.01376
           Z            0.00778  -0.01355   0.99988
 This molecule is an asymmetric top.
 Rotational symmetry number  1.
 Warning -- assumption of classical behavior for rotation
           may cause significant error
 Rotational temperatures (Kelvin)      0.14618     0.05407     0.04149
 Rotational constants (GHZ):           3.04597     1.12665     0.86459
 Zero-point vibrational energy     417877.0 (Joules/Mol)
                                   99.87499 (Kcal/Mol)
 Warning -- explicit consideration of  12 degrees of freedom as
           vibrations may cause significant error
 Vibrational temperatures:    136.02   157.72   259.60   300.93   348.38
          (Kelvin)            418.00   462.01   574.19   619.52   667.75
                              782.21   800.58  1023.36  1226.40  1260.74
                             1269.20  1366.24  1392.56  1419.31  1469.74
                             1507.16  1546.22  1608.36  1645.93  1685.40
                             1749.59  1788.77  1875.17  1884.62  1920.74
                             1948.32  2003.50  2028.54  2043.13  2057.04
                             2132.33  2150.90  2156.68  2160.33  2452.18
                             2568.40  4132.44  4256.81  4264.77  4308.94
                             4364.56  4440.80  4443.84  4466.53  4469.64
                             4501.88

 Zero-point correction=                           0.159161 (Hartree/Particle)
 Thermal correction to Energy=                    0.167832
 Thermal correction to Enthalpy=                  0.168776
 Thermal correction to Gibbs Free Energy=         0.125685
 Sum of electronic and zero-point Energies=           -423.051411
 Sum of electronic and thermal Energies=              -423.042740
 Sum of electronic and thermal Enthalpies=            -423.041796
 Sum of electronic and thermal Free Energies=         -423.084887

                     E (Thermal)             CV                S
                      KCal/Mol        Cal/Mol-Kelvin    Cal/Mol-Kelvin
 Total                  105.316             32.222             90.694
 Electronic               0.000              0.000              0.000
 Translational            0.889              2.981             40.409
 Rotational               0.889              2.981             29.073
 Vibrational            103.539             26.261             21.212
 Vibration     1          0.603              1.953              3.564
 Vibration     2          0.606              1.942              3.276
 Vibration     3          0.629              1.866              2.324
 Vibration     4          0.642              1.827              2.051
 Vibration     5          0.658              1.776              1.787
 Vibration     6          0.686              1.691              1.471
 Vibration     7          0.707              1.633              1.304
 Vibration     8          0.765              1.472              0.966
 Vibration     9          0.792              1.404              0.857
 Vibration    10          0.822              1.330              0.754
 Vibration    11          0.899              1.154              0.557
 Vibration    12          0.912              1.126              0.531

 Optimization completed.
    -- Stationary point found.
 Normal termination of Gaussian 09 at Tue Jan 28 08:54:22 2020.
