 Gaussian 09, Revision D.01,
 Gaussian 09:  ES64L-G09RevD.01 24-Apr-2013

 -----------------------------
 # b3lyp 6-31G(2df,p) opt Freq
 -----------------------------

 -----
 titel
 -----
 Symbolic Z-matrix:
 Charge =  0 Multiplicity = 1

 SCF Done:  E(RB3LYP) =  -423.121103182     A.U. after   14 cycles
 Optimization completed.
    -- Stationary point found.
 Normal termination of Gaussian 09 at Mon Jan 27 17:27:46 2020.

 ----------------------------------------------------------------------
 #N Geom=AllCheck Guess=TCheck SCRF=Check GenChk RB3LYP/6-31G(2df,p) Fr
 eq
 ----------------------------------------------------------------------

 Structure from the checkpoint file:  "/scratch/puck/g09_2949843f-ce89-4c70-8d21-4b6574b9353b/Gau-39353.chk"
 -----
 titel
 -----
 Charge =  0 Multiplicity = 1

                         Standard orientation:
 ---------------------------------------------------------------------
 Center     Atomic      Atomic             Coordinates (Angstroms)
 Number     Number       Type             X           Y           Z
 ---------------------------------------------------------------------
      1          6           0       -1.553464    1.742792   -0.386945
      2          6           0       -1.185958    0.395503    0.139386
      3          6           0       -0.376887    0.095028    1.366746
      4          6           0        0.046640   -0.492769    0.033788
      5          6           0       -0.946504   -1.585039   -0.349089
      6          8           0       -2.075153   -0.700053   -0.134792
      7          6           0        1.370837   -0.258903   -0.591458
      8          6           0        2.631833   -0.322606    0.165628
      9          8           0        2.056876    0.934695   -0.197877
     10          1           0       -1.766016    1.700803   -1.459595
     11          1           0       -2.446979    2.122253    0.121931
     12          1           0       -0.736356    2.448856   -0.217198
     13          1           0        0.263061    0.904261    1.703951
     14          1           0       -0.790369   -0.540911    2.145577
     15          1           0       -0.884235   -1.881825   -1.403566
     16          1           0       -0.989496   -2.480231    0.283133
     17          1           0        1.419553   -0.460779   -1.663549
     18          1           0        2.598342   -0.558804    1.227775
     19          1           0        3.559730   -0.574790   -0.345450
 ---------------------------------------------------------------------

 SCF Done:  E(RB3LYP) =  -423.121103182     A.U. after    1 cycles

 The electronic state is 1-A.
 Alpha  occ. eigenvalues --  -19.15733 -19.13496 -10.24637 -10.24371 -10.23694
 Alpha  occ. eigenvalues --  -10.23626 -10.20125 -10.18572 -10.18158  -1.07595
 Alpha  occ. eigenvalues --   -1.04952  -0.83762  -0.74582  -0.69731  -0.66945
 Alpha  occ. eigenvalues --   -0.64407  -0.58614  -0.53737  -0.49908  -0.49482
 Alpha  occ. eigenvalues --   -0.48787  -0.45956  -0.42331  -0.41543  -0.40493
 Alpha  occ. eigenvalues --   -0.39135  -0.38954  -0.37967  -0.34056  -0.32978
 Alpha  occ. eigenvalues --   -0.31483  -0.27530  -0.26181  -0.22942
 Alpha virt. eigenvalues --    0.06856   0.09278   0.09934   0.10629   0.11489
 Alpha virt. eigenvalues --    0.12352   0.13476   0.14638   0.16167   0.16495
 Alpha virt. eigenvalues --    0.17052   0.18035   0.18826   0.19426   0.21027

 Mulliken charges:
               1
     1  C   -0.488032
     2  C    0.426383
     3  C   -0.399178
     4  C    0.229076
     5  C   -0.146258
     6  O   -0.323438
     7  C   -0.062304
     8  C   -0.174178
     9  O   -0.234700
    10  H    0.126436
    11  H    0.131955
    12  H    0.140882
    13  H    0.131066
    14  H    0.108209
    15  H    0.105303
    16  H    0.103801
    17  H    0.091602
    18  H    0.116711
    19  H    0.116666
 Sum of Mulliken charges =   0.00000

 Dipole moment (field-independent basis, Debye):
    X=              1.3210    Y=             -1.0523    Z=             -0.0616  Tot=              1.6900
 Quadrupole moment (field-independent basis, Debye-Ang):
   XX=            -56.9289   YY=            -52.2263   ZZ=            -50.9644
   XY=             -5.3894   XZ=              0.2115   YZ=              0.7222

  Exact polarizability:  84.827  -3.784  73.300   2.115   1.494  70.213
 Approx polarizability: 117.129  -3.375 108.483   4.434   3.651 105.425

                      1                      2                      3
                      A                      A                      A
 Frequencies --     65.9194               135.6567               182.9443
 Red. masses --      3.8536                 3.0416                 2.1243
 Frc consts  --      0.0099                 0.0330                 0.0419
 IR Inten    --      2.3833                 3.0188                 3.6790

                      4                      5                      6
                      A                      A                      A
 Frequencies --    210.7778               250.5898               295.7749
 Red. masses --      1.3414                 2.4433                 2.8987
 Frc consts  --      0.0351                 0.0904                 0.1494
 IR Inten    --      1.0818                 1.3890                 0.2435

                      7                      8                      9
                      A                      A                      A
 Frequencies --    375.3975               383.4415               463.0113
 Red. masses --      3.9639                 2.6442                 2.5634
 Frc consts  --      0.3291                 0.2291                 0.3238
 IR Inten    --      0.6474                 3.2453                 3.1178

                     10                     11                     12
                      A                      A                      A
 Frequencies --    536.0000               624.5554               708.3710
 Red. masses --      3.0564                 2.8834                 2.7105
 Frc consts  --      0.5174                 0.6627                 0.8013
 IR Inten    --      9.5107                 1.0423                 4.3073

                     13                     14                     15
                      A                      A                      A
 Frequencies --    764.6959               846.2649               856.2665
 Red. masses --      3.2046                 4.4055                 7.9122
 Frc consts  --      1.1041                 1.8589                 3.4179
 IR Inten    --      3.1752                10.9349                 9.9065

                     16                     17                     18
                      A                      A                      A
 Frequencies --    896.4258               918.5129               952.2219
 Red. masses --      2.2210                 2.3722                 1.4163
 Frc consts  --      1.0516                 1.1792                 0.7566
 IR Inten    --     13.6824                24.1793                15.5331

                     19                     20                     21
                      A                      A                      A
 Frequencies --    977.8549               990.0776              1023.2902
 Red. masses --      1.7198                 4.0425                 1.6103
 Frc consts  --      0.9689                 2.3347                 0.9935
 IR Inten    --     23.1969                58.0562                 4.5643

                     22                     23                     24
                      A                      A                      A
 Frequencies --   1049.1051              1071.8275              1098.6164
 Red. masses --      1.6192                 1.5750                 1.2329
 Frc consts  --      1.0500                 1.0661                 0.8767
 IR Inten    --      2.5822                 0.6020                 3.8455

                     25                     26                     27
                      A                      A                      A
 Frequencies --   1111.0354              1152.2475              1156.1936
 Red. masses --      1.7027                 1.3941                 1.2010
 Frc consts  --      1.2384                 1.0905                 0.9459
 IR Inten    --     12.9958                 0.0588                 4.5321

                     28                     29                     30
                      A                      A                      A
 Frequencies --   1172.6645              1182.1927              1220.5504
 Red. masses --      1.3469                 2.2509                 3.3812
 Frc consts  --      1.0913                 1.8535                 2.9678
 IR Inten    --      2.6819                 9.8019                42.0889

                     31                     32                     33
                      A                      A                      A
 Frequencies --   1265.0589              1297.1070              1343.0774
 Red. masses --      2.6319                 1.6483                 1.6997
 Frc consts  --      2.4816                 1.6339                 1.8064
 IR Inten    --      6.7094                 6.9889                 7.8731

                     34                     35                     36
                      A                      A                      A
 Frequencies --   1388.4899              1420.7864              1447.4508
 Red. masses --      1.3770                 1.5112                 1.6198
 Frc consts  --      1.5641                 1.7973                 1.9994
 IR Inten    --      1.2860                13.4078                11.9678

                     37                     38                     39
                      A                      A                      A
 Frequencies --   1476.0901              1490.7194              1506.8617
 Red. masses --      1.0491                 1.2674                 1.3782
 Frc consts  --      1.3468                 1.6595                 1.8437
 IR Inten    --      3.3398                 7.2885                 7.4627

                     40                     41                     42
                      A                      A                      A
 Frequencies --   1521.2645              1524.2657              3013.2939
 Red. masses --      1.2418                 1.5388                 1.0547
 Frc consts  --      1.6933                 2.1065                 5.6421
 IR Inten    --      1.0149                 5.1933                71.8420

                     43                     44                     45
                      A                      A                      A
 Frequencies --   3034.2059              3060.8538              3083.9282
 Red. masses --      1.0366                 1.1108                 1.0671
 Frc consts  --      5.6226                 6.1314                 5.9797
 IR Inten    --     23.9021                35.2588                30.3138

                     46                     47                     48
                      A                      A                      A
 Frequencies --   3088.7171              3097.5030              3110.1697
 Red. masses --      1.0693                 1.0998                 1.0555
 Frc consts  --      6.0105                 6.2169                 6.0154
 IR Inten    --     30.4541                18.4158                 9.7198

                     49                     50                     51
                      A                      A                      A
 Frequencies --   3125.0141              3177.4529              3211.9018
 Red. masses --      1.1005                 1.1200                 1.1147
 Frc consts  --      6.3318                 6.6623                 6.7755
 IR Inten    --     12.0415                24.1801                 4.4894

 - Thermochemistry -
 -------------------
 Temperature   298.150 Kelvin.  Pressure   1.00000 Atm.
 Atom     1 has atomic number  6 and mass  12.00000

 Molecular mass:   126.06808 amu.
 Principal axes and moments of inertia in atomic units:
                           1         2         3
     Eigenvalues --   599.323721365.486711624.67710
           X            0.99905  -0.04326   0.00616
           Y            0.04327   0.99906  -0.00290
           Z           -0.00602   0.00316   0.99998
 This molecule is an asymmetric top.
 Rotational symmetry number  1.
 Warning -- assumption of classical behavior for rotation
           may cause significant error
 Rotational temperatures (Kelvin)      0.14452     0.06343     0.05331
 Rotational constants (GHZ):           3.01130     1.32168     1.11083
 Zero-point vibrational energy     414845.2 (Joules/Mol)
                                   99.15037 (Kcal/Mol)
 Warning -- explicit consideration of  10 degrees of freedom as
           vibrations may cause significant error
 Vibrational temperatures:     94.84   195.18   263.22   303.26   360.54
          (Kelvin)            425.55   540.11   551.69   666.17   771.18
                              898.59  1019.19  1100.23  1217.58  1231.97
                             1289.76  1321.53  1370.03  1406.91  1424.50
                             1472.28  1509.43  1542.12  1580.66  1598.53
                             1657.83  1663.50  1687.20  1700.91  1756.10
                             1820.14  1866.25  1932.39  1997.72  2044.19
                             2082.56  2123.76  2144.81  2168.04  2188.76
                             2193.08  4335.45  4365.54  4403.88  4437.08
                             4443.97  4456.61  4474.83  4496.19  4571.64
                             4621.20

 Zero-point correction=                           0.158006 (Hartree/Particle)
 Thermal correction to Energy=                    0.166479
 Thermal correction to Enthalpy=                  0.167423
 Thermal correction to Gibbs Free Energy=         0.124767
 Sum of electronic and zero-point Energies=           -422.963097
 Sum of electronic and thermal Energies=              -422.954624
 Sum of electronic and thermal Enthalpies=            -422.953680
 Sum of electronic and thermal Free Energies=         -422.996336

                     E (Thermal)             CV                S
                      KCal/Mol        Cal/Mol-Kelvin    Cal/Mol-Kelvin
 Total                  104.467             32.114             89.778
 Electronic               0.000              0.000              0.000
 Translational            0.889              2.981             40.409
 Rotational               0.889              2.981             28.677
 Vibrational            102.690             26.152             20.692
 Vibration     1          0.597              1.971              4.272
 Vibration     2          0.613              1.918              2.864
 Vibration     3          0.630              1.863              2.298
 Vibration     4          0.643              1.824              2.037
 Vibration     5          0.663              1.762              1.726
 Vibration     6          0.690              1.682              1.441
 Vibration     7          0.746              1.523              1.058
 Vibration     8          0.753              1.506              1.026
 Vibration     9          0.821              1.332              0.757
 Vibration    10          0.891              1.170              0.574

 Normal termination of Gaussian 09 at Mon Jan 27 18:29:15 2020.
