 Gaussian 09, Revision D.01,
 Gaussian 09:  ES64L-G09RevD.01 24-Apr-2013

 -----------------------------
 # b3lyp 6-31G(2df,p) opt Freq
 -----------------------------

 -----
 titel
 -----
 Symbolic Z-matrix:
 Charge =  0 Multiplicity = 1

 SCF Done:  E(RB3LYP) =  -423.118747567     A.U. after   13 cycles
 Optimization completed.
    -- Stationary point found.
 Normal termination of Gaussian 09 at Mon Jan 27 15:33:15 2020.

 ----------------------------------------------------------------------
 #N Geom=AllCheck Guess=TCheck SCRF=Check GenChk RB3LYP/6-31G(2df,p) Fr
 eq
 ----------------------------------------------------------------------

 Structure from the checkpoint file:  "/scratch/puck/g09_7c20f071-78f7-428d-b70a-9d40015bd123/Gau-163006.chk"
 -----
 titel
 -----
 Charge =  0 Multiplicity = 1

                         Standard orientation:
 ---------------------------------------------------------------------
 Center     Atomic      Atomic             Coordinates (Angstroms)
 Number     Number       Type             X           Y           Z
 ---------------------------------------------------------------------
      1          6           0       -2.255251    0.961974    0.400206
      2          6           0       -1.418798    0.041255   -0.495276
      3          8           0       -1.829082   -1.314760   -0.387972
      4          6           0        0.048639    0.140416   -0.176473
      5          6           0        0.926323    1.419349   -0.225540
      6          6           0        2.107782    0.449338   -0.237652
      7          6           0        1.642022   -0.733804    0.628064
      8          8           0        0.354396   -0.411342    1.156550
      9          6           0        1.245335   -0.678437   -0.801560
     10          1           0       -3.316757    0.802446    0.196309
     11          1           0       -2.065128    0.743236    1.455494
     12          1           0       -2.018624    2.015732    0.219690
     13          1           0       -1.564034    0.318876   -1.546624
     14          1           0       -1.442959   -1.638084    0.436613
     15          1           0        0.827823    1.939590   -1.181958
     16          1           0        0.814519    2.117808    0.609417
     17          1           0        3.152538    0.653981   -0.432584
     18          1           0        2.290692   -1.395271    1.186456
     19          1           0        1.343093   -1.350046   -1.642040
 ---------------------------------------------------------------------

 SCF Done:  E(RB3LYP) =  -423.118747567     A.U. after    1 cycles

 The electronic state is 1-A.
 Alpha  occ. eigenvalues --  -19.14278 -19.12726 -10.24716 -10.24327 -10.23366
 Alpha  occ. eigenvalues --  -10.20057 -10.19514 -10.19171 -10.17274  -1.06635
 Alpha  occ. eigenvalues --   -1.01035  -0.86128  -0.76951  -0.71509  -0.66375
 Alpha  occ. eigenvalues --   -0.60850  -0.56741  -0.54248  -0.53796  -0.47738
 Alpha  occ. eigenvalues --   -0.45465  -0.44402  -0.43735  -0.42115  -0.40726
 Alpha  occ. eigenvalues --   -0.38571  -0.37530  -0.36261  -0.34073  -0.31684
 Alpha  occ. eigenvalues --   -0.29661  -0.27076  -0.26288  -0.23890
 Alpha virt. eigenvalues --    0.06980   0.09021   0.11021   0.11949   0.13281
 Alpha virt. eigenvalues --    0.13618   0.14429   0.14691   0.15625   0.16763
 Alpha virt. eigenvalues --    0.17228   0.18107   0.18509   0.19458   0.20404

 Mulliken charges:
               1
     1  C   -0.407062
     2  C   -0.001557
     3  O   -0.436983
     4  C    0.437492
     5  C   -0.281611
     6  C   -0.125156
     7  C    0.099757
     8  O   -0.346877
     9  C   -0.206710
    10  H    0.124141
    11  H    0.131676
    12  H    0.114950
    13  H    0.089856
    14  H    0.286351
    15  H    0.106811
    16  H    0.103418
    17  H    0.094548
    18  H    0.110439
    19  H    0.106515
 Sum of Mulliken charges =   0.00000

 Dipole moment (field-independent basis, Debye):
    X=              1.6491    Y=              0.8514    Z=             -0.4902  Tot=              1.9195
 Quadrupole moment (field-independent basis, Debye-Ang):
   XX=            -52.0945   YY=            -52.6127   ZZ=            -53.8376
   XY=             -3.9125   XZ=             -1.4297   YZ=             -2.2779

  Exact polarizability:  83.316  -2.359  73.127   0.167  -1.431  65.111
 Approx polarizability: 109.880   0.654 109.225   1.720  -3.331 106.557

                      1                      2                      3
                      A                      A                      A
 Frequencies --     86.1196               156.9901               197.0952
 Red. masses --      3.7931                 3.5552                 2.6011
 Frc consts  --      0.0166                 0.0516                 0.0595
 IR Inten    --      3.5480                 0.8073                 4.9508

                      4                      5                      6
                      A                      A                      A
 Frequencies --    254.0506               315.6232               384.4392
 Red. masses --      1.1912                 3.3360                 1.9657
 Frc consts  --      0.0453                 0.1958                 0.1712
 IR Inten    --      1.7431                 1.0045                24.4373

                      7                      8                      9
                      A                      A                      A
 Frequencies --    438.6991               462.2964               491.3380
 Red. masses --      1.4638                 2.1623                 2.7739
 Frc consts  --      0.1660                 0.2723                 0.3945
 IR Inten    --     69.7670                17.9675                18.3626

                     10                     11                     12
                      A                      A                      A
 Frequencies --    563.9468               665.6046               766.9164
 Red. masses --      4.7857                 2.9518                 2.2502
 Frc consts  --      0.8967                 0.7705                 0.7798
 IR Inten    --      5.2967                13.4550                 2.5033

                     13                     14                     15
                      A                      A                      A
 Frequencies --    771.5982               789.1169               817.4776
 Red. masses --      2.6210                 2.6416                 1.9178
 Frc consts  --      0.9194                 0.9692                 0.7551
 IR Inten    --      5.7790                 7.5283                 8.2697

                     16                     17                     18
                      A                      A                      A
 Frequencies --    854.6173               890.5770               931.6499
 Red. masses --      3.0910                 2.0170                 1.4655
 Frc consts  --      1.3301                 0.9425                 0.7495
 IR Inten    --     31.7544                 5.3324                10.7786

                     19                     20                     21
                      A                      A                      A
 Frequencies --    960.9292               993.8946              1014.5820
 Red. masses --      1.7635                 1.9768                 1.7693
 Frc consts  --      0.9594                 1.1505                 1.0731
 IR Inten    --      2.5380                24.4129                15.2751

                     22                     23                     24
                      A                      A                      A
 Frequencies --   1022.7511              1029.4347              1044.6714
 Red. masses --      2.5994                 1.7643                 2.6615
 Frc consts  --      1.6020                 1.1016                 1.7113
 IR Inten    --     22.1791                 9.1825                32.5351

                     25                     26                     27
                      A                      A                      A
 Frequencies --   1055.6372              1085.4560              1103.2514
 Red. masses --      2.3318                 2.2925                 1.8309
 Frc consts  --      1.5310                 1.5914                 1.3130
 IR Inten    --      7.5704                13.9588                56.6525

                     28                     29                     30
                      A                      A                      A
 Frequencies --   1128.2712              1145.9942              1177.6283
 Red. masses --      2.7591                 1.4117                 1.8108
 Frc consts  --      2.0694                 1.0923                 1.4796
 IR Inten    --     17.3158                 2.3067                 5.7856

                     31                     32                     33
                      A                      A                      A
 Frequencies --   1229.3200              1266.5655              1295.9287
 Red. masses --      1.6894                 1.4521                 1.7289
 Frc consts  --      1.5042                 1.3725                 1.7107
 IR Inten    --     13.6469                 5.6232                 4.4731

                     34                     35                     36
                      A                      A                      A
 Frequencies --   1323.2743              1357.2747              1380.0756
 Red. masses --      1.6453                 2.6499                 1.9327
 Frc consts  --      1.6975                 2.8761                 2.1688
 IR Inten    --     29.8609                 4.1158                17.4314

                     37                     38                     39
                      A                      A                      A
 Frequencies --   1399.9678              1440.8837              1487.8988
 Red. masses --      1.2574                 1.3166                 1.1204
 Frc consts  --      1.4520                 1.6105                 1.4614
 IR Inten    --      7.7476                49.6536                 2.5151

                     40                     41                     42
                      A                      A                      A
 Frequencies --   1493.0518              1500.4478              3039.2356
 Red. masses --      1.0695                 1.1097                 1.0823
 Frc consts  --      1.4047                 1.4719                 5.8904
 IR Inten    --      8.8940                 1.4114                16.6444

                     43                     44                     45
                      A                      A                      A
 Frequencies --   3039.7201              3050.2135              3111.9433
 Red. masses --      1.0370                 1.0570                 1.1008
 Frc consts  --      5.6453                 5.7939                 6.2811
 IR Inten    --     11.8360                38.6983                21.2575

                     46                     47                     48
                      A                      A                      A
 Frequencies --   3112.7159              3127.9280              3200.3646
 Red. masses --      1.1078                 1.1025                 1.0917
 Frc consts  --      6.3237                 6.3555                 6.5881
 IR Inten    --     21.2546                19.7623                10.6245

                     49                     50                     51
                      A                      A                      A
 Frequencies --   3209.1429              3226.8023              3767.9231
 Red. masses --      1.0904                 1.1043                 1.0653
 Frc consts  --      6.6164                 6.7747                 8.9110
 IR Inten    --     16.5173                10.0402                29.3145

 - Thermochemistry -
 -------------------
 Temperature   298.150 Kelvin.  Pressure   1.00000 Atm.
 Atom     1 has atomic number  6 and mass  12.00000

 Molecular mass:   126.06808 amu.
 Principal axes and moments of inertia in atomic units:
                           1         2         3
     Eigenvalues --   550.927371255.964361423.72871
           X            0.99942  -0.03060  -0.01465
           Y            0.03054   0.99953  -0.00386
           Z            0.01476   0.00341   0.99989
 This molecule is an asymmetric top.
 Rotational symmetry number  1.
 Warning -- assumption of classical behavior for rotation
           may cause significant error
 Rotational temperatures (Kelvin)      0.15721     0.06896     0.06084
 Rotational constants (GHZ):           3.27582     1.43694     1.26762
 Zero-point vibrational energy     416667.3 (Joules/Mol)
                                   99.58588 (Kcal/Mol)
 Warning -- explicit consideration of  10 degrees of freedom as
           vibrations may cause significant error
 Vibrational temperatures:    123.91   225.87   283.58   365.52   454.11
          (Kelvin)            553.12   631.19   665.14   706.92   811.39
                              957.66  1103.42  1110.16  1135.36  1176.17
                             1229.60  1281.34  1340.43  1382.56  1429.99
                             1459.76  1471.51  1481.13  1503.05  1518.82
                             1561.73  1587.33  1623.33  1648.83  1694.34
                             1768.72  1822.30  1864.55  1903.89  1952.81
                             1985.62  2014.24  2073.11  2140.75  2148.17
                             2158.81  4372.78  4373.47  4388.57  4477.39
                             4478.50  4500.39  4604.61  4617.24  4642.64
                             5421.19

 Zero-point correction=                           0.158700 (Hartree/Particle)
 Thermal correction to Energy=                    0.166712
 Thermal correction to Enthalpy=                  0.167656
 Thermal correction to Gibbs Free Energy=         0.126362
 Sum of electronic and zero-point Energies=           -422.960047
 Sum of electronic and thermal Energies=              -422.952036
 Sum of electronic and thermal Enthalpies=            -422.951091
 Sum of electronic and thermal Free Energies=         -422.992385

                     E (Thermal)             CV                S
                      KCal/Mol        Cal/Mol-Kelvin    Cal/Mol-Kelvin
 Total                  104.613             31.900             86.911
 Electronic               0.000              0.000              0.000
 Translational            0.889              2.981             40.409
 Rotational               0.889              2.981             28.379
 Vibrational            102.836             25.938             18.123
 Vibration     1          0.601              1.959              3.746
 Vibration     2          0.621              1.895              2.586
 Vibration     3          0.636              1.844              2.160
 Vibration     4          0.665              1.756              1.702
 Vibration     5          0.703              1.644              1.333
 Vibration     6          0.753              1.503              1.022
 Vibration     7          0.799              1.386              0.831
 Vibration     8          0.820              1.334              0.759
 Vibration     9          0.847              1.269              0.680
 Vibration    10          0.920              1.109              0.516

 Optimization completed.
    -- Stationary point found.
 Normal termination of Gaussian 09 at Mon Jan 27 16:16:39 2020.
