 Gaussian 09, Revision D.01,
 Gaussian 09:  ES64L-G09RevD.01 24-Apr-2013

 -----------------------------
 # b3lyp 6-31G(2df,p) opt Freq
 -----------------------------

 -----
 titel
 -----
 Symbolic Z-matrix:
 Charge =  0 Multiplicity = 1

 SCF Done:  E(RB3LYP) =  -423.163063795     A.U. after   13 cycles
 Optimization completed.
    -- Stationary point found.
 Normal termination of Gaussian 09 at Mon Jan 27 17:12:35 2020.

 ----------------------------------------------------------------------
 #N Geom=AllCheck Guess=TCheck SCRF=Check GenChk RB3LYP/6-31G(2df,p) Fr
 eq
 ----------------------------------------------------------------------

 Structure from the checkpoint file:  "/scratch/puck/g09_a5a840db-50c7-4eb0-bff8-aa48e78b483f/Gau-50034.chk"
 -----
 titel
 -----
 Charge =  0 Multiplicity = 1

                         Standard orientation:
 ---------------------------------------------------------------------
 Center     Atomic      Atomic             Coordinates (Angstroms)
 Number     Number       Type             X           Y           Z
 ---------------------------------------------------------------------
      1          6           0       -2.352528   -0.576413   -0.061020
      2          6           0       -0.939537   -0.066705    0.087601
      3          6           0       -0.612650    1.205799    0.911821
      4          6           0        0.374626    1.445703   -0.253394
      5          6           0        1.725499    0.749736   -0.045558
      6          6           0        1.490715   -0.684993    0.416385
      7          8           0        0.950648   -1.606968   -0.540922
      8          6           0        0.092075   -1.133146    0.488637
      9          8           0       -0.449574    0.603668   -1.105460
     10          1           0       -2.396373   -1.349796   -0.834851
     11          1           0       -2.706815   -1.012190    0.879306
     12          1           0       -3.025303    0.236668   -0.345969
     13          1           0       -1.435420    1.923233    0.902442
     14          1           0       -0.218251    1.085125    1.924017
     15          1           0        0.476538    2.459320   -0.649941
     16          1           0        2.299623    0.759941   -0.978477
     17          1           0        2.313487    1.284269    0.710672
     18          1           0        2.238177   -1.124531    1.075048
     19          1           0       -0.223449   -1.875517    1.221975
 ---------------------------------------------------------------------

 SCF Done:  E(RB3LYP) =  -423.163063795     A.U. after    1 cycles

 The electronic state is 1-A.
 Alpha  occ. eigenvalues --  -19.14616 -19.12888 -10.24305 -10.23778 -10.23489
 Alpha  occ. eigenvalues --  -10.23193 -10.18905 -10.18885 -10.17928  -1.07483
 Alpha  occ. eigenvalues --   -1.03410  -0.77958  -0.77327  -0.70902  -0.67330
 Alpha  occ. eigenvalues --   -0.61960  -0.59272  -0.53072  -0.50483  -0.47684
 Alpha  occ. eigenvalues --   -0.46966  -0.46103  -0.42700  -0.41400  -0.40303
 Alpha  occ. eigenvalues --   -0.38548  -0.38139  -0.37416  -0.35512  -0.32753
 Alpha  occ. eigenvalues --   -0.30731  -0.28082  -0.26213  -0.24351
 Alpha virt. eigenvalues --    0.07760   0.09780   0.10281   0.11041   0.12591
 Alpha virt. eigenvalues --    0.13134   0.13888   0.14756   0.15576   0.16346
 Alpha virt. eigenvalues --    0.17012   0.17955   0.19187   0.20156   0.20581

 Mulliken charges:
               1
     1  C   -0.489235
     2  C    0.380553
     3  C   -0.291515
     4  C    0.089339
     5  C   -0.246712
     6  C    0.037029
     7  O   -0.241181
     8  C    0.006080
     9  O   -0.309177
    10  H    0.139356
    11  H    0.117269
    12  H    0.123718
    13  H    0.107870
    14  H    0.096303
    15  H    0.076947
    16  H    0.122923
    17  H    0.100326
    18  H    0.092446
    19  H    0.087661
 Sum of Mulliken charges =   0.00000

 Dipole moment (field-independent basis, Debye):
    X=             -0.1130    Y=              1.2438    Z=              2.7061  Tot=              2.9804
 Quadrupole moment (field-independent basis, Debye-Ang):
   XX=            -49.7416   YY=            -53.2284   ZZ=            -55.1549
   XY=              2.7935   XZ=              0.2887   YZ=             -1.8975

  Exact polarizability:  83.518   3.980  74.298  -0.395  -1.524  63.140
 Approx polarizability: 112.359   5.709 107.204  -0.774   1.039 104.011

                      1                      2                      3
                      A                      A                      A
 Frequencies --    196.4696               216.3885               241.3003
 Red. masses --      1.5429                 1.5659                 2.6301
 Frc consts  --      0.0351                 0.0432                 0.0902
 IR Inten    --      1.2671                 0.3780                 1.0308

                      4                      5                      6
                      A                      A                      A
 Frequencies --    302.8104               361.9950               399.3728
 Red. masses --      3.1073                 3.1816                 1.8948
 Frc consts  --      0.1679                 0.2456                 0.1781
 IR Inten    --      0.9227                 2.7008                 1.7158

                      7                      8                      9
                      A                      A                      A
 Frequencies --    426.4852               485.8156               557.0601
 Red. masses --      3.9543                 4.0380                 4.6112
 Frc consts  --      0.4238                 0.5615                 0.8431
 IR Inten    --      1.1434                 1.1672                13.4526

                     10                     11                     12
                      A                      A                      A
 Frequencies --    672.3403               696.7885               793.5881
 Red. masses --      3.6686                 3.2879                 3.3099
 Frc consts  --      0.9771                 0.9405                 1.2282
 IR Inten    --      3.9067                 8.2275                 4.3517

                     13                     14                     15
                      A                      A                      A
 Frequencies --    832.7580               853.0772               872.7827
 Red. masses --      2.4374                 2.2798                 2.1871
 Frc consts  --      0.9959                 0.9775                 0.9816
 IR Inten    --     12.0221                 4.8681                11.5527

                     16                     17                     18
                      A                      A                      A
 Frequencies --    897.5811               909.9763               938.9158
 Red. masses --      3.4862                 2.5493                 4.1903
 Frc consts  --      1.6548                 1.2437                 2.1765
 IR Inten    --     14.1877                13.3810                11.4325

                     19                     20                     21
                      A                      A                      A
 Frequencies --    980.0176               997.7837              1011.4165
 Red. masses --      3.2197                 2.0275                 1.7368
 Frc consts  --      1.8220                 1.1893                 1.0468
 IR Inten    --     26.7797                17.5351                21.0340

                     22                     23                     24
                      A                      A                      A
 Frequencies --   1019.6697              1064.4082              1106.2368
 Red. masses --      1.7044                 1.4475                 1.4497
 Frc consts  --      1.0441                 0.9662                 1.0453
 IR Inten    --      2.2667                 9.1086                 1.8251

                     25                     26                     27
                      A                      A                      A
 Frequencies --   1121.6962              1147.1645              1205.6274
 Red. masses --      1.4326                 1.8260                 1.2985
 Frc consts  --      1.0620                 1.4158                 1.1120
 IR Inten    --      0.4206                 4.5777                 5.5955

                     28                     29                     30
                      A                      A                      A
 Frequencies --   1228.1116              1243.0842              1257.7552
 Red. masses --      1.7342                 2.1693                 1.8044
 Frc consts  --      1.5411                 1.9750                 1.6818
 IR Inten    --      1.0041                 6.6346                22.6005

                     31                     32                     33
                      A                      A                      A
 Frequencies --   1279.4912              1310.8756              1319.5441
 Red. masses --      1.6845                 1.7709                 1.5958
 Frc consts  --      1.6248                 1.7930                 1.6372
 IR Inten    --      7.9386                14.6714                 3.9238

                     34                     35                     36
                      A                      A                      A
 Frequencies --   1357.1066              1386.1440              1407.7181
 Red. masses --      1.4605                 1.4595                 1.3695
 Frc consts  --      1.5848                 1.6522                 1.5990
 IR Inten    --      1.4859                 1.2979                 8.6347

                     37                     38                     39
                      A                      A                      A
 Frequencies --   1450.6698              1464.4331              1479.3675
 Red. masses --      2.4866                 1.1862                 1.0601
 Frc consts  --      3.0831                 1.4989                 1.3670
 IR Inten    --     16.5064                 1.8295                 2.4356

                     40                     41                     42
                      A                      A                      A
 Frequencies --   1488.6169              1494.4005              3034.0572
 Red. masses --      1.1497                 1.0836                 1.0606
 Frc consts  --      1.5011                 1.4258                 5.7524
 IR Inten    --      8.9272                 3.0573                19.2332

                     43                     44                     45
                      A                      A                      A
 Frequencies --   3035.9903              3062.1550              3075.9704
 Red. masses --      1.0354                 1.0602                 1.0881
 Frc consts  --      5.6227                 5.8571                 6.0659
 IR Inten    --     13.8608                24.9012                60.7531

                     46                     47                     48
                      A                      A                      A
 Frequencies --   3080.6625              3104.7228              3108.2070
 Red. masses --      1.1006                 1.0934                 1.0935
 Frc consts  --      6.1539                 6.2097                 6.2244
 IR Inten    --     16.8765                10.2845                24.0918

                     49                     50                     51
                      A                      A                      A
 Frequencies --   3119.6198              3122.5634              3128.3008
 Red. masses --      1.1022                 1.0923                 1.1080
 Frc consts  --      6.3198                 6.2750                 6.3889
 IR Inten    --      7.4784                46.0592                30.8600

 - Thermochemistry -
 -------------------
 Temperature   298.150 Kelvin.  Pressure   1.00000 Atm.
 Atom     1 has atomic number  6 and mass  12.00000

 Molecular mass:   126.06808 amu.
 Principal axes and moments of inertia in atomic units:
                           1         2         3
     Eigenvalues --   687.63061 911.130741236.81374
           X            0.99543   0.09547   0.00020
           Y           -0.09547   0.99539  -0.00948
           Z           -0.00110   0.00941   0.99996
 This molecule is an asymmetric top.
 Rotational symmetry number  1.
 Warning -- assumption of classical behavior for rotation
           may cause significant error
 Rotational temperatures (Kelvin)      0.12596     0.09506     0.07003
 Rotational constants (GHZ):           2.62458     1.98077     1.45919
 Zero-point vibrational energy     420781.0 (Joules/Mol)
                                  100.56908 (Kcal/Mol)
 Warning -- explicit consideration of   9 degrees of freedom as
           vibrations may cause significant error
 Vibrational temperatures:    282.68   311.33   347.18   435.68   520.83
          (Kelvin)            574.61   613.62   698.98   801.48   967.35
                             1002.52  1141.79  1198.15  1227.39  1255.74
                             1291.42  1309.25  1350.89  1410.02  1435.59
                             1455.20  1467.08  1531.44  1591.63  1613.87
                             1650.51  1734.63  1766.98  1788.52  1809.63
                             1840.90  1886.06  1898.53  1952.57  1994.35
                             2025.39  2087.19  2106.99  2128.48  2141.78
                             2150.11  4365.33  4368.11  4405.75  4425.63
                             4432.38  4467.00  4472.01  4488.43  4492.67
                             4500.92

 Zero-point correction=                           0.160267 (Hartree/Particle)
 Thermal correction to Energy=                    0.167531
 Thermal correction to Enthalpy=                  0.168475
 Thermal correction to Gibbs Free Energy=         0.129136
 Sum of electronic and zero-point Energies=           -423.002797
 Sum of electronic and thermal Energies=              -422.995533
 Sum of electronic and thermal Enthalpies=            -422.994589
 Sum of electronic and thermal Free Energies=         -423.033928

                     E (Thermal)             CV                S
                      KCal/Mol        Cal/Mol-Kelvin    Cal/Mol-Kelvin
 Total                  105.127             29.945             82.797
 Electronic               0.000              0.000              0.000
 Translational            0.889              2.981             40.409
 Rotational               0.889              2.981             28.140
 Vibrational            103.350             23.983             14.248
 Vibration     1          0.636              1.845              2.166
 Vibration     2          0.645              1.816              1.989
 Vibration     3          0.658              1.777              1.793
 Vibration     4          0.694              1.668              1.401
 Vibration     5          0.736              1.551              1.114
 Vibration     6          0.765              1.471              0.965
 Vibration     7          0.788              1.413              0.870
 Vibration     8          0.842              1.282              0.695
 Vibration     9          0.913              1.124              0.530

 Optimization completed.
    -- Stationary point found.
 Normal termination of Gaussian 09 at Mon Jan 27 17:58:54 2020.
