 Gaussian 09, Revision D.01,
 Gaussian 09:  ES64L-G09RevD.01 24-Apr-2013

 -----------------------------
 # b3lyp 6-31G(2df,p) opt Freq
 -----------------------------

 -----
 titel
 -----
 Symbolic Z-matrix:
 Charge =  0 Multiplicity = 1

 SCF Done:  E(RB3LYP) =  -423.174211845     A.U. after   14 cycles
 Optimization completed.
    -- Stationary point found.
 Normal termination of Gaussian 09 at Mon Jan 27 18:07:21 2020.

 ----------------------------------------------------------------------
 #N Geom=AllCheck Guess=TCheck SCRF=Check GenChk RB3LYP/6-31G(2df,p) Fr
 eq
 ----------------------------------------------------------------------

 Structure from the checkpoint file:  "/scratch/puck/g09_8127e549-1673-471e-8b05-3e1a553da9c8/Gau-88616.chk"
 -----
 titel
 -----
 Charge =  0 Multiplicity = 1

                         Standard orientation:
 ---------------------------------------------------------------------
 Center     Atomic      Atomic             Coordinates (Angstroms)
 Number     Number       Type             X           Y           Z
 ---------------------------------------------------------------------
      1          6           0       -2.338218    0.778991    0.292781
      2          6           0       -1.009464    0.110574    0.089852
      3          6           0       -0.195533   -0.403822    1.301467
      4          6           0        1.035417   -0.875543    0.483010
      5          8           0        2.002284    0.169846    0.417418
      6          6           0        1.353547    1.270520   -0.247363
      7          6           0        0.112777    0.650835   -0.875007
      8          6           0        0.352031   -0.869889   -0.924903
      9          8           0       -1.052498   -1.121999   -0.711353
     10          1           0       -2.213675    1.710498    0.854554
     11          1           0       -2.809933    1.010635   -0.666333
     12          1           0       -3.011720    0.127849    0.859711
     13          1           0        0.083285    0.352891    2.039022
     14          1           0       -0.738025   -1.214564    1.793045
     15          1           0        1.535387   -1.784575    0.812638
     16          1           0        1.121190    2.070582    0.469783
     17          1           0        2.040595    1.678222   -0.997204
     18          1           0       -0.274521    1.111203   -1.782562
     19          1           0        0.805781   -1.415519   -1.750200
 ---------------------------------------------------------------------

 SCF Done:  E(RB3LYP) =  -423.174211845     A.U. after    1 cycles

 The electronic state is 1-A.
 Alpha  occ. eigenvalues --  -19.13614 -19.13227 -10.24484 -10.23256 -10.23028
 Alpha  occ. eigenvalues --  -10.22913 -10.19414 -10.18366 -10.17947  -1.05942
 Alpha  occ. eigenvalues --   -1.02290  -0.79093  -0.75216  -0.75004  -0.67836
 Alpha  occ. eigenvalues --   -0.62019  -0.56683  -0.54455  -0.50559  -0.48617
 Alpha  occ. eigenvalues --   -0.47592  -0.43979  -0.42400  -0.42029  -0.39607
 Alpha  occ. eigenvalues --   -0.39293  -0.37674  -0.36233  -0.35510  -0.32476
 Alpha  occ. eigenvalues --   -0.31388  -0.30232  -0.26020  -0.23046
 Alpha virt. eigenvalues --    0.09023   0.09116   0.10866   0.11166   0.13157
 Alpha virt. eigenvalues --    0.13652   0.14420   0.15372   0.15776   0.16503
 Alpha virt. eigenvalues --    0.17816   0.18653   0.18800   0.20615   0.21118

 Mulliken charges:
               1
     1  C   -0.503939
     2  C    0.404374
     3  C   -0.266863
     4  C    0.074107
     5  O   -0.274254
     6  C   -0.118893
     7  C   -0.105312
     8  C    0.075522
     9  O   -0.334236
    10  H    0.123194
    11  H    0.127810
    12  H    0.131580
    13  H    0.104607
    14  H    0.106846
    15  H    0.081387
    16  H    0.097707
    17  H    0.109468
    18  H    0.082511
    19  H    0.084384
 Sum of Mulliken charges =   0.00000

 Dipole moment (field-independent basis, Debye):
    X=             -0.5612    Y=              1.2849    Z=             -0.0365  Tot=              1.4025
 Quadrupole moment (field-independent basis, Debye-Ang):
   XX=            -57.3718   YY=            -51.6558   ZZ=            -51.7865
   XY=             -2.8926   XZ=             -3.5207   YZ=             -1.6583

  Exact polarizability:  77.485  -1.213  72.187  -3.080  -1.439  69.747
 Approx polarizability: 109.137   1.011 109.538  -1.502   0.532 104.393

                      1                      2                      3
                      A                      A                      A
 Frequencies --    189.8969               218.6623               244.6140
 Red. masses --      1.1129                 2.6342                 2.2462
 Frc consts  --      0.0236                 0.0742                 0.0792
 IR Inten    --      0.1053                 0.4912                 1.5369

                      4                      5                      6
                      A                      A                      A
 Frequencies --    300.5558               423.5723               444.3636
 Red. masses --      2.2690                 3.1619                 2.4036
 Frc consts  --      0.1208                 0.3342                 0.2796
 IR Inten    --      1.1180                 8.0773                 4.0081

                      7                      8                      9
                      A                      A                      A
 Frequencies --    524.6899               565.3882               638.2006
 Red. masses --      3.9334                 5.6515                 3.8241
 Frc consts  --      0.6380                 1.0644                 0.9177
 IR Inten    --      7.5458                 0.8327                 1.5270

                     10                     11                     12
                      A                      A                      A
 Frequencies --    712.2966               743.6087               813.8380
 Red. masses --      3.2044                 3.9125                 3.5108
 Frc consts  --      0.9579                 1.2747                 1.3701
 IR Inten    --      1.5342                 2.3190                11.5446

                     13                     14                     15
                      A                      A                      A
 Frequencies --    829.4111               867.9390               880.1011
 Red. masses --      3.7116                 2.3869                 2.3158
 Frc consts  --      1.5044                 1.0594                 1.0569
 IR Inten    --     19.4930                 4.2054                 1.3849

                     16                     17                     18
                      A                      A                      A
 Frequencies --    920.7596               930.7543               969.8458
 Red. masses --      3.0643                 2.1346                 2.0633
 Frc consts  --      1.5306                 1.0895                 1.1435
 IR Inten    --     18.9230                10.5203                 3.7583

                     19                     20                     21
                      A                      A                      A
 Frequencies --    984.3502               995.6205              1012.7837
 Red. masses --      1.6961                 2.7351                 1.8486
 Frc consts  --      0.9683                 1.5974                 1.1172
 IR Inten    --      2.9087                39.4826                 7.1045

                     22                     23                     24
                      A                      A                      A
 Frequencies --   1038.9190              1058.0422              1112.4032
 Red. masses --      1.8594                 2.0529                 2.2190
 Frc consts  --      1.1824                 1.3540                 1.6178
 IR Inten    --     18.8125                17.7105                37.4683

                     25                     26                     27
                      A                      A                      A
 Frequencies --   1131.0180              1164.9812              1181.0595
 Red. masses --      1.9626                 2.1748                 1.5009
 Frc consts  --      1.4791                 1.7390                 1.2335
 IR Inten    --     20.9440                17.8851                 2.0649

                     28                     29                     30
                      A                      A                      A
 Frequencies --   1208.1164              1235.3173              1251.6485
 Red. masses --      1.4560                 1.2891                 2.0674
 Frc consts  --      1.2521                 1.1591                 1.9082
 IR Inten    --      1.6699                 0.4016                 2.3998

                     31                     32                     33
                      A                      A                      A
 Frequencies --   1265.3600              1274.1888              1302.7760
 Red. masses --      1.5362                 1.6085                 1.6912
 Frc consts  --      1.4491                 1.5387                 1.6912
 IR Inten    --     11.0591                 3.0309                 6.1543

                     34                     35                     36
                      A                      A                      A
 Frequencies --   1328.8770              1362.4330              1388.7875
 Red. masses --      1.4132                 2.0789                 1.4363
 Frc consts  --      1.4704                 2.2736                 1.6322
 IR Inten    --      6.9140                19.0873                 2.1154

                     37                     38                     39
                      A                      A                      A
 Frequencies --   1415.8550              1475.7649              1480.1707
 Red. masses --      1.6048                 1.1026                 1.0706
 Frc consts  --      1.8955                 1.4148                 1.3820
 IR Inten    --     17.0600                 0.3324                 5.3660

                     40                     41                     42
                      A                      A                      A
 Frequencies --   1492.2897              1521.2632              3001.1695
 Red. masses --      1.0497                 1.0896                 1.0664
 Frc consts  --      1.3773                 1.4856                 5.6593
 IR Inten    --      3.9488                 1.4422                56.6743

                     43                     44                     45
                      A                      A                      A
 Frequencies --   3037.1516              3056.7175              3067.1803
 Red. masses --      1.0352                 1.0979                 1.0585
 Frc consts  --      5.6262                 6.0437                 5.8668
 IR Inten    --     15.8689                36.7854                22.5680

                     46                     47                     48
                      A                      A                      A
 Frequencies --   3106.6570              3115.5808              3121.9849
 Red. masses --      1.1008                 1.1017                 1.1069
 Frc consts  --      6.2595                 6.3007                 6.3563
 IR Inten    --     10.9835                13.5363                15.8624

                     49                     50                     51
                      A                      A                      A
 Frequencies --   3132.5942              3135.6607              3146.5215
 Red. masses --      1.0892                 1.0892                 1.0938
 Frc consts  --      6.2975                 6.3096                 6.3805
 IR Inten    --      8.8853                39.6174                37.6762

 - Thermochemistry -
 -------------------
 Temperature   298.150 Kelvin.  Pressure   1.00000 Atm.
 Atom     1 has atomic number  6 and mass  12.00000

 Molecular mass:   126.06808 amu.
 Principal axes and moments of inertia in atomic units:
                           1         2         3
     Eigenvalues --   586.983091073.053531142.43748
           X            0.99890  -0.03725  -0.02860
           Y            0.03411   0.99406  -0.10335
           Z            0.03228   0.10226   0.99423
 This molecule is an asymmetric top.
 Rotational symmetry number  1.
 Warning -- assumption of classical behavior for rotation
           may cause significant error
 Rotational temperatures (Kelvin)      0.14756     0.08072     0.07581
 Rotational constants (GHZ):           3.07461     1.68187     1.57973
 Zero-point vibrational energy     423608.1 (Joules/Mol)
                                  101.24476 (Kcal/Mol)
 Warning -- explicit consideration of   8 degrees of freedom as
           vibrations may cause significant error
 Vibrational temperatures:    273.22   314.61   351.94   432.43   609.43
          (Kelvin)            639.34   754.91   813.47   918.23  1024.83
                             1069.89  1170.93  1193.34  1248.77  1266.27
                             1324.77  1339.15  1395.39  1416.26  1432.47
                             1457.17  1494.77  1522.28  1600.50  1627.28
                             1676.15  1699.28  1738.21  1777.34  1800.84
                             1820.57  1833.27  1874.40  1911.96  1960.23
                             1998.15  2037.10  2123.29  2129.63  2147.07
                             2188.76  4318.01  4369.78  4397.93  4412.98
                             4469.78  4482.62  4491.83  4507.10  4511.51
                             4527.14

 Zero-point correction=                           0.161344 (Hartree/Particle)
 Thermal correction to Energy=                    0.168279
 Thermal correction to Enthalpy=                  0.169223
 Thermal correction to Gibbs Free Energy=         0.130442
 Sum of electronic and zero-point Energies=           -423.012868
 Sum of electronic and thermal Energies=              -423.005933
 Sum of electronic and thermal Enthalpies=            -423.004989
 Sum of electronic and thermal Free Energies=         -423.043770

                     E (Thermal)             CV                S
                      KCal/Mol        Cal/Mol-Kelvin    Cal/Mol-Kelvin
 Total                  105.597             28.889             81.621
 Electronic               0.000              0.000              0.000
 Translational            0.889              2.981             40.409
 Rotational               0.889              2.981             28.067
 Vibrational            103.819             22.928             13.146
 Vibration     1          0.633              1.854              2.229
 Vibration     2          0.646              1.813              1.970
 Vibration     3          0.660              1.772              1.769
 Vibration     4          0.693              1.673              1.414
 Vibration     5          0.786              1.419              0.880
 Vibration     6          0.804              1.373              0.813
 Vibration     7          0.880              1.195              0.599
 Vibration     8          0.921              1.106              0.513

 Optimization completed.
    -- Stationary point found.
 Normal termination of Gaussian 09 at Mon Jan 27 18:52:26 2020.
