 Gaussian 09, Revision D.01,
 Gaussian 09:  ES64L-G09RevD.01 24-Apr-2013

 -----------------------------
 # b3lyp 6-31G(2df,p) opt Freq
 -----------------------------

 -----
 titel
 -----
 Symbolic Z-matrix:
 Charge =  0 Multiplicity = 1

 SCF Done:  E(RB3LYP) =  -423.180189684     A.U. after   14 cycles
 Optimization completed.
    -- Stationary point found.
 Normal termination of Gaussian 09 at Mon Jan 27 23:05:33 2020.

 ----------------------------------------------------------------------
 #N Geom=AllCheck Guess=TCheck SCRF=Check GenChk RB3LYP/6-31G(2df,p) Fr
 eq
 ----------------------------------------------------------------------

 Structure from the checkpoint file:  "/scratch/puck/g09_f1c87f94-72d0-466f-8186-a6b70b0bbec8/Gau-185884.chk"
 -----
 titel
 -----
 Charge =  0 Multiplicity = 1

                         Standard orientation:
 ---------------------------------------------------------------------
 Center     Atomic      Atomic             Coordinates (Angstroms)
 Number     Number       Type             X           Y           Z
 ---------------------------------------------------------------------
      1          6           0       -2.527185   -0.542261    0.208234
      2          6           0       -1.075882   -0.345802   -0.099369
      3          6           0       -0.375575    0.793965   -0.213524
      4          6           0       -0.823549    2.205034   -0.010494
      5          6           0        1.105600    0.524583   -0.499972
      6          8           0        1.960838    1.071230    0.493820
      7          6           0        1.182225   -1.001194   -0.558605
      8          8           0        0.899010   -1.588898    0.719964
      9          6           0       -0.155893   -1.518299   -0.283487
     10          1           0       -3.020975   -1.129364   -0.576552
     11          1           0       -2.658816   -1.099209    1.144595
     12          1           0       -3.062319    0.405483    0.299793
     13          1           0       -0.739453    2.781947   -0.941048
     14          1           0       -1.856089    2.275575    0.338859
     15          1           0       -0.172265    2.697618    0.720046
     16          1           0        1.422798    0.978981   -1.446711
     17          1           0        1.811709    0.529070    1.280494
     18          1           0        1.931255   -1.510759   -1.157370
     19          1           0       -0.513075   -2.484167   -0.629081
 ---------------------------------------------------------------------

 SCF Done:  E(RB3LYP) =  -423.180189684     A.U. after    1 cycles

 The electronic state is 1-A.
 Alpha  occ. eigenvalues --  -19.15274 -19.13375 -10.23774 -10.23454 -10.23219
 Alpha  occ. eigenvalues --  -10.19059 -10.18775 -10.18686 -10.18075  -1.07094
 Alpha  occ. eigenvalues --   -1.01331  -0.82830  -0.74313  -0.72292  -0.66790
 Alpha  occ. eigenvalues --   -0.63757  -0.59043  -0.52189  -0.51784  -0.48426
 Alpha  occ. eigenvalues --   -0.45025  -0.43950  -0.42449  -0.41249  -0.40279
 Alpha  occ. eigenvalues --   -0.39451  -0.38203  -0.37175  -0.36399  -0.33363
 Alpha  occ. eigenvalues --   -0.31359  -0.28595  -0.25214  -0.23326
 Alpha virt. eigenvalues --    0.00178   0.08877   0.09558   0.11319   0.11851
 Alpha virt. eigenvalues --    0.12827   0.14247   0.14436   0.16492   0.16956
 Alpha virt. eigenvalues --    0.17819   0.19134   0.19958   0.22147   0.22335

 Mulliken charges:
               1
     1  C   -0.506933
     2  C    0.214969
     3  C    0.157711
     4  C   -0.492944
     5  C    0.037167
     6  O   -0.433105
     7  C   -0.007397
     8  O   -0.273717
     9  C   -0.049862
    10  H    0.127692
    11  H    0.135814
    12  H    0.128294
    13  H    0.126322
    14  H    0.120628
    15  H    0.144279
    16  H    0.086159
    17  H    0.288530
    18  H    0.099704
    19  H    0.096689
 Sum of Mulliken charges =   0.00000

 Dipole moment (field-independent basis, Debye):
    X=             -1.8522    Y=             -0.3238    Z=             -1.2127  Tot=              2.2374
 Quadrupole moment (field-independent basis, Debye-Ang):
   XX=            -53.9848   YY=            -53.7767   ZZ=            -51.7430
   XY=             -1.0175   XZ=             -1.8905   YZ=              2.0666

  Exact polarizability:  85.179   5.993  87.727  -3.250  -0.414  58.836
 Approx polarizability: 120.014  16.763 130.644  -1.964  -5.479  96.002

                      1                      2                      3
                      A                      A                      A
 Frequencies --    106.5945               138.4534               160.2892
 Red. masses --      3.8644                 1.0211                 1.0306
 Frc consts  --      0.0259                 0.0115                 0.0156
 IR Inten    --      0.8956                 0.4440                 0.0101

                      4                      5                      6
                      A                      A                      A
 Frequencies --    192.0500               223.8129               267.9092
 Red. masses --      3.5133                 3.9941                 4.2105
 Frc consts  --      0.0763                 0.1179                 0.1781
 IR Inten    --      4.2791                 4.8670                 0.8188

                      7                      8                      9
                      A                      A                      A
 Frequencies --    275.7902               385.6500               471.8501
 Red. masses --      2.4669                 2.9250                 1.3530
 Frc consts  --      0.1105                 0.2563                 0.1775
 IR Inten    --      0.0289                 2.5622                39.4082

                     10                     11                     12
                      A                      A                      A
 Frequencies --    510.9950               525.8266               585.7659
 Red. masses --      2.9210                 4.0298                 3.4892
 Frc consts  --      0.4494                 0.6565                 0.7054
 IR Inten    --     47.7355                 7.0008                 0.9774

                     13                     14                     15
                      A                      A                      A
 Frequencies --    625.5953               701.9790               772.0910
 Red. masses --      4.6479                 3.9761                 4.8428
 Frc consts  --      1.0717                 1.1544                 1.7009
 IR Inten    --      0.7756                19.7119                 3.8176

                     16                     17                     18
                      A                      A                      A
 Frequencies --    826.6391               859.9002               902.4427
 Red. masses --      4.9558                 2.0966                 1.9404
 Frc consts  --      1.9952                 0.9134                 0.9311
 IR Inten    --     28.2349                25.6727                 5.4114

                     19                     20                     21
                      A                      A                      A
 Frequencies --    935.7227               985.7983              1036.1694
 Red. masses --      3.4601                 1.4108                 1.4899
 Frc consts  --      1.7850                 0.8078                 0.9425
 IR Inten    --     14.1541                 9.3321                 9.3608

                     22                     23                     24
                      A                      A                      A
 Frequencies --   1049.3211              1066.4820              1072.0915
 Red. masses --      1.7745                 1.9067                 2.5364
 Frc consts  --      1.1512                 1.2778                 1.7176
 IR Inten    --     16.8517                29.7398                54.1415

                     25                     26                     27
                      A                      A                      A
 Frequencies --   1107.2515              1136.1975              1190.1716
 Red. masses --      1.2861                 2.8888                 2.6444
 Frc consts  --      0.9290                 2.1972                 2.2070
 IR Inten    --     11.6138                 1.8646                 2.3485

                     28                     29                     30
                      A                      A                      A
 Frequencies --   1238.6611              1256.3453              1266.6102
 Red. masses --      1.6068                 1.5275                 1.3509
 Frc consts  --      1.4525                 1.4205                 1.2769
 IR Inten    --      1.9732                 3.1539                16.0553

                     31                     32                     33
                      A                      A                      A
 Frequencies --   1306.8914              1345.8732              1402.6297
 Red. masses --      1.7647                 1.9008                 1.4455
 Frc consts  --      1.7758                 2.0286                 1.6756
 IR Inten    --      2.4791                 7.6834                 4.9321

                     34                     35                     36
                      A                      A                      A
 Frequencies --   1416.5740              1426.2692              1432.9642
 Red. masses --      1.2722                 2.9339                 1.3274
 Frc consts  --      1.5041                 3.5164                 1.6059
 IR Inten    --      1.9749                17.5886                66.9517

                     37                     38                     39
                      A                      A                      A
 Frequencies --   1473.9306              1479.9754              1486.4166
 Red. masses --      1.0460                 1.0447                 1.0468
 Frc consts  --      1.3389                 1.3482                 1.3627
 IR Inten    --      4.0240                 7.3175                 6.3838

                     40                     41                     42
                      A                      A                      A
 Frequencies --   1492.3829              1727.9022              3019.1398
 Red. masses --      1.0705                 7.8284                 1.0397
 Frc consts  --      1.4047                13.7709                 5.5836
 IR Inten    --      5.3759                 4.6242                31.0677

                     43                     44                     45
                      A                      A                      A
 Frequencies --   3021.2735              3038.3652              3064.0298
 Red. masses --      1.0427                 1.0838                 1.0987
 Frc consts  --      5.6075                 5.8949                 6.0773
 IR Inten    --     18.7121                35.0239                16.4190

                     46                     47                     48
                      A                      A                      A
 Frequencies --   3075.7336              3118.2717              3123.7655
 Red. masses --      1.0922                 1.0989                 1.0976
 Frc consts  --      6.0878                 6.2955                 6.3103
 IR Inten    --     12.4552                 9.4905                25.9523

                     49                     50                     51
                      A                      A                      A
 Frequencies --   3153.4772              3165.6354              3759.0121
 Red. masses --      1.0875                 1.0964                 1.0652
 Frc consts  --      6.3716                 6.4733                 8.8685
 IR Inten    --     17.1803                32.9350                21.0991

 - Thermochemistry -
 -------------------
 Temperature   298.150 Kelvin.  Pressure   1.00000 Atm.
 Atom     1 has atomic number  6 and mass  12.00000

 Molecular mass:   126.06808 amu.
 Principal axes and moments of inertia in atomic units:
                           1         2         3
     Eigenvalues --   839.44987 982.837841609.64821
           X            0.99948  -0.02667  -0.01786
           Y            0.02689   0.99956   0.01228
           Z            0.01752  -0.01276   0.99977
 This molecule is an asymmetric top.
 Rotational symmetry number  1.
 Warning -- assumption of classical behavior for rotation
           may cause significant error
 Rotational temperatures (Kelvin)      0.10318     0.08813     0.05381
 Rotational constants (GHZ):           2.14991     1.83626     1.12120
 Zero-point vibrational energy     415133.9 (Joules/Mol)
                                   99.21938 (Kcal/Mol)
 Warning -- explicit consideration of  12 degrees of freedom as
           vibrations may cause significant error
 Vibrational temperatures:    153.37   199.20   230.62   276.32   322.02
          (Kelvin)            385.46   396.80   554.86   678.89   735.21
                              756.55   842.79   900.09  1009.99  1110.87
                             1189.35  1237.20  1298.41  1346.29  1418.34
                             1490.81  1509.74  1534.43  1542.50  1593.09
                             1634.73  1712.39  1782.15  1807.60  1822.37
                             1880.32  1936.41  2018.07  2038.13  2052.08
                             2061.71  2120.65  2129.35  2138.62  2147.20
                             2486.06  4343.86  4346.93  4371.52  4408.45
                             4425.29  4486.49  4494.40  4537.14  4554.64
                             5408.37

 Zero-point correction=                           0.158116 (Hartree/Particle)
 Thermal correction to Energy=                    0.167042
 Thermal correction to Enthalpy=                  0.167986
 Thermal correction to Gibbs Free Energy=         0.124787
 Sum of electronic and zero-point Energies=           -423.022074
 Sum of electronic and thermal Energies=              -423.013148
 Sum of electronic and thermal Enthalpies=            -423.012204
 Sum of electronic and thermal Free Energies=         -423.055403

                     E (Thermal)             CV                S
                      KCal/Mol        Cal/Mol-Kelvin    Cal/Mol-Kelvin
 Total                  104.820             33.673             90.920
 Electronic               0.000              0.000              0.000
 Translational            0.889              2.981             40.409
 Rotational               0.889              2.981             28.675
 Vibrational            103.043             27.712             21.836
 Vibration     1          0.605              1.944              3.330
 Vibration     2          0.614              1.915              2.825
 Vibration     3          0.622              1.891              2.546
 Vibration     4          0.634              1.851              2.208
 Vibration     5          0.649              1.805              1.928
 Vibration     6          0.673              1.732              1.610
 Vibration     7          0.677              1.718              1.560
 Vibration     8          0.754              1.501              1.017
 Vibration     9          0.829              1.313              0.732
 Vibration    10          0.866              1.226              0.631
 Vibration    11          0.881              1.193              0.597
 Vibration    12          0.943              1.062              0.475

 Optimization completed.
    -- Stationary point found.
 Normal termination of Gaussian 09 at Mon Jan 27 23:51:43 2020.
