 Gaussian 09, Revision D.01,
 Gaussian 09:  ES64L-G09RevD.01 24-Apr-2013

 -----------------------------
 # b3lyp 6-31G(2df,p) opt Freq
 -----------------------------

 -----
 titel
 -----
 Symbolic Z-matrix:
 Charge =  0 Multiplicity = 1

 SCF Done:  E(RB3LYP) =  -423.172172515     A.U. after   14 cycles
 Optimization completed.
    -- Stationary point found.
 Normal termination of Gaussian 09 at Tue Jan 28 12:44:30 2020.

 ----------------------------------------------------------------------
 #N Geom=AllCheck Guess=TCheck SCRF=Check GenChk RB3LYP/6-31G(2df,p) Fr
 eq
 ----------------------------------------------------------------------

 Structure from the checkpoint file:  "/scratch/puck/g09_3f064bbf-2804-4d19-9b9a-e1d5dd4d8c4c/Gau-92350.chk"
 -----
 titel
 -----
 Charge =  0 Multiplicity = 1

                         Standard orientation:
 ---------------------------------------------------------------------
 Center     Atomic      Atomic             Coordinates (Angstroms)
 Number     Number       Type             X           Y           Z
 ---------------------------------------------------------------------
      1          8           0       -3.015393   -0.885392    0.181333
      2          6           0       -2.381499    0.370950    0.026972
      3          6           0       -0.887087    0.292480   -0.067525
      4          6           0       -0.123801   -0.780316    0.164723
      5          6           0        1.332879   -0.468614    0.027913
      6          8           0        2.183101   -1.387815   -0.589358
      7          6           0        1.879790    0.526606    1.028856
      8          6           0        1.389616    0.999909   -0.327263
      9          6           0       -0.046644    1.501657   -0.448058
     10          1           0       -2.753855   -1.429283   -0.569414
     11          1           0       -2.772951    0.916108   -0.850721
     12          1           0       -2.677355    0.963645    0.903081
     13          1           0       -0.490160   -1.756263    0.460849
     14          1           0        2.497762   -2.000404    0.083762
     15          1           0        1.299554    0.747558    1.919518
     16          1           0        2.957216    0.536184    1.162707
     17          1           0        2.139684    1.353563   -1.023867
     18          1           0       -0.242840    2.357744    0.211617
     19          1           0       -0.278242    1.840770   -1.467041
 ---------------------------------------------------------------------

 SCF Done:  E(RB3LYP) =  -423.172172515     A.U. after    1 cycles

 The electronic state is 1-A.
 Alpha  occ. eigenvalues --  -19.14100 -19.13649 -10.23573 -10.23188 -10.18935
 Alpha  occ. eigenvalues --  -10.18718 -10.18461 -10.18287 -10.17425  -1.02678
 Alpha  occ. eigenvalues --   -1.01847  -0.87626  -0.77870  -0.70219  -0.68574
 Alpha  occ. eigenvalues --   -0.60097  -0.55846  -0.54289  -0.52117  -0.49500
 Alpha  occ. eigenvalues --   -0.46489  -0.44774  -0.43222  -0.41683  -0.40161
 Alpha  occ. eigenvalues --   -0.37960  -0.36821  -0.36522  -0.33253  -0.31735
 Alpha  occ. eigenvalues --   -0.28755  -0.26965  -0.26038  -0.22530
 Alpha virt. eigenvalues --    0.01818   0.08022   0.08665   0.10652   0.11490
 Alpha virt. eigenvalues --    0.13328   0.14152   0.14492   0.16640   0.17470
 Alpha virt. eigenvalues --    0.18367   0.19680   0.20435   0.21559   0.22941

 Mulliken charges:
               1
     1  O   -0.407771
     2  C   -0.155957
     3  C    0.265758
     4  C   -0.267972
     5  C    0.384779
     6  O   -0.468234
     7  C   -0.339552
     8  C   -0.090604
     9  C   -0.331261
    10  H    0.283891
    11  H    0.092498
    12  H    0.122697
    13  H    0.094487
    14  H    0.282639
    15  H    0.109399
    16  H    0.109625
    17  H    0.096066
    18  H    0.110928
    19  H    0.108585
 Sum of Mulliken charges =   0.00000

 Dipole moment (field-independent basis, Debye):
    X=              0.6810    Y=              0.3618    Z=              0.1682  Tot=              0.7892
 Quadrupole moment (field-independent basis, Debye-Ang):
   XX=            -56.6416   YY=            -49.0979   ZZ=            -53.4251
   XY=             -2.7252   XZ=              6.2625   YZ=             -1.0816

  Exact polarizability:  90.853  -5.851  79.199   3.837  -3.196  61.797
 Approx polarizability: 119.570 -14.307 125.655   4.495  -5.892  97.391

                      1                      2                      3
                      A                      A                      A
 Frequencies --     89.5518               146.6202               180.2449
 Red. masses --      3.6253                 2.6070                 4.2007
 Frc consts  --      0.0171                 0.0330                 0.0804
 IR Inten    --      5.5003                 1.0490                 2.1181

                      4                      5                      6
                      A                      A                      A
 Frequencies --    225.4922               270.1842               322.4589
 Red. masses --      1.8722                 1.3082                 1.4506
 Frc consts  --      0.0561                 0.0563                 0.0889
 IR Inten    --     29.1189                92.0590                50.8903

                      7                      8                      9
                      A                      A                      A
 Frequencies --    375.8726               393.1939               406.6300
 Red. masses --      2.7195                 2.5097                 2.7004
 Frc consts  --      0.2264                 0.2286                 0.2631
 IR Inten    --     30.9460                15.6398                14.5991

                     10                     11                     12
                      A                      A                      A
 Frequencies --    454.4532               495.5690               597.6573
 Red. masses --      2.4920                 2.5087                 3.8852
 Frc consts  --      0.3032                 0.3630                 0.8176
 IR Inten    --     15.2921                 7.9881                 5.3209

                     13                     14                     15
                      A                      A                      A
 Frequencies --    664.4540               762.8193               836.9922
 Red. masses --      3.9186                 3.5340                 1.5560
 Frc consts  --      1.0193                 1.2116                 0.6422
 IR Inten    --      4.0442                 2.4965                10.2550

                     16                     17                     18
                      A                      A                      A
 Frequencies --    850.8960               877.8685               904.6542
 Red. masses --      1.6257                 2.8403                 2.7780
 Frc consts  --      0.6935                 1.2896                 1.3395
 IR Inten    --      9.0300                13.8042                11.2513

                     19                     20                     21
                      A                      A                      A
 Frequencies --    927.5010               952.5374               975.6620
 Red. masses --      1.8822                 1.6345                 1.6150
 Frc consts  --      0.9540                 0.8738                 0.9058
 IR Inten    --      1.2817                 0.7043                 9.5439

                     22                     23                     24
                      A                      A                      A
 Frequencies --   1026.1535              1050.0914              1061.6069
 Red. masses --      1.7018                 1.3719                 3.6627
 Frc consts  --      1.0558                 0.8913                 2.4321
 IR Inten    --     24.6388                 2.2091                54.8720

                     25                     26                     27
                      A                      A                      A
 Frequencies --   1081.6879              1084.5886              1151.5028
 Red. masses --      2.6406                 1.4438                 2.1833
 Frc consts  --      1.8204                 1.0007                 1.7056
 IR Inten    --     14.7120                 4.2392                21.7216

                     28                     29                     30
                      A                      A                      A
 Frequencies --   1183.9760              1217.6360              1219.0438
 Red. masses --      1.1836                 1.6476                 1.2261
 Frc consts  --      0.9775                 1.4393                 1.0735
 IR Inten    --      3.9733                20.6045                 9.3903

                     31                     32                     33
                      A                      A                      A
 Frequencies --   1234.2893              1306.2332              1318.4919
 Red. masses --      1.6388                 2.8327                 1.7454
 Frc consts  --      1.4710                 2.8477                 1.7877
 IR Inten    --    101.5832                32.0749                41.7802

                     34                     35                     36
                      A                      A                      A
 Frequencies --   1339.0817              1384.6053              1399.6074
 Red. masses --      1.6983                 1.3829                 1.7383
 Frc consts  --      1.7942                 1.5620                 2.0063
 IR Inten    --      5.6177                10.2053                16.7332

                     37                     38                     39
                      A                      A                      A
 Frequencies --   1421.5901              1467.3476              1480.3867
 Red. masses --      1.4052                 1.2648                 1.2086
 Frc consts  --      1.6732                 1.6045                 1.5605
 IR Inten    --     54.9829                 2.7056                 7.8633

                     40                     41                     42
                      A                      A                      A
 Frequencies --   1493.2123              1703.0294              2944.3748
 Red. masses --      1.0878                 7.3337                 1.0727
 Frc consts  --      1.4291                12.5319                 5.4794
 IR Inten    --      2.0928                 6.2775                61.7460

                     43                     44                     45
                      A                      A                      A
 Frequencies --   3010.9650              3030.6895              3038.4830
 Red. masses --      1.0599                 1.0868                 1.1005
 Frc consts  --      5.6613                 5.8814                 5.9863
 IR Inten    --     43.5585                17.9055                28.9025

                     46                     47                     48
                      A                      A                      A
 Frequencies --   3116.6841              3188.3682              3202.1745
 Red. masses --      1.0531                 1.0929                 1.0934
 Frc consts  --      6.0271                 6.5461                 6.6055
 IR Inten    --     15.4692                 5.7240                 7.7292

                     49                     50                     51
                      A                      A                      A
 Frequencies --   3210.2867              3802.4747              3807.3653
 Red. masses --      1.1154                 1.0663                 1.0659
 Frc consts  --      6.7729                 9.0834                 9.1037
 IR Inten    --     12.4883                24.1884                15.3343

 - Thermochemistry -
 -------------------
 Temperature   298.150 Kelvin.  Pressure   1.00000 Atm.
 Atom     1 has atomic number  8 and mass  15.99491

 Molecular mass:   126.06808 amu.
 Principal axes and moments of inertia in atomic units:
                           1         2         3
     Eigenvalues --   550.622371656.890851970.30989
           X            0.99990  -0.00276   0.01397
           Y            0.00301   0.99983  -0.01796
           Z           -0.01392   0.01800   0.99974
 This molecule is an asymmetric top.
 Rotational symmetry number  1.
 Warning -- assumption of classical behavior for rotation
           may cause significant error
 Rotational temperatures (Kelvin)      0.15730     0.05227     0.04396
 Rotational constants (GHZ):           3.27764     1.08923     0.91597
 Zero-point vibrational energy     416822.9 (Joules/Mol)
                                   99.62305 (Kcal/Mol)
 Warning -- explicit consideration of  12 degrees of freedom as
           vibrations may cause significant error
 Vibrational temperatures:    128.84   210.95   259.33   324.43   388.73
          (Kelvin)            463.95   540.80   565.72   585.05   653.86
                              713.01   859.89   956.00  1097.53  1204.24
                             1224.25  1263.06  1301.59  1334.47  1370.49
                             1403.76  1476.40  1510.85  1527.41  1556.31
                             1560.48  1656.75  1703.48  1751.90  1753.93
                             1775.86  1879.38  1897.01  1926.64  1992.14
                             2013.72  2045.35  2111.18  2129.94  2148.40
                             2450.28  4236.29  4332.10  4360.48  4371.69
                             4484.21  4587.35  4607.21  4618.88  5470.91
                             5477.94

 Zero-point correction=                           0.158759 (Hartree/Particle)
 Thermal correction to Energy=                    0.167460
 Thermal correction to Enthalpy=                  0.168404
 Thermal correction to Gibbs Free Energy=         0.125591
 Sum of electronic and zero-point Energies=           -423.013413
 Sum of electronic and thermal Energies=              -423.004712
 Sum of electronic and thermal Enthalpies=            -423.003768
 Sum of electronic and thermal Free Energies=         -423.046582

                     E (Thermal)             CV                S
                      KCal/Mol        Cal/Mol-Kelvin    Cal/Mol-Kelvin
 Total                  105.083             33.673             90.108
 Electronic               0.000              0.000              0.000
 Translational            0.889              2.981             40.409
 Rotational               0.889              2.981             28.976
 Vibrational            103.305             27.711             20.723
 Vibration     1          0.602              1.957              3.670
 Vibration     2          0.617              1.906              2.716
 Vibration     3          0.629              1.867              2.326
 Vibration     4          0.650              1.802              1.915
 Vibration     5          0.674              1.728              1.595
 Vibration     6          0.707              1.630              1.298
 Vibration     7          0.747              1.522              1.056
 Vibration     8          0.760              1.485              0.988
 Vibration     9          0.771              1.456              0.939
 Vibration    10          0.813              1.351              0.782
 Vibration    11          0.851              1.260              0.669
 Vibration    12          0.956              1.037              0.454

 Optimization completed.
    -- Stationary point found.
 Normal termination of Gaussian 09 at Tue Jan 28 14:11:25 2020.
