 Gaussian 09, Revision D.01,
 Gaussian 09:  ES64L-G09RevD.01 24-Apr-2013

 -----------------------------
 # b3lyp 6-31G(2df,p) opt Freq
 -----------------------------

 -----
 titel
 -----
 Symbolic Z-matrix:
 Charge =  0 Multiplicity = 1

 SCF Done:  E(RB3LYP) =  -423.217399311     A.U. after   14 cycles
 Optimization completed.
    -- Stationary point found.
 Normal termination of Gaussian 09 at Mon Jan 27 16:25:03 2020.

 ----------------------------------------------------------------------
 #N Geom=AllCheck Guess=TCheck SCRF=Check GenChk RB3LYP/6-31G(2df,p) Fr
 eq
 ----------------------------------------------------------------------

 Structure from the checkpoint file:  "/scratch/puck/g09_2cf1946f-c92f-4c08-afbe-58499ff79256/Gau-177083.chk"
 -----
 titel
 -----
 Charge =  0 Multiplicity = 1

                         Standard orientation:
 ---------------------------------------------------------------------
 Center     Atomic      Atomic             Coordinates (Angstroms)
 Number     Number       Type             X           Y           Z
 ---------------------------------------------------------------------
      1          6           0       -0.925100   -0.801124    1.461799
      2          6           0       -0.677401   -0.403247   -0.005115
      3          6           0       -1.932312   -0.606797   -0.849544
      4          8           0        0.326469   -1.231434   -0.611294
      5          6           0        1.640257   -1.093855   -0.125200
      6          6           0        2.083697    0.331065   -0.007967
      7          6           0        1.204838    1.338246   -0.019628
      8          6           0       -0.246680    1.077530   -0.039062
      9          8           0       -1.064640    1.975453   -0.006299
     10          1           0       -0.040340   -0.641061    2.085871
     11          1           0       -1.737910   -0.199654    1.876816
     12          1           0       -1.201778   -1.858087    1.514133
     13          1           0       -2.714113    0.080944   -0.524416
     14          1           0       -1.711277   -0.412854   -1.902232
     15          1           0       -2.285275   -1.637033   -0.753470
     16          1           0        1.775837   -1.598204    0.849990
     17          1           0        2.282247   -1.628694   -0.835476
     18          1           0        3.151371    0.511561    0.095581
     19          1           0        1.502819    2.380028    0.042247
 ---------------------------------------------------------------------

 SCF Done:  E(RB3LYP) =  -423.217399311     A.U. after    1 cycles

 The electronic state is 1-A.
 Alpha  occ. eigenvalues --  -19.14761 -19.12676 -10.26292 -10.24810 -10.24539
 Alpha  occ. eigenvalues --  -10.21720 -10.19721 -10.18271 -10.17126  -1.04825
 Alpha  occ. eigenvalues --   -1.03120  -0.81367  -0.79533  -0.70852  -0.69216
 Alpha  occ. eigenvalues --   -0.62331  -0.60163  -0.52197  -0.50142  -0.48766
 Alpha  occ. eigenvalues --   -0.46040  -0.44666  -0.42878  -0.41528  -0.40703
 Alpha  occ. eigenvalues --   -0.40059  -0.37604  -0.37163  -0.36685  -0.35603
 Alpha  occ. eigenvalues --   -0.32390  -0.28524  -0.27279  -0.23174
 Alpha virt. eigenvalues --   -0.05496   0.05830   0.08404   0.10363   0.11695
 Alpha virt. eigenvalues --    0.13218   0.14550   0.15543   0.16690   0.17596
 Alpha virt. eigenvalues --    0.17965   0.19692   0.20175   0.20551   0.21687

 Mulliken charges:
               1
     1  C   -0.426706
     2  C    0.235097
     3  C   -0.410039
     4  O   -0.289471
     5  C   -0.134245
     6  C   -0.066998
     7  C   -0.146348
     8  C    0.354268
     9  O   -0.342156
    10  H    0.117207
    11  H    0.139112
    12  H    0.124803
    13  H    0.139376
    14  H    0.124282
    15  H    0.114836
    16  H    0.111003
    17  H    0.128137
    18  H    0.114742
    19  H    0.113101
 Sum of Mulliken charges =   0.00000

 Dipole moment (field-independent basis, Debye):
    X=              2.4401    Y=             -1.6100    Z=              0.8844  Tot=              3.0542
 Quadrupole moment (field-independent basis, Debye-Ang):
   XX=            -48.2038   YY=            -58.2335   ZZ=            -53.4547
   XY=              3.3248   XZ=             -0.0286   YZ=             -1.2015

  Exact polarizability:  93.556  -6.961  81.248   0.646  -0.736  59.277
 Approx polarizability: 140.361 -28.141 130.068   0.941   0.145  88.243

                      1                      2                      3
                      A                      A                      A
 Frequencies --     75.4228               187.8028               208.5697
 Red. masses --      4.2247                 1.4666                 1.6427
 Frc consts  --      0.0142                 0.0305                 0.0421
 IR Inten    --      4.0334                 0.4676                 2.6429

                      4                      5                      6
                      A                      A                      A
 Frequencies --    223.0606               247.3426               299.6178
 Red. masses --      2.2236                 1.1587                 3.0889
 Frc consts  --      0.0652                 0.0418                 0.1634
 IR Inten    --      0.5623                 0.7320                 6.4945

                      7                      8                      9
                      A                      A                      A
 Frequencies --    335.5028               345.6907               399.5513
 Red. masses --      2.3188                 2.6359                 4.4266
 Frc consts  --      0.1538                 0.1856                 0.4164
 IR Inten    --      0.7154                 2.3985                 4.1610

                     10                     11                     12
                      A                      A                      A
 Frequencies --    474.0444               504.9730               533.2396
 Red. masses --      3.7503                 6.1843                 4.4098
 Frc consts  --      0.4965                 0.9291                 0.7388
 IR Inten    --     10.4317                 2.3407                 3.7135

                     13                     14                     15
                      A                      A                      A
 Frequencies --    651.5239               668.3800               809.1518
 Red. masses --      1.5671                 4.0640                 4.2929
 Frc consts  --      0.3919                 1.0697                 1.6560
 IR Inten    --      8.1319                 3.3572                 1.9097

                     16                     17                     18
                      A                      A                      A
 Frequencies --    828.6981               835.3208               921.8062
 Red. masses --      2.6780                 2.5885                 2.7729
 Frc consts  --      1.0836                 1.0642                 1.3882
 IR Inten    --      5.0494                15.5241                 1.7817

                     19                     20                     21
                      A                      A                      A
 Frequencies --    940.0339               955.2116              1010.0307
 Red. masses --      1.5528                 2.1003                 1.2923
 Frc consts  --      0.8085                 1.1291                 0.7767
 IR Inten    --      1.1496                 8.6420                 5.1352

                     22                     23                     24
                      A                      A                      A
 Frequencies --   1014.9888              1043.8667              1102.7125
 Red. masses --      1.3620                 1.7429                 1.9988
 Frc consts  --      0.8267                 1.1190                 1.4320
 IR Inten    --      3.7944                 5.9269                77.7891

                     25                     26                     27
                      A                      A                      A
 Frequencies --   1156.9455              1180.5140              1193.6896
 Red. masses --      3.2180                 2.0492                 2.0144
 Frc consts  --      2.5378                 1.6826                 1.6912
 IR Inten    --     13.6856                13.3601                19.4457

                     28                     29                     30
                      A                      A                      A
 Frequencies --   1226.7002              1263.4999              1308.2099
 Red. masses --      2.6759                 1.2224                 2.5580
 Frc consts  --      2.3725                 1.1498                 2.5793
 IR Inten    --     86.5909                 1.0416                18.5201

                     31                     32                     33
                      A                      A                      A
 Frequencies --   1386.1004              1391.7155              1406.6190
 Red. masses --      1.2587                 1.3753                 1.5544
 Frc consts  --      1.4249                 1.5694                 1.8120
 IR Inten    --      9.5104                 6.0064                21.3713

                     34                     35                     36
                      A                      A                      A
 Frequencies --   1407.9331              1473.5324              1478.2529
 Red. masses --      1.4072                 1.0640                 1.0539
 Frc consts  --      1.6435                 1.3611                 1.3568
 IR Inten    --      5.0260                 2.1298                 2.4082

                     37                     38                     39
                      A                      A                      A
 Frequencies --   1484.7863              1495.4939              1509.7996
 Red. masses --      1.0610                 1.0595                 1.0640
 Frc consts  --      1.3781                 1.3961                 1.4290
 IR Inten    --      5.5071                 3.6445                 2.7106

                     40                     41                     42
                      A                      A                      A
 Frequencies --   1688.9790              1774.4652              2934.4437
 Red. masses --      6.8448                11.8216                 1.0724
 Frc consts  --     11.5043                21.9311                 5.4408
 IR Inten    --     12.3219               180.9254                39.8134

                     43                     44                     45
                      A                      A                      A
 Frequencies --   3041.0498              3050.3331              3054.2824
 Red. masses --      1.0344                 1.0857                 1.0354
 Frc consts  --      5.6360                 5.9521                 5.6906
 IR Inten    --     13.9376                22.6628                13.7387

                     46                     47                     48
                      A                      A                      A
 Frequencies --   3111.4880              3125.1941              3127.8311
 Red. masses --      1.1015                 1.1024                 1.1020
 Frc consts  --      6.2833                 6.3437                 6.3520
 IR Inten    --     20.8969                15.4566                10.9788

                     49                     50                     51
                      A                      A                      A
 Frequencies --   3152.1439              3156.0181              3191.0350
 Red. masses --      1.1011                 1.0871                 1.0964
 Frc consts  --      6.4457                 6.3798                 6.5779
 IR Inten    --      7.8140                 9.8134                 9.7934

 - Thermochemistry -
 -------------------
 Temperature   298.150 Kelvin.  Pressure   1.00000 Atm.
 Atom     1 has atomic number  6 and mass  12.00000

 Molecular mass:   126.06808 amu.
 Principal axes and moments of inertia in atomic units:
                           1         2         3
     Eigenvalues --   806.187211003.194751405.35469
           X            0.99499   0.09973   0.00631
           Y           -0.09957   0.99480  -0.02153
           Z           -0.00843   0.02079   0.99975
 This molecule is an asymmetric top.
 Rotational symmetry number  1.
 Warning -- assumption of classical behavior for rotation
           may cause significant error
 Rotational temperatures (Kelvin)      0.10744     0.08634     0.06163
 Rotational constants (GHZ):           2.23861     1.79899     1.28419
 Zero-point vibrational energy     415030.0 (Joules/Mol)
                                   99.19455 (Kcal/Mol)
 Warning -- explicit consideration of  12 degrees of freedom as
           vibrations may cause significant error
 Vibrational temperatures:    108.52   270.21   300.08   320.93   355.87
          (Kelvin)            431.08   482.71   497.37   574.86   682.04
                              726.54   767.21   937.40   961.65  1164.19
                             1192.31  1201.84  1326.27  1352.50  1374.33
                             1453.21  1460.34  1501.89  1586.56  1664.58
                             1698.49  1717.45  1764.95  1817.89  1882.22
                             1994.29  2002.37  2023.81  2025.70  2120.08
                             2126.87  2136.27  2151.68  2172.26  2430.06
                             2553.06  4222.00  4375.39  4388.74  4394.43
                             4476.73  4496.45  4500.25  4535.23  4540.80
                             4591.18

 Zero-point correction=                           0.158077 (Hartree/Particle)
 Thermal correction to Energy=                    0.166869
 Thermal correction to Enthalpy=                  0.167813
 Thermal correction to Gibbs Free Energy=         0.125045
 Sum of electronic and zero-point Energies=           -423.059323
 Sum of electronic and thermal Energies=              -423.050531
 Sum of electronic and thermal Enthalpies=            -423.049586
 Sum of electronic and thermal Free Energies=         -423.092354

                     E (Thermal)             CV                S
                      KCal/Mol        Cal/Mol-Kelvin    Cal/Mol-Kelvin
 Total                  104.712             33.621             90.012
 Electronic               0.000              0.000              0.000
 Translational            0.889              2.981             40.409
 Rotational               0.889              2.981             28.521
 Vibrational            102.934             27.659             21.083
 Vibration     1          0.599              1.965              4.007
 Vibration     2          0.632              1.857              2.249
 Vibration     3          0.642              1.828              2.056
 Vibration     4          0.649              1.806              1.934
 Vibration     5          0.661              1.767              1.749
 Vibration     6          0.692              1.674              1.419
 Vibration     7          0.717              1.605              1.233
 Vibration     8          0.724              1.584              1.186
 Vibration     9          0.766              1.471              0.964
 Vibration    10          0.831              1.308              0.726
 Vibration    11          0.860              1.239              0.646
 Vibration    12          0.888              1.176              0.580

 Optimization completed.
    -- Stationary point found.
 Normal termination of Gaussian 09 at Mon Jan 27 17:09:59 2020.
