 Gaussian 09, Revision D.01,
 Gaussian 09:  ES64L-G09RevD.01 24-Apr-2013

 -----------------------------
 # b3lyp 6-31G(2df,p) opt Freq
 -----------------------------

 -----
 titel
 -----
 Symbolic Z-matrix:
 Charge =  0 Multiplicity = 1

 SCF Done:  E(RB3LYP) =  -423.170558803     A.U. after   14 cycles
 Optimization completed.
    -- Stationary point found.
 Normal termination of Gaussian 09 at Tue Jan 28 00:36:57 2020.

 ----------------------------------------------------------------------
 #N Geom=AllCheck Guess=TCheck SCRF=Check GenChk RB3LYP/6-31G(2df,p) Fr
 eq
 ----------------------------------------------------------------------

 Structure from the checkpoint file:  "/scratch/puck/g09_2416eba3-5652-4de7-87db-9c25015b0bc0/Gau-71430.chk"
 -----
 titel
 -----
 Charge =  0 Multiplicity = 1

                         Standard orientation:
 ---------------------------------------------------------------------
 Center     Atomic      Atomic             Coordinates (Angstroms)
 Number     Number       Type             X           Y           Z
 ---------------------------------------------------------------------
      1          8           0        1.013300   -1.740717   -0.783648
      2          6           0        1.101403   -1.034825    0.436851
      3          6           0        2.175654    0.095935    0.407470
      4          6           0        1.035699    1.068399    0.046006
      5          8           0        0.994371    2.151060   -0.457708
      6          6           0       -0.035049    0.039768    0.475819
      7          6           0       -1.284725   -0.140373   -0.335416
      8          6           0       -2.532512   -0.715897    0.292392
      9          6           0       -2.479459    0.743811   -0.077997
     10          1           0        1.817079   -2.258877   -0.891018
     11          1           0        1.142061   -1.715480    1.295043
     12          1           0        2.601021    0.321413    1.391174
     13          1           0        2.983740   -0.006715   -0.321099
     14          1           0       -0.284510    0.250637    1.524960
     15          1           0       -1.100516   -0.413468   -1.367990
     16          1           0       -3.143320   -1.380940   -0.307654
     17          1           0       -2.499769   -0.975435    1.345706
     18          1           0       -3.053366    1.083657   -0.932460
     19          1           0       -2.409855    1.471544    0.723432
 ---------------------------------------------------------------------

 SCF Done:  E(RB3LYP) =  -423.170558803     A.U. after    1 cycles

 The electronic state is 1-A.
 Alpha  occ. eigenvalues --  -19.14855 -19.13467 -10.26655 -10.24512 -10.19598
 Alpha  occ. eigenvalues --  -10.19140 -10.18975 -10.18281 -10.18195  -1.04464
 Alpha  occ. eigenvalues --   -1.03158  -0.86146  -0.82743  -0.69439  -0.62461
 Alpha  occ. eigenvalues --   -0.59581  -0.58342  -0.54756  -0.50840  -0.47654
 Alpha  occ. eigenvalues --   -0.46723  -0.46013  -0.43797  -0.42772  -0.39450
 Alpha  occ. eigenvalues --   -0.38362  -0.36582  -0.36117  -0.34779  -0.32649
 Alpha  occ. eigenvalues --   -0.29977  -0.28026  -0.27576  -0.23388
 Alpha virt. eigenvalues --   -0.01658   0.06671   0.10453   0.10884   0.11525
 Alpha virt. eigenvalues --    0.12432   0.14303   0.14882   0.15983   0.16601
 Alpha virt. eigenvalues --    0.17519   0.18698   0.19160   0.22832   0.23749

 Mulliken charges:
               1
     1  O   -0.425134
     2  C    0.083027
     3  C   -0.373911
     4  C    0.387058
     5  O   -0.292523
     6  C   -0.121310
     7  C    0.031936
     8  C   -0.278010
     9  C   -0.265913
    10  H    0.288192
    11  H    0.069505
    12  H    0.126249
    13  H    0.122805
    14  H    0.096424
    15  H    0.102261
    16  H    0.114377
    17  H    0.105778
    18  H    0.115834
    19  H    0.113356
 Sum of Mulliken charges =   0.00000

 Dipole moment (field-independent basis, Debye):
    X=              0.9982    Y=             -2.5953    Z=              1.6204  Tot=              3.2183
 Quadrupole moment (field-independent basis, Debye-Ang):
   XX=            -47.9830   YY=            -58.2849   ZZ=            -51.1260
   XY=             -5.6663   XZ=              1.3296   YZ=              2.2014

  Exact polarizability:  89.370  -1.331  76.149   0.791  -2.174  64.736
 Approx polarizability: 112.351  -2.078 115.879  -0.069  -5.839 102.004

                      1                      2                      3
                      A                      A                      A
 Frequencies --     55.6978                70.2923               126.1300
 Red. masses --      3.1596                 4.1039                 3.2381
 Frc consts  --      0.0058                 0.0119                 0.0304
 IR Inten    --      1.3751                 2.2469                 2.1879

                      4                      5                      6
                      A                      A                      A
 Frequencies --    176.7172               276.9467               295.0147
 Red. masses --      4.1101                 2.1712                 1.3663
 Frc consts  --      0.0756                 0.0981                 0.0701
 IR Inten    --      3.3595                27.0821                77.4063

                      7                      8                      9
                      A                      A                      A
 Frequencies --    328.1510               402.4109               430.6019
 Red. masses --      3.3701                 2.6662                 2.7447
 Frc consts  --      0.2138                 0.2544                 0.2998
 IR Inten    --      1.3101                 4.7768                 2.9988

                     10                     11                     12
                      A                      A                      A
 Frequencies --    500.5605               566.5053               702.1432
 Red. masses --      4.1362                 2.9666                 1.9916
 Frc consts  --      0.6106                 0.5609                 0.5785
 IR Inten    --      7.0089                 5.3409                 0.7374

                     13                     14                     15
                      A                      A                      A
 Frequencies --    736.2653               780.4624               825.9064
 Red. masses --      3.5524                 1.1223                 1.3937
 Frc consts  --      1.1346                 0.4028                 0.5601
 IR Inten    --      2.5592                 0.0265                 6.3196

                     16                     17                     18
                      A                      A                      A
 Frequencies --    850.8898               889.7868               907.0020
 Red. masses --      2.3688                 2.8395                 3.5486
 Frc consts  --      1.0105                 1.3245                 1.7200
 IR Inten    --     12.5535                 1.7445                 6.3201

                     19                     20                     21
                      A                      A                      A
 Frequencies --    933.1051               976.3684               998.5778
 Red. masses --      2.6629                 2.8484                 1.6335
 Frc consts  --      1.3660                 1.5998                 0.9597
 IR Inten    --      6.4598                12.5562                27.4595

                     22                     23                     24
                      A                      A                      A
 Frequencies --   1045.0659              1058.2479              1060.2225
 Red. masses --      1.6898                 1.4592                 1.8698
 Frc consts  --      1.0874                 0.9628                 1.2383
 IR Inten    --     22.4613                 9.9220                28.6156

                     25                     26                     27
                      A                      A                      A
 Frequencies --   1077.0664              1118.5358              1136.1593
 Red. masses --      1.3900                 2.7234                 1.1128
 Frc consts  --      0.9501                 2.0075                 0.8463
 IR Inten    --      3.0061                60.7077                 2.6946

                     28                     29                     30
                      A                      A                      A
 Frequencies --   1189.1469              1195.4511              1201.9572
 Red. masses --      1.7799                 1.4341                 1.7980
 Frc consts  --      1.4829                 1.2075                 1.5305
 IR Inten    --     15.1437                 3.6178                 4.5318

                     31                     32                     33
                      A                      A                      A
 Frequencies --   1211.1101              1232.7334              1246.8211
 Red. masses --      1.5949                 1.6465                 1.4297
 Frc consts  --      1.3783                 1.4742                 1.3095
 IR Inten    --     17.1872                 1.0288                22.7520

                     34                     35                     36
                      A                      A                      A
 Frequencies --   1272.5303              1322.0884              1408.8969
 Red. masses --      1.3404                 1.4763                 1.3150
 Frc consts  --      1.2789                 1.5203                 1.5379
 IR Inten    --      2.4005                42.4029                15.7357

                     37                     38                     39
                      A                      A                      A
 Frequencies --   1420.3799              1434.1521              1472.1217
 Red. masses --      1.5544                 1.2999                 1.0870
 Frc consts  --      1.8477                 1.5753                 1.3879
 IR Inten    --      7.1497                 0.9404                 1.2144

                     40                     41                     42
                      A                      A                      A
 Frequencies --   1505.8079              1896.6209              3019.7605
 Red. masses --      1.3697                12.7775                 1.0822
 Frc consts  --      1.8299                27.0805                 5.8141
 IR Inten    --      1.3178               235.1199                 8.3904

                     43                     44                     45
                      A                      A                      A
 Frequencies --   3034.4179              3056.5714              3118.0172
 Red. masses --      1.0833                 1.0631                 1.1051
 Frc consts  --      5.8769                 5.8516                 6.3299
 IR Inten    --     49.9342                13.6424                 9.5575

                     46                     47                     48
                      A                      A                      A
 Frequencies --   3129.6045              3137.7887              3178.5216
 Red. masses --      1.0524                 1.0572                 1.0889
 Frc consts  --      6.0733                 6.1330                 6.4819
 IR Inten    --     18.8733                11.8020                 1.9961

                     49                     50                     51
                      A                      A                      A
 Frequencies --   3208.9152              3225.4009              3820.4165
 Red. masses --      1.1174                 1.1147                 1.0663
 Frc consts  --      6.7790                 6.8323                 9.1693
 IR Inten    --      1.0946                19.8427                25.9380

 - Thermochemistry -
 -------------------
 Temperature   298.150 Kelvin.  Pressure   1.00000 Atm.
 Atom     1 has atomic number  8 and mass  15.99491

 Molecular mass:   126.06808 amu.
 Principal axes and moments of inertia in atomic units:
                           1         2         3
     Eigenvalues --   754.615241339.089471845.99725
           X            0.99955  -0.02929   0.00717
           Y            0.02928   0.99957   0.00176
           Z           -0.00722  -0.00155   0.99997
 This molecule is an asymmetric top.
 Rotational symmetry number  1.
 Warning -- assumption of classical behavior for rotation
           may cause significant error
 Rotational temperatures (Kelvin)      0.11478     0.06468     0.04692
 Rotational constants (GHZ):           2.39160     1.34774     0.97765
 Zero-point vibrational energy     414291.1 (Joules/Mol)
                                   99.01795 (Kcal/Mol)
 Warning -- explicit consideration of  11 degrees of freedom as
           vibrations may cause significant error
 Vibrational temperatures:     80.14   101.13   181.47   254.26   398.46
          (Kelvin)            424.46   472.14   578.98   619.54   720.19
                              815.07  1010.23  1059.32  1122.91  1188.29
                             1224.24  1280.20  1304.97  1342.53  1404.77
                             1436.73  1503.61  1522.58  1525.42  1549.66
                             1609.32  1634.68  1710.91  1719.99  1729.35
                             1742.52  1773.63  1793.90  1830.89  1902.19
                             2027.09  2043.61  2063.42  2118.05  2166.52
                             2728.81  4344.76  4365.85  4397.72  4486.13
                             4502.80  4514.57  4573.18  4616.91  4640.63
                             5496.72

 Zero-point correction=                           0.157795 (Hartree/Particle)
 Thermal correction to Energy=                    0.166758
 Thermal correction to Enthalpy=                  0.167702
 Thermal correction to Gibbs Free Energy=         0.123369
 Sum of electronic and zero-point Energies=           -423.012764
 Sum of electronic and thermal Energies=              -423.003801
 Sum of electronic and thermal Enthalpies=            -423.002857
 Sum of electronic and thermal Free Energies=         -423.047190

                     E (Thermal)             CV                S
                      KCal/Mol        Cal/Mol-Kelvin    Cal/Mol-Kelvin
 Total                  104.642             33.367             93.307
 Electronic               0.000              0.000              0.000
 Translational            0.889              2.981             40.409
 Rotational               0.889              2.981             29.013
 Vibrational            102.864             27.405             23.885
 Vibration     1          0.596              1.975              4.604
 Vibration     2          0.598              1.968              4.145
 Vibration     3          0.611              1.927              3.004
 Vibration     4          0.628              1.871              2.363
 Vibration     5          0.678              1.716              1.552
 Vibration     6          0.689              1.683              1.445
 Vibration     7          0.711              1.619              1.269
 Vibration     8          0.768              1.465              0.954
 Vibration     9          0.792              1.404              0.857
 Vibration    10          0.856              1.249              0.657
 Vibration    11          0.922              1.104              0.511

 Optimization completed.
    -- Stationary point found.
 Normal termination of Gaussian 09 at Tue Jan 28 01:16:53 2020.
