 Gaussian 09, Revision D.01,
 Gaussian 09:  ES64L-G09RevD.01 24-Apr-2013

 -----------------------------
 # b3lyp 6-31G(2df,p) opt Freq
 -----------------------------

 -----
 titel
 -----
 Symbolic Z-matrix:
 Charge =  0 Multiplicity = 1

 SCF Done:  E(RB3LYP) =  -423.131159959     A.U. after   12 cycles
 Optimization completed.
    -- Stationary point found.
 Normal termination of Gaussian 09 at Mon Jan 27 22:04:42 2020.

 ----------------------------------------------------------------------
 #N Geom=AllCheck Guess=TCheck SCRF=Check GenChk RB3LYP/6-31G(2df,p) Fr
 eq
 ----------------------------------------------------------------------

 Structure from the checkpoint file:  "/scratch/puck/g09_e98ad217-0457-4691-bf22-950f9c045346/Gau-15068.chk"
 -----
 titel
 -----
 Charge =  0 Multiplicity = 1

                         Standard orientation:
 ---------------------------------------------------------------------
 Center     Atomic      Atomic             Coordinates (Angstroms)
 Number     Number       Type             X           Y           Z
 ---------------------------------------------------------------------
      1          6           0       -0.186424    2.194337   -0.103485
      2          6           0       -0.072546    0.777647   -0.652949
      3          6           0       -1.059699   -0.208494   -0.023582
      4          8           0       -2.434397   -0.102986    0.017124
      5          6           0       -0.424132   -1.592722   -0.059751
      6          6           0        0.958112   -1.448629   -0.695819
      7          6           0        1.018455   -0.084325    0.041972
      8          8           0        2.206041    0.559450    0.336536
      9          6           0       -0.093044   -0.624793    1.064721
     10          1           0        0.673667    2.799092   -0.402778
     11          1           0       -1.090941    2.686168   -0.478584
     12          1           0       -0.224858    2.191845    0.991727
     13          1           0       -0.021415    0.792741   -1.749696
     14          1           0       -2.660288    0.674019    0.540411
     15          1           0       -1.045626   -2.475608    0.008524
     16          1           0        1.662101   -2.170981   -0.266403
     17          1           0        1.055760   -1.438280   -1.787661
     18          1           0        2.802762   -0.073259    0.750066
     19          1           0       -0.168636   -0.715559    2.138473
 ---------------------------------------------------------------------

 SCF Done:  E(RB3LYP) =  -423.131159959     A.U. after    1 cycles

 The electronic state is 1-A.
 Alpha  occ. eigenvalues --  -19.14850 -19.14847 -10.24292 -10.23525 -10.18838
 Alpha  occ. eigenvalues --  -10.18200 -10.18158 -10.17893 -10.17164  -1.03815
 Alpha  occ. eigenvalues --   -1.03174  -0.91593  -0.75765  -0.70389  -0.65400
 Alpha  occ. eigenvalues --   -0.61717  -0.56352  -0.54662  -0.51774  -0.48252
 Alpha  occ. eigenvalues --   -0.46203  -0.43842  -0.42088  -0.41281  -0.39342
 Alpha  occ. eigenvalues --   -0.38035  -0.36867  -0.36321  -0.34513  -0.31746
 Alpha  occ. eigenvalues --   -0.28277  -0.27649  -0.25026  -0.23080
 Alpha virt. eigenvalues --    0.06703   0.07684   0.11799   0.12362   0.12869
 Alpha virt. eigenvalues --    0.13817   0.14502   0.15550   0.16456   0.17521
 Alpha virt. eigenvalues --    0.18517   0.19472   0.20197   0.21420   0.23397

 Mulliken charges:
               1
     1  C   -0.427781
     2  C   -0.091177
     3  C    0.418252
     4  O   -0.468127
     5  C   -0.113031
     6  C   -0.304332
     7  C    0.390420
     8  O   -0.477209
     9  C   -0.276582
    10  H    0.130190
    11  H    0.108031
    12  H    0.112609
    13  H    0.062325
    14  H    0.287938
    15  H    0.094446
    16  H    0.086347
    17  H    0.093912
    18  H    0.282413
    19  H    0.091356
 Sum of Mulliken charges =   0.00000

 Dipole moment (field-independent basis, Debye):
    X=              0.6828    Y=             -0.2176    Z=              1.1877  Tot=              1.3872
 Quadrupole moment (field-independent basis, Debye-Ang):
   XX=            -52.6568   YY=            -52.5186   ZZ=            -51.6502
   XY=             -6.1429   XZ=             -0.7335   YZ=             -0.3605

  Exact polarizability:  77.732  -3.482  79.568  -0.820   0.204  66.323
 Approx polarizability: 113.592  -2.187 110.160   1.683   0.917 105.800

                      1                      2                      3
                      A                      A                      A
 Frequencies --    177.7342               201.3199               227.0383
 Red. masses --      3.3052                 2.0641                 1.2063
 Frc consts  --      0.0615                 0.0493                 0.0366
 IR Inten    --      1.1162                 0.4711                 0.7926

                      4                      5                      6
                      A                      A                      A
 Frequencies --    257.3062               292.2431               299.4765
 Red. masses --      2.9651                 1.2248                 1.6774
 Frc consts  --      0.1157                 0.0616                 0.0886
 IR Inten    --     13.0983                29.9931                57.0837

                      7                      8                      9
                      A                      A                      A
 Frequencies --    351.0641               376.0693               455.5305
 Red. masses --      2.0036                 2.4110                 3.2289
 Frc consts  --      0.1455                 0.2009                 0.3948
 IR Inten    --     91.5868                12.1185                 1.6662

                     10                     11                     12
                      A                      A                      A
 Frequencies --    470.6341               516.1369               597.7651
 Red. masses --      2.4847                 3.2190                 4.6857
 Frc consts  --      0.3243                 0.5052                 0.9865
 IR Inten    --      1.1094                 6.2725                 4.7119

                     13                     14                     15
                      A                      A                      A
 Frequencies --    677.2900               734.4364               764.3467
 Red. masses --      3.6181                 2.9685                 2.8568
 Frc consts  --      0.9779                 0.9434                 0.9834
 IR Inten    --      8.6911                 5.6274                 0.8098

                     16                     17                     18
                      A                      A                      A
 Frequencies --    814.6644               834.2451               908.7681
 Red. masses --      1.3105                 2.3017                 3.3173
 Frc consts  --      0.5124                 0.9438                 1.6142
 IR Inten    --      7.5780                 3.4527                14.6399

                     19                     20                     21
                      A                      A                      A
 Frequencies --    926.7205               939.4983               972.5216
 Red. masses --      2.1219                 1.3807                 2.8540
 Frc consts  --      1.0737                 0.7180                 1.5904
 IR Inten    --      9.0232                 3.3967                14.7219

                     22                     23                     24
                      A                      A                      A
 Frequencies --    987.0508              1041.7225              1059.8111
 Red. masses --      1.9125                 1.7366                 1.6453
 Frc consts  --      1.0978                 1.1104                 1.0888
 IR Inten    --      1.1483                 2.9067                22.7993

                     25                     26                     27
                      A                      A                      A
 Frequencies --   1074.5783              1102.7361              1127.2717
 Red. masses --      1.5274                 2.1186                 1.9457
 Frc consts  --      1.0391                 1.5179                 1.4567
 IR Inten    --      6.3467                12.0701                17.7324

                     28                     29                     30
                      A                      A                      A
 Frequencies --   1140.6429              1180.9507              1209.6767
 Red. masses --      1.6442                 1.9042                 1.7880
 Frc consts  --      1.2604                 1.5647                 1.5415
 IR Inten    --      0.4314               126.1176                 6.5672

                     31                     32                     33
                      A                      A                      A
 Frequencies --   1236.2045              1284.3537              1305.8758
 Red. masses --      1.8482                 2.3060                 1.8372
 Frc consts  --      1.6641                 2.2412                 1.8459
 IR Inten    --      3.5574                 3.8406                27.9552

                     34                     35                     36
                      A                      A                      A
 Frequencies --   1315.0424              1359.2990              1403.7883
 Red. masses --      1.7535                 1.7751                 1.3829
 Frc consts  --      1.7867                 1.9324                 1.6057
 IR Inten    --    227.8770                32.2450                 5.6616

                     37                     38                     39
                      A                      A                      A
 Frequencies --   1410.7297              1443.2715              1493.8062
 Red. masses --      1.9003                 3.3006                 1.0889
 Frc consts  --      2.2282                 4.0508                 1.4316
 IR Inten    --      3.0275                24.1624                 2.7098

                     40                     41                     42
                      A                      A                      A
 Frequencies --   1498.6181              1502.9562              3016.2045
 Red. masses --      1.0810                 1.1302                 1.0782
 Frc consts  --      1.4304                 1.5042                 5.7794
 IR Inten    --      8.2408                 2.3303                21.7999

                     43                     44                     45
                      A                      A                      A
 Frequencies --   3024.8883              3028.7634              3076.8724
 Red. masses --      1.0608                 1.0369                 1.1082
 Frc consts  --      5.7190                 5.6040                 6.1813
 IR Inten    --     76.5259                21.2974                33.5695

                     46                     47                     48
                      A                      A                      A
 Frequencies --   3092.0204              3113.2724              3206.7467
 Red. masses --      1.1012                 1.0993                 1.0912
 Frc consts  --      6.2028                 6.2774                 6.6113
 IR Inten    --     34.9313                18.3242                 8.9117

                     49                     50                     51
                      A                      A                      A
 Frequencies --   3224.9473              3794.9961              3809.5067
 Red. masses --      1.0989                 1.0658                 1.0658
 Frc consts  --      6.7340                 9.0441                 9.1129
 IR Inten    --      4.3963                19.9062                23.0137

 - Thermochemistry -
 -------------------
 Temperature   298.150 Kelvin.  Pressure   1.00000 Atm.
 Atom     1 has atomic number  6 and mass  12.00000

 Molecular mass:   126.06808 amu.
 Principal axes and moments of inertia in atomic units:
                           1         2         3
     Eigenvalues --   731.98408 979.838041427.86907
           X            0.99631  -0.08523  -0.01013
           Y            0.08526   0.99636   0.00266
           Z            0.00986  -0.00351   0.99995
 This molecule is an asymmetric top.
 Rotational symmetry number  1.
 Warning -- assumption of classical behavior for rotation
           may cause significant error
 Rotational temperatures (Kelvin)      0.11833     0.08840     0.06066
 Rotational constants (GHZ):           2.46555     1.84188     1.26394
 Zero-point vibrational energy     414873.4 (Joules/Mol)
                                   99.15712 (Kcal/Mol)
 Warning -- explicit consideration of  12 degrees of freedom as
           vibrations may cause significant error
 Vibrational temperatures:    255.72   289.65   326.66   370.21   420.47
          (Kelvin)            430.88   505.10   541.08   655.41   677.14
                              742.60   860.05   974.47  1056.69  1099.72
                             1172.12  1200.29  1307.51  1333.34  1351.73
                             1399.24  1420.14  1498.80  1524.83  1546.08
                             1586.59  1621.89  1641.13  1699.12  1740.45
                             1778.62  1847.90  1878.86  1892.05  1955.73
                             2019.74  2029.72  2076.54  2149.25  2156.17
                             2162.42  4339.64  4352.13  4357.71  4426.93
                             4448.72  4479.30  4613.79  4639.97  5460.15
                             5481.02

 Zero-point correction=                           0.158017 (Hartree/Particle)
 Thermal correction to Energy=                    0.166389
 Thermal correction to Enthalpy=                  0.167333
 Thermal correction to Gibbs Free Energy=         0.125965
 Sum of electronic and zero-point Energies=           -422.973143
 Sum of electronic and thermal Energies=              -422.964771
 Sum of electronic and thermal Enthalpies=            -422.963827
 Sum of electronic and thermal Free Energies=         -423.005195

                     E (Thermal)             CV                S
                      KCal/Mol        Cal/Mol-Kelvin    Cal/Mol-Kelvin
 Total                  104.410             33.786             87.066
 Electronic               0.000              0.000              0.000
 Translational            0.889              2.981             40.409
 Rotational               0.889              2.981             28.417
 Vibrational            102.633             27.824             18.240
 Vibration     1          0.628              1.870              2.352
 Vibration     2          0.638              1.838              2.121
 Vibration     3          0.651              1.800              1.902
 Vibration     4          0.667              1.750              1.680
 Vibration     5          0.688              1.688              1.461
 Vibration     6          0.692              1.675              1.420
 Vibration     7          0.728              1.573              1.161
 Vibration     8          0.747              1.521              1.055
 Vibration     9          0.814              1.349              0.779
 Vibration    10          0.828              1.315              0.736
 Vibration    11          0.871              1.214              0.619
 Vibration    12          0.956              1.037              0.454

 Normal termination of Gaussian 09 at Mon Jan 27 22:56:23 2020.
