 Gaussian 09, Revision D.01,
 Gaussian 09:  ES64L-G09RevD.01 24-Apr-2013

 -----------------------------
 # b3lyp 6-31G(2df,p) opt Freq
 -----------------------------

 -----
 titel
 -----
 Symbolic Z-matrix:
 Charge =  0 Multiplicity = 1

 SCF Done:  E(RB3LYP) =  -423.133373935     A.U. after   14 cycles
 Optimization completed.
    -- Stationary point found.
 Normal termination of Gaussian 09 at Tue Jan 28 00:02:39 2020.

 ----------------------------------------------------------------------
 #N Geom=AllCheck Guess=TCheck SCRF=Check GenChk RB3LYP/6-31G(2df,p) Fr
 eq
 ----------------------------------------------------------------------

 Structure from the checkpoint file:  "/scratch/puck/g09_b19d432d-e72d-496b-b747-4ec4df08456e/Gau-184674.chk"
 -----
 titel
 -----
 Charge =  0 Multiplicity = 1

                         Standard orientation:
 ---------------------------------------------------------------------
 Center     Atomic      Atomic             Coordinates (Angstroms)
 Number     Number       Type             X           Y           Z
 ---------------------------------------------------------------------
      1          6           0        2.473448   -0.868568   -0.025693
      2          6           0        0.955154   -0.880081   -0.055286
      3          6           0        0.136947    0.047821   -1.033945
      4          6           0        0.631664    1.436102   -0.608987
      5          8           0        0.641262    1.281754    0.835314
      6          6           0        0.150755   -0.060595    0.998045
      7          6           0       -1.004189   -0.112646   -0.009257
      8          6           0       -2.414847    0.237013    0.028792
      9          8           0       -1.967375   -1.138058   -0.061547
     10          1           0        2.845900   -1.564936    0.732996
     11          1           0        2.890493   -1.178588   -0.990000
     12          1           0        2.864090    0.122451    0.217577
     13          1           0        0.560438   -1.897363   -0.119313
     14          1           0        0.016288   -0.163624   -2.095101
     15          1           0        1.637186    1.681532   -0.967458
     16          1           0       -0.054075    2.242615   -0.893033
     17          1           0        0.068693   -0.310910    2.053957
     18          1           0       -2.884933    0.508000    0.972519
     19          1           0       -2.908767    0.616975   -0.864293
 ---------------------------------------------------------------------

 SCF Done:  E(RB3LYP) =  -423.133373935     A.U. after    1 cycles

 The electronic state is 1-A.
 Alpha  occ. eigenvalues --  -19.15471 -19.13900 -10.24292 -10.23519 -10.23517
 Alpha  occ. eigenvalues --  -10.23034 -10.19989 -10.19503 -10.17591  -1.07692
 Alpha  occ. eigenvalues --   -1.03964  -0.83493  -0.73421  -0.72077  -0.67035
 Alpha  occ. eigenvalues --   -0.59095  -0.58447  -0.55525  -0.52264  -0.49172
 Alpha  occ. eigenvalues --   -0.48280  -0.45925  -0.41946  -0.40766  -0.39835
 Alpha  occ. eigenvalues --   -0.39231  -0.36498  -0.35346  -0.34573  -0.33691
 Alpha  occ. eigenvalues --   -0.31856  -0.29386  -0.27240  -0.23424
 Alpha virt. eigenvalues --    0.07722   0.09686   0.10806   0.10974   0.12931
 Alpha virt. eigenvalues --    0.13667   0.14440   0.15040   0.15524   0.16383
 Alpha virt. eigenvalues --    0.16726   0.17487   0.18965   0.19650   0.22433

 Mulliken charges:
               1
     1  C   -0.445075
     2  C    0.025891
     3  C   -0.196304
     4  C   -0.087012
     5  O   -0.280041
     6  C   -0.017763
     7  C    0.525447
     8  C   -0.309197
     9  O   -0.302991
    10  H    0.119857
    11  H    0.116717
    12  H    0.134959
    13  H    0.098304
    14  H    0.080526
    15  H    0.103571
    16  H    0.104172
    17  H    0.086277
    18  H    0.123746
    19  H    0.118917
 Sum of Mulliken charges =   0.00000

 Dipole moment (field-independent basis, Debye):
    X=              0.2357    Y=              0.4834    Z=             -0.9783  Tot=              1.1164
 Quadrupole moment (field-independent basis, Debye-Ang):
   XX=            -52.5189   YY=            -56.0677   ZZ=            -51.3930
   XY=             -5.0805   XZ=             -1.3979   YZ=             -3.0740

  Exact polarizability:  88.431  -4.634  69.243  -1.357  -3.294  67.579
 Approx polarizability: 114.274  -2.069 108.654  -0.896  -2.287 104.071

                      1                      2                      3
                      A                      A                      A
 Frequencies --    148.4421               175.8022               222.1566
 Red. masses --      3.5783                 1.1324                 2.5457
 Frc consts  --      0.0465                 0.0206                 0.0740
 IR Inten    --      2.0363                 0.5287                 0.9414

                      4                      5                      6
                      A                      A                      A
 Frequencies --    259.3438               283.1830               324.3706
 Red. masses --      3.3188                 2.5530                 3.6120
 Frc consts  --      0.1315                 0.1206                 0.2239
 IR Inten    --      3.4203                 2.3812                 5.8072

                      7                      8                      9
                      A                      A                      A
 Frequencies --    425.9452               461.2685               586.1418
 Red. masses --      2.3598                 4.7481                 5.1703
 Frc consts  --      0.2523                 0.5952                 1.0466
 IR Inten    --      4.6970                 0.2035                 6.2075

                     10                     11                     12
                      A                      A                      A
 Frequencies --    652.0767               692.4994               749.4785
 Red. masses --      2.7533                 4.2544                 2.5230
 Frc consts  --      0.6898                 1.2021                 0.8350
 IR Inten    --      2.6129                 1.2792                 4.4416

                     13                     14                     15
                      A                      A                      A
 Frequencies --    801.2165               882.8565               892.3190
 Red. masses --      2.5727                 3.0150                 2.2789
 Frc consts  --      0.9731                 1.3846                 1.0691
 IR Inten    --      3.6191                15.2569                14.5679

                     16                     17                     18
                      A                      A                      A
 Frequencies --    919.5966               934.2259               968.4031
 Red. masses --      4.0333                 1.7094                 3.8471
 Frc consts  --      2.0096                 0.8790                 2.1257
 IR Inten    --     27.5522                 7.8196                37.5080

                     19                     20                     21
                      A                      A                      A
 Frequencies --    979.4191              1017.8987              1053.2707
 Red. masses --      2.4164                 1.6844                 1.5503
 Frc consts  --      1.3657                 1.0282                 1.0133
 IR Inten    --     31.6837                 6.7292                 0.0833

                     22                     23                     24
                      A                      A                      A
 Frequencies --   1062.4261              1079.8749              1112.7466
 Red. masses --      2.4696                 2.2710                 1.2582
 Frc consts  --      1.6424                 1.5603                 0.9179
 IR Inten    --     29.3077                 4.5071                 1.6435

                     25                     26                     27
                      A                      A                      A
 Frequencies --   1119.5459              1134.3057              1155.4795
 Red. masses --      1.7405                 1.9360                 1.5963
 Frc consts  --      1.2853                 1.4676                 1.2557
 IR Inten    --      2.4096                 7.5125                 0.8945

                     28                     29                     30
                      A                      A                      A
 Frequencies --   1159.8534              1192.0331              1217.4925
 Red. masses --      1.5051                 1.2907                 2.5283
 Frc consts  --      1.1929                 1.0805                 2.2080
 IR Inten    --      0.7525                 3.5367                 6.3446

                     31                     32                     33
                      A                      A                      A
 Frequencies --   1230.2858              1263.9286              1282.9702
 Red. masses --      1.5102                 1.4387                 1.5843
 Frc consts  --      1.3468                 1.3541                 1.5365
 IR Inten    --      0.4451                 4.1845                 3.1499

                     34                     35                     36
                      A                      A                      A
 Frequencies --   1361.7629              1390.5249              1410.7684
 Red. masses --      1.4033                 1.3922                 1.3276
 Frc consts  --      1.5332                 1.5860                 1.5567
 IR Inten    --      4.1888                 2.5810                 4.3119

                     37                     38                     39
                      A                      A                      A
 Frequencies --   1462.6026              1490.8146              1502.8509
 Red. masses --      1.6044                 1.0451                 1.0541
 Frc consts  --      2.0222                 1.3685                 1.4027
 IR Inten    --     12.9948                 3.1070                 3.7516

                     40                     41                     42
                      A                      A                      A
 Frequencies --   1529.6795              1551.6537              3028.7731
 Red. masses --      1.1005                 2.2169                 1.0553
 Frc consts  --      1.5172                 3.1448                 5.7038
 IR Inten    --      0.9645                12.5656                59.8311

                     43                     44                     45
                      A                      A                      A
 Frequencies --   3037.0073              3068.3092              3082.4898
 Red. masses --      1.0379                 1.1105                 1.0850
 Frc consts  --      5.6403                 6.1597                 6.0742
 IR Inten    --     28.0859                38.9002                 6.7928

                     46                     47                     48
                      A                      A                      A
 Frequencies --   3087.2418              3096.0113              3123.9962
 Red. masses --      1.0511                 1.1006                 1.0990
 Frc consts  --      5.9025                 6.2155                 6.3196
 IR Inten    --     23.0658                20.1198                19.3442

                     49                     50                     51
                      A                      A                      A
 Frequencies --   3137.6979              3147.8637              3174.4577
 Red. masses --      1.0902                 1.0926                 1.1191
 Frc consts  --      6.3237                 6.3789                 6.6442
 IR Inten    --     28.2751                19.0843                17.7748

 - Thermochemistry -
 -------------------
 Temperature   298.150 Kelvin.  Pressure   1.00000 Atm.
 Atom     1 has atomic number  6 and mass  12.00000

 Molecular mass:   126.06808 amu.
 Principal axes and moments of inertia in atomic units:
                           1         2         3
     Eigenvalues --   574.568901211.435361400.76182
           X            0.99863  -0.05193  -0.00596
           Y            0.05141   0.99639  -0.06752
           Z            0.00945   0.06712   0.99770
 This molecule is an asymmetric top.
 Rotational symmetry number  1.
 Warning -- assumption of classical behavior for rotation
           may cause significant error
 Rotational temperatures (Kelvin)      0.15075     0.07150     0.06183
 Rotational constants (GHZ):           3.14104     1.48975     1.28840
 Zero-point vibrational energy     419442.8 (Joules/Mol)
                                  100.24924 (Kcal/Mol)
 Warning -- explicit consideration of   9 degrees of freedom as
           vibrations may cause significant error
 Vibrational temperatures:    213.57   252.94   319.63   373.14   407.44
          (Kelvin)            466.70   612.84   663.66   843.33   938.19
                              996.35  1078.33  1152.77  1270.23  1283.85
                             1323.09  1344.14  1393.31  1409.16  1464.53
                             1515.42  1528.59  1553.70  1600.99  1610.77
                             1632.01  1662.48  1668.77  1715.07  1751.70
                             1770.10  1818.51  1845.91  1959.27  2000.65
                             2029.78  2104.36  2144.95  2162.26  2200.86
                             2232.48  4357.72  4369.57  4414.61  4435.01
                             4441.85  4454.46  4494.73  4514.44  4529.07
                             4567.33

 Zero-point correction=                           0.159757 (Hartree/Particle)
 Thermal correction to Energy=                    0.167438
 Thermal correction to Enthalpy=                  0.168382
 Thermal correction to Gibbs Free Energy=         0.127939
 Sum of electronic and zero-point Energies=           -422.973617
 Sum of electronic and thermal Energies=              -422.965936
 Sum of electronic and thermal Enthalpies=            -422.964992
 Sum of electronic and thermal Free Energies=         -423.005435

                     E (Thermal)             CV                S
                      KCal/Mol        Cal/Mol-Kelvin    Cal/Mol-Kelvin
 Total                  105.069             30.524             85.120
 Electronic               0.000              0.000              0.000
 Translational            0.889              2.981             40.409
 Rotational               0.889              2.981             28.368
 Vibrational            103.291             24.562             16.343
 Vibration     1          0.618              1.904              2.692
 Vibration     2          0.628              1.872              2.373
 Vibration     3          0.648              1.807              1.941
 Vibration     4          0.668              1.747              1.666
 Vibration     5          0.682              1.705              1.514
 Vibration     6          0.709              1.627              1.288
 Vibration     7          0.788              1.414              0.872
 Vibration     8          0.819              1.336              0.762
 Vibration     9          0.943              1.061              0.474

 Optimization completed.
    -- Stationary point found.
 Normal termination of Gaussian 09 at Tue Jan 28 00:50:23 2020.
