 Gaussian 09, Revision D.01,
 Gaussian 09:  ES64L-G09RevD.01 24-Apr-2013

 -----------------------------
 # b3lyp 6-31G(2df,p) opt Freq
 -----------------------------

 -----
 titel
 -----
 Symbolic Z-matrix:
 Charge =  0 Multiplicity = 1

 SCF Done:  E(RB3LYP) =  -423.182355923     A.U. after   14 cycles
 Optimization completed.
    -- Stationary point found.
 Normal termination of Gaussian 09 at Mon Jan 27 18:34:06 2020.

 ----------------------------------------------------------------------
 #N Geom=AllCheck Guess=TCheck SCRF=Check GenChk RB3LYP/6-31G(2df,p) Fr
 eq
 ----------------------------------------------------------------------

 Structure from the checkpoint file:  "/scratch/puck/g09_f662d5e2-fab8-4d49-9793-61ffdc62fa19/Gau-171794.chk"
 -----
 titel
 -----
 Charge =  0 Multiplicity = 1

                         Standard orientation:
 ---------------------------------------------------------------------
 Center     Atomic      Atomic             Coordinates (Angstroms)
 Number     Number       Type             X           Y           Z
 ---------------------------------------------------------------------
      1          6           0       -0.554778    1.722993   -1.069385
      2          6           0       -0.288883    0.624974   -0.066295
      3          6           0        0.260934    1.024758    1.351870
      4          6           0        1.496890    0.097718    1.160486
      5          6           0        0.877007   -0.441196   -0.149672
      6          8           0        1.660028   -0.481324   -1.306378
      7          6           0       -0.156141   -1.595909    0.040644
      8          6           0       -1.276059   -0.534518    0.069807
      9          8           0       -2.470777   -0.599493    0.131532
     10          1           0       -0.726947    1.315526   -2.069982
     11          1           0       -1.443863    2.293400   -0.779931
     12          1           0        0.291504    2.414864   -1.128468
     13          1           0        0.502799    2.087441    1.419295
     14          1           0       -0.396373    0.771114    2.186889
     15          1           0        2.407720    0.665675    0.955903
     16          1           0        1.703044   -0.631512    1.949001
     17          1           0        2.293186   -1.203428   -1.226105
     18          1           0       -0.232497   -2.221841   -0.854585
     19          1           0       -0.066408   -2.237634    0.922025
 ---------------------------------------------------------------------

 SCF Done:  E(RB3LYP) =  -423.182355923     A.U. after    1 cycles

 The electronic state is 1-A.
 Alpha  occ. eigenvalues --  -19.14973 -19.13220 -10.26362 -10.24403 -10.19572
 Alpha  occ. eigenvalues --  -10.19498 -10.18864 -10.18809 -10.17944  -1.04187
 Alpha  occ. eigenvalues --   -1.03378  -0.87392  -0.75391  -0.73515  -0.64965
 Alpha  occ. eigenvalues --   -0.62610  -0.57647  -0.51667  -0.49001  -0.47482
 Alpha  occ. eigenvalues --   -0.46278  -0.44593  -0.42407  -0.41341  -0.40706
 Alpha  occ. eigenvalues --   -0.39361  -0.38640  -0.36923  -0.34530  -0.34003
 Alpha  occ. eigenvalues --   -0.32249  -0.28397  -0.26630  -0.23414
 Alpha virt. eigenvalues --   -0.01697   0.06503   0.08958   0.10253   0.11447
 Alpha virt. eigenvalues --    0.12990   0.13780   0.14979   0.16099   0.16865
 Alpha virt. eigenvalues --    0.17445   0.17800   0.19820   0.22082   0.22226

 Mulliken charges:
               1
     1  C   -0.491538
     2  C    0.168102
     3  C   -0.276544
     4  C   -0.289596
     5  C    0.368539
     6  O   -0.478411
     7  C   -0.431236
     8  C    0.382805
     9  O   -0.310090
    10  H    0.130119
    11  H    0.133212
    12  H    0.121109
    13  H    0.116080
    14  H    0.115446
    15  H    0.110269
    16  H    0.096253
    17  H    0.280993
    18  H    0.134618
    19  H    0.119871
 Sum of Mulliken charges =   0.00000

 Dipole moment (field-independent basis, Debye):
    X=              3.0958    Y=             -0.4320    Z=              0.7196  Tot=              3.2076
 Quadrupole moment (field-independent basis, Debye-Ang):
   XX=            -59.3488   YY=            -49.0850   ZZ=            -53.4179
   XY=             -4.5547   XZ=              1.2908   YZ=              1.1205

  Exact polarizability:  80.052  -1.353  77.469   1.515   0.261  68.910
 Approx polarizability: 121.820  -1.101 108.408  -0.907   0.963 100.752

                      1                      2                      3
                      A                      A                      A
 Frequencies --     55.6486               157.6341               163.4074
 Red. masses --      3.3925                 1.8185                 1.3734
 Frc consts  --      0.0062                 0.0266                 0.0216
 IR Inten    --      3.2941                 0.9976                 3.3915

                      4                      5                      6
                      A                      A                      A
 Frequencies --    186.9245               219.2162               265.2896
 Red. masses --      2.9430                 1.0752                 2.4929
 Frc consts  --      0.0606                 0.0304                 0.1034
 IR Inten    --      2.3003                89.7163                 4.8478

                      7                      8                      9
                      A                      A                      A
 Frequencies --    311.6749               386.1246               390.0733
 Red. masses --      2.2698                 3.3504                 4.2749
 Frc consts  --      0.1299                 0.2943                 0.3832
 IR Inten    --      0.5190                11.6718                 7.1358

                     10                     11                     12
                      A                      A                      A
 Frequencies --    504.2997               537.5173               580.6396
 Red. masses --      3.0094                 2.6254                 3.4358
 Frc consts  --      0.4509                 0.4469                 0.6825
 IR Inten    --      2.1428                 5.1368                 2.2136

                     13                     14                     15
                      A                      A                      A
 Frequencies --    609.4735               689.3750               755.4936
 Red. masses --      3.3284                 3.9600                 1.3309
 Frc consts  --      0.7284                 1.1088                 0.4476
 IR Inten    --      0.6170                 1.1584                 4.2514

                     16                     17                     18
                      A                      A                      A
 Frequencies --    772.1058               845.8520               883.6583
 Red. masses --      2.1210                 2.5827                 2.4339
 Frc consts  --      0.7450                 1.0887                 1.1197
 IR Inten    --      1.1267                 1.4564                 4.6502

                     19                     20                     21
                      A                      A                      A
 Frequencies --    921.3313               953.7874               988.4214
 Red. masses --      2.1969                 2.2890                 1.7947
 Frc consts  --      1.0987                 1.2269                 1.0331
 IR Inten    --      4.9240                 0.3475                14.7011

                     22                     23                     24
                      A                      A                      A
 Frequencies --   1012.1333              1040.2651              1078.8074
 Red. masses --      1.9601                 2.7092                 1.7713
 Frc consts  --      1.1831                 1.7273                 1.2146
 IR Inten    --     17.1897                39.5843                66.3425

                     25                     26                     27
                      A                      A                      A
 Frequencies --   1134.5182              1170.3691              1185.9927
 Red. masses --      1.9677                 1.8948                 2.4180
 Frc consts  --      1.4922                 1.5292                 2.0039
 IR Inten    --      2.4862                13.6797                 2.8174

                     28                     29                     30
                      A                      A                      A
 Frequencies --   1207.0504              1213.8130              1236.3040
 Red. masses --      1.8273                 1.3661                 1.6050
 Frc consts  --      1.5686                 1.1859                 1.4453
 IR Inten    --      7.3326                 8.9864                11.1680

                     31                     32                     33
                      A                      A                      A
 Frequencies --   1256.0327              1271.6581              1320.8850
 Red. masses --      1.6375                 1.8488                 2.9245
 Frc consts  --      1.5220                 1.7615                 3.0063
 IR Inten    --     75.4614                24.5962                33.4302

                     34                     35                     36
                      A                      A                      A
 Frequencies --   1365.6212              1406.3177              1424.8184
 Red. masses --      2.0380                 1.2378                 1.1280
 Frc consts  --      2.2393                 1.4423                 1.3492
 IR Inten    --      8.8648                 1.9051                 6.9680

                     37                     38                     39
                      A                      A                      A
 Frequencies --   1476.5123              1485.4400              1491.5756
 Red. masses --      1.0793                 1.0524                 1.0664
 Frc consts  --      1.3864                 1.3682                 1.3978
 IR Inten    --      1.1839                 4.6729                 6.4814

                     40                     41                     42
                      A                      A                      A
 Frequencies --   1496.5252              1881.5009              3033.8768
 Red. masses --      1.1115                12.7370                 1.0348
 Frc consts  --      1.4666                26.5659                 5.6117
 IR Inten    --      3.2506               258.9053                22.5689

                     43                     44                     45
                      A                      A                      A
 Frequencies --   3049.5756              3055.4167              3067.4505
 Red. masses --      1.0582                 1.0581                 1.0595
 Frc consts  --      5.7981                 5.8197                 5.8736
 IR Inten    --      7.2897                35.2871                27.0147

                     46                     47                     48
                      A                      A                      A
 Frequencies --   3102.3882              3105.1144              3108.4322
 Red. masses --      1.1014                 1.1083                 1.1045
 Frc consts  --      6.2460                 6.2961                 6.2878
 IR Inten    --     13.6068                 0.9565                 4.1643

                     49                     50                     51
                      A                      A                      A
 Frequencies --   3109.4496              3124.6130              3796.4592
 Red. masses --      1.1032                 1.1076                 1.0659
 Frc consts  --      6.2843                 6.3711                 9.0520
 IR Inten    --     18.5460                29.9216                22.5254

 - Thermochemistry -
 -------------------
 Temperature   298.150 Kelvin.  Pressure   1.00000 Atm.
 Atom     1 has atomic number  6 and mass  12.00000

 Molecular mass:   126.06808 amu.
 Principal axes and moments of inertia in atomic units:
                           1         2         3
     Eigenvalues --   818.703201146.449851248.51544
           X            0.99811  -0.04223   0.04475
           Y            0.04530   0.99652  -0.06995
           Z           -0.04164   0.07184   0.99655
 This molecule is an asymmetric top.
 Rotational symmetry number  1.
 Warning -- assumption of classical behavior for rotation
           may cause significant error
 Rotational temperatures (Kelvin)      0.10579     0.07555     0.06937
 Rotational constants (GHZ):           2.20439     1.57420     1.44551
 Zero-point vibrational energy     412034.9 (Joules/Mol)
                                   98.47872 (Kcal/Mol)
 Warning -- explicit consideration of  13 degrees of freedom as
           vibrations may cause significant error
 Vibrational temperatures:     80.07   226.80   235.11   268.94   315.40
          (Kelvin)            381.69   448.43   555.55   561.23   725.57
                              773.37   835.41   876.90   991.86  1086.99
                             1110.89  1216.99  1271.39  1325.59  1372.29
                             1422.12  1456.23  1496.71  1552.16  1632.32
                             1683.90  1706.38  1736.67  1746.40  1778.76
                             1807.15  1829.63  1900.46  1964.82  2023.37
                             2049.99  2124.37  2137.21  2146.04  2153.16
                             2707.06  4365.07  4387.65  4396.06  4413.37
                             4463.64  4467.56  4472.34  4473.80  4495.62
                             5462.25

 Zero-point correction=                           0.156936 (Hartree/Particle)
 Thermal correction to Energy=                    0.166044
 Thermal correction to Enthalpy=                  0.166988
 Thermal correction to Gibbs Free Energy=         0.123201
 Sum of electronic and zero-point Energies=           -423.025420
 Sum of electronic and thermal Energies=              -423.016312
 Sum of electronic and thermal Enthalpies=            -423.015368
 Sum of electronic and thermal Free Energies=         -423.059155

                     E (Thermal)             CV                S
                      KCal/Mol        Cal/Mol-Kelvin    Cal/Mol-Kelvin
 Total                  104.194             34.319             92.157
 Electronic               0.000              0.000              0.000
 Translational            0.889              2.981             40.409
 Rotational               0.889              2.981             28.551
 Vibrational            102.417             28.358             23.197
 Vibration     1          0.596              1.975              4.606
 Vibration     2          0.621              1.894              2.578
 Vibration     3          0.623              1.887              2.510
 Vibration     4          0.632              1.858              2.258
 Vibration     5          0.647              1.812              1.966
 Vibration     6          0.671              1.737              1.627
 Vibration     7          0.700              1.651              1.353
 Vibration     8          0.755              1.500              1.015
 Vibration     9          0.758              1.491              1.000
 Vibration    10          0.860              1.240              0.647
 Vibration    11          0.893              1.167              0.571
 Vibration    12          0.937              1.073              0.484
 Vibration    13          0.968              1.012              0.434

 Optimization completed.
    -- Stationary point found.
 Normal termination of Gaussian 09 at Mon Jan 27 19:18:50 2020.
