 Gaussian 09, Revision D.01,
 Gaussian 09:  ES64L-G09RevD.01 24-Apr-2013

 -----------------------------
 # b3lyp 6-31G(2df,p) opt Freq
 -----------------------------

 -----
 titel
 -----
 Symbolic Z-matrix:
 Charge =  0 Multiplicity = 1

 SCF Done:  E(RB3LYP) =  -423.182686286     A.U. after   13 cycles
 Optimization completed.
    -- Stationary point found.
 Normal termination of Gaussian 09 at Mon Jan 27 11:54:17 2020.

 ----------------------------------------------------------------------
 #N Geom=AllCheck Guess=TCheck SCRF=Check GenChk RB3LYP/6-31G(2df,p) Fr
 eq
 ----------------------------------------------------------------------

 Structure from the checkpoint file:  "/scratch/puck/g09_1e561e86-1e9d-4fda-9f8e-b18737c0e3a7/Gau-71153.chk"
 -----
 titel
 -----
 Charge =  0 Multiplicity = 1

                         Standard orientation:
 ---------------------------------------------------------------------
 Center     Atomic      Atomic             Coordinates (Angstroms)
 Number     Number       Type             X           Y           Z
 ---------------------------------------------------------------------
      1          6           0       -2.305556   -0.325562    0.389855
      2          6           0       -1.984663    0.732192   -0.662023
      3          6           0       -0.892936   -0.045498   -0.004309
      4          8           0       -0.187998   -1.031484   -0.754379
      5          6           0        1.134914   -0.988862   -0.211043
      6          6           0        1.859583    0.249068   -0.772916
      7          6           0        1.163936    1.369862    0.059856
      8          6           0        0.187737    0.523284    0.908126
      9          8           0        0.953486   -0.673036    1.155944
     10          1           0       -2.652981    0.000077    1.364971
     11          1           0       -2.733198   -1.258480    0.039932
     12          1           0       -2.209711    0.492257   -1.695130
     13          1           0       -2.114111    1.778256   -0.401213
     14          1           0        1.610943   -1.960951   -0.332872
     15          1           0        2.932973    0.196567   -0.574682
     16          1           0        1.704612    0.344561   -1.848856
     17          1           0        1.873304    1.894687    0.703080
     18          1           0        0.645032    2.105575   -0.557730
     19          1           0       -0.158842    0.956706    1.844706
 ---------------------------------------------------------------------

 SCF Done:  E(RB3LYP) =  -423.182686286     A.U. after    1 cycles

 The electronic state is 1-A.
 Alpha  occ. eigenvalues --  -19.14448 -19.14054 -10.27419 -10.23835 -10.23790
 Alpha  occ. eigenvalues --  -10.18738 -10.18604 -10.18338 -10.18250  -1.09352
 Alpha  occ. eigenvalues --   -0.99097  -0.85329  -0.78043  -0.73204  -0.61170
 Alpha  occ. eigenvalues --   -0.60625  -0.60022  -0.56186  -0.52639  -0.49811
 Alpha  occ. eigenvalues --   -0.47304  -0.45495  -0.44334  -0.40287  -0.38696
 Alpha  occ. eigenvalues --   -0.37350  -0.36793  -0.35873  -0.35423  -0.33126
 Alpha  occ. eigenvalues --   -0.31867  -0.29613  -0.26966  -0.23249
 Alpha virt. eigenvalues --    0.08728   0.09551   0.10431   0.10995   0.13025
 Alpha virt. eigenvalues --    0.14765   0.15262   0.15620   0.16415   0.17643
 Alpha virt. eigenvalues --    0.18150   0.19414   0.20591   0.21409   0.22205

 Mulliken charges:
               1
     1  C   -0.345639
     2  C   -0.342718
     3  C    0.489921
     4  O   -0.315914
     5  C    0.181095
     6  C   -0.233793
     7  C   -0.224677
     8  C   -0.051090
     9  O   -0.249635
    10  H    0.113385
    11  H    0.125753
    12  H    0.125406
    13  H    0.112377
    14  H    0.092039
    15  H    0.106235
    16  H    0.112350
    17  H    0.105874
    18  H    0.110043
    19  H    0.088987
 Sum of Mulliken charges =   0.00000

 Dipole moment (field-independent basis, Debye):
    X=              0.1454    Y=              1.5740    Z=             -0.2295  Tot=              1.5973
 Quadrupole moment (field-independent basis, Debye-Ang):
   XX=            -51.1136   YY=            -52.4265   ZZ=            -54.1908
   XY=             -0.8307   XZ=             -2.2700   YZ=              1.6161

  Exact polarizability:  84.490  -1.241  70.366  -2.584   0.668  66.284
 Approx polarizability: 109.721  -4.213 105.198  -1.129   0.558 103.142

                      1                      2                      3
                      A                      A                      A
 Frequencies --    110.6803               216.2637               264.6335
 Red. masses --      3.5771                 2.0503                 2.1994
 Frc consts  --      0.0258                 0.0565                 0.0907
 IR Inten    --      0.7938                 0.1768                 0.0789

                      4                      5                      6
                      A                      A                      A
 Frequencies --    306.9703               410.1348               460.0546
 Red. masses --      2.2656                 3.2881                 3.8107
 Frc consts  --      0.1258                 0.3259                 0.4752
 IR Inten    --      0.0450                 0.9281                 2.1857

                      7                      8                      9
                      A                      A                      A
 Frequencies --    542.8710               610.4209               698.3859
 Red. masses --      3.7203                 5.4918                 4.2555
 Frc consts  --      0.6460                 1.2057                 1.2229
 IR Inten    --      2.2713                14.2603                 1.3559

                     10                     11                     12
                      A                      A                      A
 Frequencies --    760.2011               816.4116               823.5137
 Red. masses --      1.0655                 2.9120                 2.1567
 Frc consts  --      0.3628                 1.1436                 0.8617
 IR Inten    --      2.0764                 5.2277                 4.0982

                     13                     14                     15
                      A                      A                      A
 Frequencies --    834.6390               855.0204               886.9966
 Red. masses --      2.9755                 2.5779                 1.5307
 Frc consts  --      1.2213                 1.1104                 0.7095
 IR Inten    --     10.4062                 3.6337                10.9735

                     16                     17                     18
                      A                      A                      A
 Frequencies --    900.0583               930.3890               941.9690
 Red. masses --      2.1078                 2.6612                 2.4038
 Frc consts  --      1.0061                 1.3572                 1.2567
 IR Inten    --     21.7840                45.9207                22.6254

                     19                     20                     21
                      A                      A                      A
 Frequencies --    979.3675               982.4288               998.5413
 Red. masses --      3.3657                 3.0966                 3.2226
 Frc consts  --      1.9020                 1.7609                 1.8931
 IR Inten    --     30.3325                 7.1139                33.8108

                     22                     23                     24
                      A                      A                      A
 Frequencies --   1020.0819              1042.1873              1051.5930
 Red. masses --      2.7486                 1.9898                 1.5733
 Frc consts  --      1.6851                 1.2734                 1.0251
 IR Inten    --     11.1673                13.1594                16.5834

                     25                     26                     27
                      A                      A                      A
 Frequencies --   1071.7779              1094.1945              1146.7824
 Red. masses --      1.4787                 3.2760                 1.2891
 Frc consts  --      1.0008                 2.3109                 0.9989
 IR Inten    --      0.2695                99.3097                23.3594

                     28                     29                     30
                      A                      A                      A
 Frequencies --   1186.1284              1221.1298              1231.3116
 Red. masses --      1.2673                 1.7748                 1.2668
 Frc consts  --      1.0505                 1.5593                 1.1316
 IR Inten    --      0.1656                35.3013                 2.7128

                     31                     32                     33
                      A                      A                      A
 Frequencies --   1246.6581              1260.9092              1285.2381
 Red. masses --      1.6030                 1.2621                 1.6731
 Frc consts  --      1.4678                 1.1823                 1.6283
 IR Inten    --     10.1854                 5.7083                32.8897

                     34                     35                     36
                      A                      A                      A
 Frequencies --   1316.8346              1340.4026              1356.6840
 Red. masses --      1.5100                 1.4017                 1.5526
 Frc consts  --      1.5428                 1.4838                 1.6837
 IR Inten    --      3.2027                11.6040                 7.8292

                     37                     38                     39
                      A                      A                      A
 Frequencies --   1398.4627              1451.0768              1476.8598
 Red. masses --      1.9708                 1.0905                 1.0838
 Frc consts  --      2.2709                 1.3529                 1.3928
 IR Inten    --      1.3936                 1.8830                 0.4020

                     40                     41                     42
                      A                      A                      A
 Frequencies --   1497.6044              1505.4990              3068.4550
 Red. masses --      1.1613                 1.6500                 1.0604
 Frc consts  --      1.5346                 2.2034                 5.8823
 IR Inten    --      4.6377                13.8436                21.7760

                     43                     44                     45
                      A                      A                      A
 Frequencies --   3077.9983              3116.4750              3125.7964
 Red. masses --      1.0606                 1.1058                 1.0533
 Frc consts  --      5.9201                 6.3276                 6.0635
 IR Inten    --     29.2168                 1.9158                11.4397

                     46                     47                     48
                      A                      A                      A
 Frequencies --   3130.2580              3133.8480              3137.0347
 Red. masses --      1.0574                 1.1057                 1.0886
 Frc consts  --      6.1046                 6.3981                 6.3119
 IR Inten    --      5.7943                29.0814                50.4914

                     49                     50                     51
                      A                      A                      A
 Frequencies --   3142.0095              3211.8105              3226.2871
 Red. masses --      1.0936                 1.1173                 1.1151
 Frc consts  --      6.3611                 6.7910                 6.8388
 IR Inten    --     11.1608                 0.3150                 9.8306

 - Thermochemistry -
 -------------------
 Temperature   298.150 Kelvin.  Pressure   1.00000 Atm.
 Atom     1 has atomic number  6 and mass  12.00000

 Molecular mass:   126.06808 amu.
 Principal axes and moments of inertia in atomic units:
                           1         2         3
     Eigenvalues --   558.331081142.229101213.65946
           X            0.99975   0.00813  -0.02064
           Y           -0.00798   0.99994   0.00735
           Z            0.02070  -0.00718   0.99976
 This molecule is an asymmetric top.
 Rotational symmetry number  1.
 Warning -- assumption of classical behavior for rotation
           may cause significant error
 Rotational temperatures (Kelvin)      0.15513     0.07583     0.07137
 Rotational constants (GHZ):           3.23239     1.58002     1.48702
 Zero-point vibrational energy     424084.2 (Joules/Mol)
                                  101.35855 (Kcal/Mol)
 Warning -- explicit consideration of   8 degrees of freedom as
           vibrations may cause significant error
 Vibrational temperatures:    159.24   311.15   380.75   441.66   590.09
          (Kelvin)            661.92   781.07   878.26  1004.82  1093.76
                             1174.63  1184.85  1200.86  1230.18  1276.19
                             1294.98  1338.62  1355.28  1409.09  1413.49
                             1436.68  1467.67  1499.47  1513.01  1542.05
                             1574.30  1649.96  1706.57  1756.93  1771.58
                             1793.66  1814.16  1849.17  1894.63  1928.54
                             1951.96  2012.07  2087.77  2124.87  2154.72
                             2166.07  4414.82  4428.55  4483.91  4497.32
                             4503.74  4508.90  4513.49  4520.65  4621.07
                             4641.90

 Zero-point correction=                           0.161525 (Hartree/Particle)
 Thermal correction to Energy=                    0.168507
 Thermal correction to Enthalpy=                  0.169451
 Thermal correction to Gibbs Free Energy=         0.130313
 Sum of electronic and zero-point Energies=           -423.021161
 Sum of electronic and thermal Energies=              -423.014179
 Sum of electronic and thermal Enthalpies=            -423.013235
 Sum of electronic and thermal Free Energies=         -423.052373

                     E (Thermal)             CV                S
                      KCal/Mol        Cal/Mol-Kelvin    Cal/Mol-Kelvin
 Total                  105.740             28.870             82.372
 Electronic               0.000              0.000              0.000
 Translational            0.889              2.981             40.409
 Rotational               0.889              2.981             28.139
 Vibrational            103.962             22.908             13.825
 Vibration     1          0.607              1.941              3.257
 Vibration     2          0.645              1.816              1.990
 Vibration     3          0.671              1.738              1.631
 Vibration     4          0.697              1.660              1.379
 Vibration     5          0.774              1.448              0.926
 Vibration     6          0.818              1.339              0.766
 Vibration     7          0.898              1.155              0.559
 Vibration     8          0.969              1.010              0.432

 Normal termination of Gaussian 09 at Mon Jan 27 12:37:51 2020.
