 Gaussian 09, Revision D.01,
 Gaussian 09:  ES64L-G09RevD.01 24-Apr-2013

 -----------------------------
 # b3lyp 6-31G(2df,p) opt Freq
 -----------------------------

 -----
 titel
 -----
 Symbolic Z-matrix:
 Charge =  0 Multiplicity = 1

 SCF Done:  E(RB3LYP) =  -423.210783499     A.U. after   15 cycles
 Optimization completed.
    -- Stationary point found.
 Normal termination of Gaussian 09 at Mon Jan 27 16:23:35 2020.

 ----------------------------------------------------------------------
 #N Geom=AllCheck Guess=TCheck SCRF=Check GenChk RB3LYP/6-31G(2df,p) Fr
 eq
 ----------------------------------------------------------------------

 Structure from the checkpoint file:  "/scratch/puck/g09_8a314336-73b2-4430-a0b0-572ab4d2325f/Gau-47300.chk"
 -----
 titel
 -----
 Charge =  0 Multiplicity = 1

                         Standard orientation:
 ---------------------------------------------------------------------
 Center     Atomic      Atomic             Coordinates (Angstroms)
 Number     Number       Type             X           Y           Z
 ---------------------------------------------------------------------
      1          6           0       -2.175050   -0.303293   -1.266317
      2          6           0       -1.327862   -0.101421   -0.000005
      3          6           0       -2.174034   -0.302198    1.267199
      4          8           0       -0.806224    1.241835   -0.000926
      5          6           0        0.618973    1.245989   -0.000213
      6          6           0        1.010501   -0.208650   -0.000120
      7          6           0        2.393092   -0.687109    0.000000
      8          8           0        3.358848    0.044307    0.000075
      9          6           0       -0.091403   -0.963479   -0.000003
     10          1           0       -2.601523   -1.311027   -1.300026
     11          1           0       -2.995772    0.419698   -1.276938
     12          1           0       -1.568381   -0.149754   -2.162531
     13          1           0       -2.600342   -1.309959    1.302220
     14          1           0       -1.566679   -0.147745    2.162793
     15          1           0       -2.994843    0.420694    1.277781
     16          1           0        1.001592    1.775470   -0.884008
     17          1           0        1.000885    1.775253    0.884046
     18          1           0        2.504710   -1.793783    0.000044
     19          1           0       -0.125935   -2.047015    0.000181
 ---------------------------------------------------------------------

 SCF Done:  E(RB3LYP) =  -423.210783499     A.U. after    1 cycles

 The electronic state is 1-A.
 Alpha  occ. eigenvalues --  -19.13936 -19.13895 -10.27350 -10.25437 -10.23559
 Alpha  occ. eigenvalues --  -10.21372 -10.20426 -10.18384 -10.18383  -1.04549
 Alpha  occ. eigenvalues --   -1.03842  -0.81957  -0.79549  -0.69855  -0.68249
 Alpha  occ. eigenvalues --   -0.65375  -0.57165  -0.54766  -0.50624  -0.47578
 Alpha  occ. eigenvalues --   -0.47164  -0.44859  -0.43241  -0.41783  -0.39986
 Alpha  occ. eigenvalues --   -0.39795  -0.39089  -0.38997  -0.36205  -0.35653
 Alpha  occ. eigenvalues --   -0.32595  -0.28734  -0.25748  -0.24630
 Alpha virt. eigenvalues --   -0.06373   0.05942   0.07870   0.10192   0.11797
 Alpha virt. eigenvalues --    0.12426   0.14648   0.15496   0.15703   0.16592
 Alpha virt. eigenvalues --    0.18057   0.18419   0.18952   0.20184   0.20228

 Mulliken charges:
               1
     1  C   -0.405519
     2  C    0.346103
     3  C   -0.405510
     4  O   -0.313201
     5  C   -0.174859
     6  C    0.208371
     7  C    0.073793
     8  O   -0.264541
     9  C   -0.231622
    10  H    0.113342
    11  H    0.130593
    12  H    0.122792
    13  H    0.113345
    14  H    0.122785
    15  H    0.130587
    16  H    0.120717
    17  H    0.120669
    18  H    0.072942
    19  H    0.119214
 Sum of Mulliken charges =   0.00000

 Dipole moment (field-independent basis, Debye):
    X=             -2.4805    Y=             -2.2141    Z=              0.0012  Tot=              3.3249
 Quadrupole moment (field-independent basis, Debye-Ang):
   XX=            -63.1079   YY=            -51.7408   ZZ=            -52.5304
   XY=              0.1409   XZ=             -0.0022   YZ=              0.0016

  Exact polarizability: 110.101   8.660  74.818  -0.002   0.000  60.139
 Approx polarizability: 162.735  26.039 118.444  -0.001  -0.004  86.011

                      1                      2                      3
                      A                      A                      A
 Frequencies --     49.1781               111.7769               166.1299
 Red. masses --      3.6410                 3.3101                 4.6268
 Frc consts  --      0.0052                 0.0244                 0.0752
 IR Inten    --      0.0432                 5.5818                 6.3532

                      4                      5                      6
                      A                      A                      A
 Frequencies --    188.4550               208.6643               248.0568
 Red. masses --      2.6559                 1.0349                 1.0879
 Frc consts  --      0.0556                 0.0265                 0.0394
 IR Inten    --      4.7688                 0.1498                 1.2362

                      7                      8                      9
                      A                      A                      A
 Frequencies --    309.8374               345.1206               367.7602
 Red. masses --      2.6864                 2.8683                 2.6093
 Frc consts  --      0.1519                 0.2013                 0.2079
 IR Inten    --      0.2024                 0.2739                 2.4913

                     10                     11                     12
                      A                      A                      A
 Frequencies --    395.0928               494.3757               521.8944
 Red. masses --      2.4917                 3.8484                 2.4140
 Frc consts  --      0.2292                 0.5542                 0.3874
 IR Inten    --      7.9424                 0.9364                 0.1113

                     13                     14                     15
                      A                      A                      A
 Frequencies --    636.5445               717.4874               823.0353
 Red. masses --      4.1926                 5.5212                 5.5857
 Frc consts  --      1.0009                 1.6746                 2.2293
 IR Inten    --      1.9732                38.7514                10.8936

                     16                     17                     18
                      A                      A                      A
 Frequencies --    875.1310               884.6547               914.0186
 Red. masses --      1.4274                 2.1459                 3.8934
 Frc consts  --      0.6441                 0.9895                 1.9164
 IR Inten    --      9.9782                 6.5680                 0.8743

                     19                     20                     21
                      A                      A                      A
 Frequencies --    924.4934               947.6726              1007.1468
 Red. masses --      1.5031                 1.9125                 1.3451
 Frc consts  --      0.7569                 1.0120                 0.8039
 IR Inten    --      0.4853                 8.2596                 0.0316

                     22                     23                     24
                      A                      A                      A
 Frequencies --   1017.2878              1058.2146              1080.0982
 Red. masses --      1.4702                 1.8639                 8.9106
 Frc consts  --      0.8964                 1.2298                 6.1247
 IR Inten    --      3.7011                 3.1903                70.7451

                     25                     26                     27
                      A                      A                      A
 Frequencies --   1141.0985              1176.4133              1203.2028
 Red. masses --      1.7801                 1.8514                 1.4717
 Frc consts  --      1.3657                 1.5096                 1.2553
 IR Inten    --     12.6886                 9.3128                 9.4840

                     28                     29                     30
                      A                      A                      A
 Frequencies --   1210.5125              1277.3438              1329.7969
 Red. masses --      1.7095                 3.0481                 2.3808
 Frc consts  --      1.4759                 2.9301                 2.4805
 IR Inten    --     11.6188               102.7288                 4.5829

                     31                     32                     33
                      A                      A                      A
 Frequencies --   1387.2265              1388.8994              1408.3818
 Red. masses --      1.9216                 1.2474                 1.2500
 Frc consts  --      2.1788                 1.4178                 1.4609
 IR Inten    --     28.4737                 6.5524                 2.7721

                     34                     35                     36
                      A                      A                      A
 Frequencies --   1422.3826              1473.8787              1481.1001
 Red. masses --      1.2481                 1.0483                 1.0459
 Frc consts  --      1.4877                 1.3417                 1.3518
 IR Inten    --      3.1417                 1.4046                 1.1407

                     37                     38                     39
                      A                      A                      A
 Frequencies --   1494.1060              1503.3415              1521.3025
 Red. masses --      1.0668                 1.0576                 1.0827
 Frc consts  --      1.4031                 1.4082                 1.4764
 IR Inten    --      0.2645                 5.8160                 0.5684

                     40                     41                     42
                      A                      A                      A
 Frequencies --   1693.2039              1783.7672              2888.1492
 Red. masses --      7.6869                10.2179                 1.0831
 Frc consts  --     12.9844                19.1553                 5.3230
 IR Inten    --     25.5117               261.0656               110.8877

                     43                     44                     45
                      A                      A                      A
 Frequencies --   3002.4751              3025.0208              3036.8195
 Red. masses --      1.0563                 1.1065                 1.0343
 Frc consts  --      5.6105                 5.9654                 5.6202
 IR Inten    --     50.2495                26.8808                16.0777

                     46                     47                     48
                      A                      A                      A
 Frequencies --   3041.6155              3110.4724              3116.8519
 Red. masses --      1.0345                 1.1015                 1.1014
 Frc consts  --      5.6391                 6.2787                 6.3039
 IR Inten    --     18.4278                 1.2478                31.9640

                     49                     50                     51
                      A                      A                      A
 Frequencies --   3122.4101              3124.5678              3205.5235
 Red. masses --      1.1029                 1.1026                 1.0947
 Frc consts  --      6.3356                 6.3423                 6.6272
 IR Inten    --     14.1895                25.6082                 2.7633

 - Thermochemistry -
 -------------------
 Temperature   298.150 Kelvin.  Pressure   1.00000 Atm.
 Atom     1 has atomic number  6 and mass  12.00000

 Molecular mass:   126.06808 amu.
 Principal axes and moments of inertia in atomic units:
                           1         2         3
     Eigenvalues --   488.465481827.291801914.25503
           X            0.99994   0.01129  -0.00001
           Y           -0.01129   0.99994   0.00015
           Z            0.00001  -0.00015   1.00000
 This molecule is an asymmetric top.
 Rotational symmetry number  1.
 Warning -- assumption of classical behavior for rotation
           may cause significant error
 Rotational temperatures (Kelvin)      0.17732     0.04740     0.04525
 Rotational constants (GHZ):           3.69472     0.98766     0.94279
 Zero-point vibrational energy     411886.2 (Joules/Mol)
                                   98.44316 (Kcal/Mol)
 Warning -- explicit consideration of  12 degrees of freedom as
           vibrations may cause significant error
 Vibrational temperatures:     70.76   160.82   239.02   271.14   300.22
          (Kelvin)            356.90   445.79   496.55   529.12   568.45
                              711.30   750.89   915.84  1032.30  1184.16
                             1259.12  1272.82  1315.07  1330.14  1363.49
                             1449.06  1463.65  1522.53  1554.02  1641.78
                             1692.59  1731.14  1741.66  1837.81  1913.28
                             1995.91  1998.31  2026.34  2046.49  2120.58
                             2130.97  2149.68  2162.97  2188.81  2436.14
                             2566.44  4155.40  4319.89  4352.32  4369.30
                             4376.20  4475.27  4484.45  4492.45  4495.55
                             4612.03

 Zero-point correction=                           0.156879 (Hartree/Particle)
 Thermal correction to Energy=                    0.166220
 Thermal correction to Enthalpy=                  0.167164
 Thermal correction to Gibbs Free Energy=         0.122464
 Sum of electronic and zero-point Energies=           -423.053904
 Sum of electronic and thermal Energies=              -423.044564
 Sum of electronic and thermal Enthalpies=            -423.043620
 Sum of electronic and thermal Free Energies=         -423.088320

                     E (Thermal)             CV                S
                      KCal/Mol        Cal/Mol-Kelvin    Cal/Mol-Kelvin
 Total                  104.305             34.119             94.079
 Electronic               0.000              0.000              0.000
 Translational            0.889              2.981             40.409
 Rotational               0.889              2.981             28.926
 Vibrational            102.527             28.157             24.745
 Vibration     1          0.595              1.978              4.850
 Vibration     2          0.607              1.940              3.238
 Vibration     3          0.624              1.884              2.479
 Vibration     4          0.633              1.856              2.243
 Vibration     5          0.642              1.827              2.055
 Vibration     6          0.662              1.766              1.744
 Vibration     7          0.699              1.655              1.363
 Vibration     8          0.723              1.585              1.188
 Vibration     9          0.740              1.539              1.089
 Vibration    10          0.762              1.481              0.981
 Vibration    11          0.850              1.262              0.672
 Vibration    12          0.877              1.202              0.606

 Optimization completed.
    -- Stationary point found.
 Normal termination of Gaussian 09 at Mon Jan 27 17:02:56 2020.
