 Gaussian 09, Revision D.01,
 Gaussian 09:  ES64L-G09RevD.01 24-Apr-2013

 -----------------------------
 # b3lyp 6-31G(2df,p) opt Freq
 -----------------------------

 -----
 titel
 -----
 Symbolic Z-matrix:
 Charge =  0 Multiplicity = 1

 SCF Done:  E(RB3LYP) =  -423.156688252     A.U. after   14 cycles
 Optimization completed.
    -- Stationary point found.
 Normal termination of Gaussian 09 at Mon Jan 27 13:55:15 2020.

 ----------------------------------------------------------------------
 #N Geom=AllCheck Guess=TCheck SCRF=Check GenChk RB3LYP/6-31G(2df,p) Fr
 eq
 ----------------------------------------------------------------------

 Structure from the checkpoint file:  "/scratch/puck/g09_f24881d9-e86d-4184-8480-cece0881dcb8/Gau-157831.chk"
 -----
 titel
 -----
 Charge =  0 Multiplicity = 1

                         Standard orientation:
 ---------------------------------------------------------------------
 Center     Atomic      Atomic             Coordinates (Angstroms)
 Number     Number       Type             X           Y           Z
 ---------------------------------------------------------------------
      1          8           0       -2.164912    1.288776    0.158094
      2          6           0       -2.502975    0.253084   -0.348245
      3          8           0       -1.900049   -0.934386   -0.220078
      4          6           0       -0.713545   -0.974648    0.615864
      5          6           0        0.527967   -0.718269   -0.216504
      6          6           0        1.929090   -0.575235    0.460907
      7          6           0        2.403934    0.075603   -0.871496
      8          6           0        1.025272    0.726614   -0.555399
      9          6           0        1.519642    0.858683    0.913957
     10          1           0       -3.382282    0.129647   -0.999950
     11          1           0       -0.841897   -0.267237    1.435013
     12          1           0       -0.701531   -1.992698    1.014344
     13          1           0        0.518884   -1.397329   -1.077110
     14          1           0        2.452482   -1.333677    1.046231
     15          1           0        3.276752    0.729879   -0.804616
     16          1           0        2.454958   -0.576002   -1.748463
     17          1           0        0.496919    1.478325   -1.140411
     18          1           0        2.341905    1.559763    1.079785
     19          1           0        0.767186    0.959224    1.696546
 ---------------------------------------------------------------------

 SCF Done:  E(RB3LYP) =  -423.156688252     A.U. after    1 cycles

 The electronic state is 1-A.
 Alpha  occ. eigenvalues --  -19.18788 -19.13274 -10.30752 -10.23976 -10.20524
 Alpha  occ. eigenvalues --  -10.20090 -10.19806 -10.18806 -10.18595  -1.10290
 Alpha  occ. eigenvalues --   -1.01979  -0.91375  -0.75725  -0.66723  -0.65315
 Alpha  occ. eigenvalues --   -0.62608  -0.58281  -0.53587  -0.52714  -0.49700
 Alpha  occ. eigenvalues --   -0.47471  -0.46544  -0.45376  -0.41915  -0.41750
 Alpha  occ. eigenvalues --   -0.35791  -0.35467  -0.33397  -0.32868  -0.32419
 Alpha  occ. eigenvalues --   -0.31318  -0.30271  -0.29207  -0.27916
 Alpha virt. eigenvalues --    0.01022   0.09557   0.10744   0.12035   0.12500
 Alpha virt. eigenvalues --    0.13374   0.14441   0.14786   0.15079   0.15619
 Alpha virt. eigenvalues --    0.16970   0.17414   0.18888   0.20575   0.22623

 Mulliken charges:
               1
     1  O   -0.307665
     2  C    0.188874
     3  O   -0.205172
     4  C   -0.141095
     5  C    0.049151
     6  C   -0.065028
     7  C   -0.222469
     8  C   -0.032651
     9  C   -0.220839
    10  H    0.110436
    11  H    0.132845
    12  H    0.116260
    13  H    0.070014
    14  H    0.069418
    15  H    0.091195
    16  H    0.089191
    17  H    0.083709
    18  H    0.091884
    19  H    0.101942
 Sum of Mulliken charges =   0.00000

 Dipole moment (field-independent basis, Debye):
    X=              0.7701    Y=             -1.5295    Z=             -0.1582  Tot=              1.7197
 Quadrupole moment (field-independent basis, Debye-Ang):
   XX=            -52.0506   YY=            -56.2430   ZZ=            -51.7878
   XY=              2.5773   XZ=              1.6475   YZ=             -1.6544

  Exact polarizability:  87.326   0.013  73.322   2.504   1.255  67.606
 Approx polarizability: 111.879  -0.112 120.916   4.673   5.285 103.984

                      1                      2                      3
                      A                      A                      A
 Frequencies --     45.6950                67.3114               158.4120
 Red. masses --      3.9636                 6.5886                 3.1910
 Frc consts  --      0.0049                 0.0176                 0.0472
 IR Inten    --      0.7510                 2.1133                 1.3047

                      4                      5                      6
                      A                      A                      A
 Frequencies --    248.1189               310.5613               351.0325
 Red. masses --      4.1752                 3.0075                 2.3232
 Frc consts  --      0.1514                 0.1709                 0.1687
 IR Inten    --      4.4567                 9.7557                10.1707

                      7                      8                      9
                      A                      A                      A
 Frequencies --    424.5471               566.4423               579.4274
 Red. masses --      3.9435                 1.8776                 2.5807
 Frc consts  --      0.4188                 0.3549                 0.5105
 IR Inten    --      6.7939                 1.2066                 8.8137

                     10                     11                     12
                      A                      A                      A
 Frequencies --    741.5924               776.5553               795.0400
 Red. masses --      2.9226                 3.4563                 3.0276
 Frc consts  --      0.9470                 1.2280                 1.1275
 IR Inten    --      3.6010                 2.3216                 1.0016

                     13                     14                     15
                      A                      A                      A
 Frequencies --    841.6275               894.9445               901.1608
 Red. masses --      2.6855                 2.6765                 2.2430
 Frc consts  --      1.1207                 1.2630                 1.0732
 IR Inten    --      2.0561                 9.5349                 1.8130

                     16                     17                     18
                      A                      A                      A
 Frequencies --    906.8445               934.8374              1000.2082
 Red. masses --      2.8216                 3.2641                 1.2637
 Frc consts  --      1.3671                 1.6807                 0.7448
 IR Inten    --      0.0946                14.3426                 0.3854

                     19                     20                     21
                      A                      A                      A
 Frequencies --   1007.1807              1033.5390              1036.2787
 Red. masses --      1.0914                 1.1683                 1.4977
 Frc consts  --      0.6523                 0.7353                 0.9476
 IR Inten    --      0.4298                 0.9616                 1.3241

                     22                     23                     24
                      A                      A                      A
 Frequencies --   1046.3188              1094.7639              1112.4128
 Red. masses --      1.6262                 1.5813                 1.9950
 Frc consts  --      1.0489                 1.1166                 1.4545
 IR Inten    --      0.0881                 1.3941                 0.3552

                     25                     26                     27
                      A                      A                      A
 Frequencies --   1121.8007              1145.6144              1163.0378
 Red. masses --      2.5550                 1.3630                 2.7046
 Frc consts  --      1.8944                 1.0539                 2.1555
 IR Inten    --     10.7789                 0.2283                11.0422

                     28                     29                     30
                      A                      A                      A
 Frequencies --   1188.5045              1195.4158              1216.3093
 Red. masses --      1.4448                 4.1425                 1.4293
 Frc consts  --      1.2024                 3.4878                 1.2458
 IR Inten    --      9.2053               270.7769                 1.1066

                     31                     32                     33
                      A                      A                      A
 Frequencies --   1242.7831              1247.7698              1270.9372
 Red. masses --      1.6779                 1.6728                 1.8083
 Frc consts  --      1.5269                 1.5345                 1.7210
 IR Inten    --     21.2734                22.1655                 7.7905

                     34                     35                     36
                      A                      A                      A
 Frequencies --   1304.8895              1382.5058              1409.4416
 Red. masses --      1.2367                 1.2609                 1.1476
 Frc consts  --      1.2407                 1.4200                 1.3431
 IR Inten    --     16.4718                 4.5929                 1.5768

                     37                     38                     39
                      A                      A                      A
 Frequencies --   1439.9792              1482.2667              1507.0668
 Red. masses --      1.3547                 1.1030                 1.1022
 Frc consts  --      1.6550                 1.4279                 1.4749
 IR Inten    --      1.3520                 6.1161                 1.7192

                     40                     41                     42
                      A                      A                      A
 Frequencies --   1544.3706              1815.9575              3025.5993
 Red. masses --      1.1347                 9.1616                 1.0899
 Frc consts  --      1.5946                17.8005                 5.8784
 IR Inten    --      1.5676               215.1937                73.6943

                     43                     44                     45
                      A                      A                      A
 Frequencies --   3039.1510              3050.2584              3065.0328
 Red. masses --      1.0829                 1.0545                 1.0577
 Frc consts  --      5.8932                 5.7808                 5.8545
 IR Inten    --     31.3025                55.5459                36.7183

                     46                     47                     48
                      A                      A                      A
 Frequencies --   3072.7555              3094.1052              3116.5674
 Red. masses --      1.0629                 1.0907                 1.1106
 Frc consts  --      5.9128                 6.1523                 6.3559
 IR Inten    --     17.1364                75.6255                36.5778

                     49                     50                     51
                      A                      A                      A
 Frequencies --   3124.0622              3130.8194              3144.2345
 Red. masses --      1.0934                 1.1063                 1.1014
 Frc consts  --      6.2873                 6.3893                 6.4152
 IR Inten    --     34.0685                33.6096                18.9963

 - Thermochemistry -
 -------------------
 Temperature   298.150 Kelvin.  Pressure   1.00000 Atm.
 Atom     1 has atomic number  8 and mass  15.99491

 Molecular mass:   126.06808 amu.
 Principal axes and moments of inertia in atomic units:
                           1         2         3
     Eigenvalues --   503.606791650.757161806.97321
           X            0.99995   0.01001  -0.00053
           Y           -0.01002   0.99991  -0.00865
           Z            0.00044   0.00865   0.99996
 This molecule is an asymmetric top.
 Rotational symmetry number  1.
 Warning -- assumption of classical behavior for rotation
           may cause significant error
 Rotational temperatures (Kelvin)      0.17199     0.05247     0.04793
 Rotational constants (GHZ):           3.58363     1.09328     0.99876
 Zero-point vibrational energy     421181.7 (Joules/Mol)
                                  100.66485 (Kcal/Mol)
 Warning -- explicit consideration of   9 degrees of freedom as
           vibrations may cause significant error
 Vibrational temperatures:     65.74    96.85   227.92   356.99   446.83
          (Kelvin)            505.06   610.83   814.98   833.67  1066.98
                             1117.29  1143.88  1210.91  1287.62  1296.57
                             1304.75  1345.02  1439.07  1449.11  1487.03
                             1490.97  1505.42  1575.12  1600.51  1614.02
                             1648.28  1673.35  1709.99  1719.93  1750.00
                             1788.09  1795.26  1828.59  1877.44  1989.11
                             2027.87  2071.81  2132.65  2168.33  2222.00
                             2612.75  4353.16  4372.65  4388.64  4409.89
                             4421.00  4451.72  4484.04  4494.82  4504.55
                             4523.85

 Zero-point correction=                           0.160420 (Hartree/Particle)
 Thermal correction to Energy=                    0.168375
 Thermal correction to Enthalpy=                  0.169319
 Thermal correction to Gibbs Free Energy=         0.126748
 Sum of electronic and zero-point Energies=           -422.996269
 Sum of electronic and thermal Energies=              -422.988313
 Sum of electronic and thermal Enthalpies=            -422.987369
 Sum of electronic and thermal Free Energies=         -423.029940

                     E (Thermal)             CV                S
                      KCal/Mol        Cal/Mol-Kelvin    Cal/Mol-Kelvin
 Total                  105.657             29.902             89.597
 Electronic               0.000              0.000              0.000
 Translational            0.889              2.981             40.409
 Rotational               0.889              2.981             28.798
 Vibrational            103.879             23.940             20.391
 Vibration     1          0.595              1.979              4.996
 Vibration     2          0.598              1.970              4.230
 Vibration     3          0.621              1.893              2.569
 Vibration     4          0.662              1.766              1.744
 Vibration     5          0.699              1.654              1.359
 Vibration     6          0.728              1.573              1.162
 Vibration     7          0.787              1.417              0.877
 Vibration     8          0.922              1.104              0.511
 Vibration     9          0.936              1.076              0.486

 Optimization completed.
    -- Stationary point found.
 Normal termination of Gaussian 09 at Mon Jan 27 14:36:48 2020.
