 Gaussian 09, Revision D.01,
 Gaussian 09:  ES64L-G09RevD.01 24-Apr-2013

 -----------------------------
 # b3lyp 6-31G(2df,p) opt Freq
 -----------------------------

 -----
 titel
 -----
 Symbolic Z-matrix:
 Charge =  0 Multiplicity = 1

 SCF Done:  E(RB3LYP) =  -423.191066207     A.U. after   15 cycles
 SCF Done:  E(RB3LYP) =  -423.191066092     A.U. after    8 cycles
 SCF Done:  E(RB3LYP) =  -423.191066392     A.U. after    8 cycles
 SCF Done:  E(RB3LYP) =  -423.191066482     A.U. after    7 cycles
 Optimization completed.
    -- Stationary point found.
 Normal termination of Gaussian 09 at Mon Jan 27 14:39:19 2020.

 ----------------------------------------------------------------------
 #N Geom=AllCheck Guess=TCheck SCRF=Check GenChk RB3LYP/6-31G(2df,p) Fr
 eq
 ----------------------------------------------------------------------

 Structure from the checkpoint file:  "/scratch/puck/g09_bb1366a6-eac7-487e-99a5-63d7e1fc034c/Gau-4145.chk"
 -----
 titel
 -----
 Charge =  0 Multiplicity = 1

                         Standard orientation:
 ---------------------------------------------------------------------
 Center     Atomic      Atomic             Coordinates (Angstroms)
 Number     Number       Type             X           Y           Z
 ---------------------------------------------------------------------
      1          6           0       -3.426710    0.302297   -0.044420
      2          6           0       -2.014800   -0.048975   -0.019393
      3          6           0       -0.840938   -0.312492    0.008994
      4          6           0        0.568380   -0.703704    0.042481
      5          6           0        1.120723   -0.728822    1.475555
      6          6           0        0.760061   -2.061140   -0.646981
      7          8           0        1.376062    0.206042   -0.790285
      8          6           0        1.401877    1.517708   -0.522819
      9          8           0        0.848517    2.096760    0.370285
     10          1           0       -3.941547   -0.159670   -0.893761
     11          1           0       -3.930525   -0.027532    0.870685
     12          1           0       -3.558018    1.387021   -0.121572
     13          1           0        0.601625   -1.501688    2.048686
     14          1           0        2.188165   -0.968327    1.453276
     15          1           0        0.973824    0.233079    1.964169
     16          1           0        0.192053   -2.828648   -0.116398
     17          1           0        0.408179   -2.014682   -1.679528
     18          1           0        1.819042   -2.333717   -0.644501
     19          1           0        2.039011    2.002525   -1.281565
 ---------------------------------------------------------------------

 SCF Done:  E(RB3LYP) =  -423.191066482     A.U. after    1 cycles

 The electronic state is 1-A.
 Alpha  occ. eigenvalues --  -19.18301 -19.12824 -10.30372 -10.27474 -10.20539
 Alpha  occ. eigenvalues --  -10.18511 -10.18037 -10.18012 -10.16944  -1.09686
 Alpha  occ. eigenvalues --   -1.01718  -0.82021  -0.77144  -0.69968  -0.69771
 Alpha  occ. eigenvalues --   -0.65383  -0.58657  -0.52434  -0.48162  -0.46531
 Alpha  occ. eigenvalues --   -0.45816  -0.43893  -0.42942  -0.42813  -0.41669
 Alpha  occ. eigenvalues --   -0.40505  -0.39429  -0.37436  -0.36562  -0.35221
 Alpha  occ. eigenvalues --   -0.30484  -0.27876  -0.25820  -0.24881
 Alpha virt. eigenvalues --    0.01312   0.03884   0.05778   0.09806   0.11053
 Alpha virt. eigenvalues --    0.12364   0.14378   0.14804   0.16389   0.17340
 Alpha virt. eigenvalues --    0.17762   0.18747   0.19567   0.20432   0.21654

 Mulliken charges:
               1
     1  C   -0.499520
     2  C   -0.003828
     3  C    0.162128
     4  C    0.164247
     5  C   -0.417577
     6  C   -0.401048
     7  O   -0.243758
     8  C    0.193008
     9  O   -0.304577
    10  H    0.148232
    11  H    0.151511
    12  H    0.157718
    13  H    0.124804
    14  H    0.117955
    15  H    0.160036
    16  H    0.128062
    17  H    0.133209
    18  H    0.122368
    19  H    0.107030
 Sum of Mulliken charges =   0.00000

 Dipole moment (field-independent basis, Debye):
    X=             -0.5812    Y=             -1.7253    Z=             -0.5577  Tot=              1.9041
 Quadrupole moment (field-independent basis, Debye-Ang):
   XX=            -44.6942   YY=            -55.1783   ZZ=            -52.7866
   XY=             -1.0614   XZ=             -0.4288   YZ=             -3.3817

  Exact polarizability: 101.217  -4.601  76.937  -1.936  -0.520  65.024
 Approx polarizability: 145.940 -11.850 107.473  -6.788   4.256  97.011

                      1                      2                      3
                      A                      A                      A
 Frequencies --     18.2578                73.4991               100.8126
 Red. masses --      1.0184                 5.3147                 3.6990
 Frc consts  --      0.0002                 0.0169                 0.0221
 IR Inten    --      0.0196                 1.9425                 3.2132

                      4                      5                      6
                      A                      A                      A
 Frequencies --    121.6240               201.9504               224.8741
 Red. masses --      3.3177                 4.2482                 1.0837
 Frc consts  --      0.0289                 0.1021                 0.0323
 IR Inten    --      1.1400                 2.6141                 0.3672

                      7                      8                      9
                      A                      A                      A
 Frequencies --    243.0394               269.2247               288.2840
 Red. masses --      2.0403                 1.2336                 3.1053
 Frc consts  --      0.0710                 0.0527                 0.1521
 IR Inten    --      7.3000                 0.9311                 2.3173

                     10                     11                     12
                      A                      A                      A
 Frequencies --    319.3131               352.4268               375.4255
 Red. masses --      3.0526                 3.2118                 2.8895
 Frc consts  --      0.1834                 0.2350                 0.2399
 IR Inten    --      7.7950                 1.3702                 2.1986

                     13                     14                     15
                      A                      A                      A
 Frequencies --    411.3915               541.1861               554.7452
 Red. masses --      3.8115                 5.9984                 5.1750
 Frc consts  --      0.3801                 1.0351                 0.9383
 IR Inten    --     11.8842                 4.7530                 3.1619

                     16                     17                     18
                      A                      A                      A
 Frequencies --    634.5693               775.6648               825.8265
 Red. masses --      3.9654                 3.2095                 6.2570
 Frc consts  --      0.9408                 1.1377                 2.5142
 IR Inten    --      7.0215                10.2218                31.9374

                     19                     20                     21
                      A                      A                      A
 Frequencies --    930.1190               938.7985              1029.6325
 Red. masses --      2.6360                 1.5150                 1.3221
 Frc consts  --      1.3436                 0.7867                 0.8258
 IR Inten    --      6.4519                 0.2796                 0.4703

                     22                     23                     24
                      A                      A                      A
 Frequencies --   1042.5130              1051.0398              1054.7788
 Red. masses --      1.6581                 1.4111                 1.3975
 Frc consts  --      1.0618                 0.9184                 0.9160
 IR Inten    --      0.3338                 1.4875                 1.2344

                     25                     26                     27
                      A                      A                      A
 Frequencies --   1077.1782              1156.4978              1207.1828
 Red. masses --      2.4528                 2.3501                 4.1028
 Frc consts  --      1.6768                 1.8519                 3.5227
 IR Inten    --      8.7036               200.9797               102.0290

                     28                     29                     30
                      A                      A                      A
 Frequencies --   1212.2235              1291.5161              1391.9479
 Red. masses --      4.6799                 3.5690                 1.2384
 Frc consts  --      4.0518                 3.5075                 1.4137
 IR Inten    --    123.9906                64.2119                 9.3903

                     31                     32                     33
                      A                      A                      A
 Frequencies --   1409.0029              1412.8923              1417.4235
 Red. masses --      1.1805                 1.2410                 1.1796
 Frc consts  --      1.3808                 1.4597                 1.3963
 IR Inten    --      2.0700                 5.2431                 5.2318

                     34                     35                     36
                      A                      A                      A
 Frequencies --   1472.8198              1475.9864              1477.6839
 Red. masses --      1.0497                 1.0394                 1.0399
 Frc consts  --      1.3416                 1.3342                 1.3378
 IR Inten    --      5.0956                 5.8465                 5.1817

                     37                     38                     39
                      A                      A                      A
 Frequencies --   1484.5694              1490.0614              1511.6467
 Red. masses --      1.0476                 1.0569                 1.0536
 Frc consts  --      1.3603                 1.3826                 1.4184
 IR Inten    --      0.0820                 0.4515                 5.4006

                     40                     41                     42
                      A                      A                      A
 Frequencies --   1821.5828              2372.4578              3005.3916
 Red. masses --      9.7553                11.8973                 1.0890
 Frc consts  --     19.0717                39.4543                 5.7952
 IR Inten    --    237.3995                19.4720                85.0041

                     43                     44                     45
                      A                      A                      A
 Frequencies --   3029.5227              3048.8663              3053.4745
 Red. masses --      1.0347                 1.0362                 1.0356
 Frc consts  --      5.5950                 5.6749                 5.6892
 IR Inten    --     27.2380                 7.6886                21.8493

                     46                     47                     48
                      A                      A                      A
 Frequencies --   3091.1294              3093.2060              3119.8958
 Red. masses --      1.1003                 1.1001                 1.1018
 Frc consts  --      6.1945                 6.2017                 6.3186
 IR Inten    --      9.3999                 7.2181                 9.4325

                     49                     50                     51
                      A                      A                      A
 Frequencies --   3131.6367              3140.8835              3169.0195
 Red. masses --      1.1021                 1.1029                 1.0997
 Frc consts  --      6.3681                 6.4104                 6.5070
 IR Inten    --     27.8989                14.8073                 3.9127

 - Thermochemistry -
 -------------------
 Temperature   298.150 Kelvin.  Pressure   1.00000 Atm.
 Atom     1 has atomic number  6 and mass  12.00000

 Molecular mass:   126.06808 amu.
 Principal axes and moments of inertia in atomic units:
                           1         2         3
     Eigenvalues --   906.355821467.635031921.41401
           X            0.99858  -0.05262   0.00847
           Y            0.05273   0.99853  -0.01222
           Z           -0.00781   0.01265   0.99989
 This molecule is an asymmetric top.
 Rotational symmetry number  1.
 Warning -- assumption of classical behavior for rotation
           may cause significant error
 Rotational temperatures (Kelvin)      0.09556     0.05902     0.04508
 Rotational constants (GHZ):           1.99121     1.22969     0.93928
 Zero-point vibrational energy     406399.5 (Joules/Mol)
                                   97.13182 (Kcal/Mol)
 Warning -- explicit consideration of  15 degrees of freedom as
           vibrations may cause significant error
 Vibrational temperatures:     26.27   105.75   145.05   174.99   290.56
          (Kelvin)            323.54   349.68   387.35   414.78   459.42
                              507.06   540.15   591.90   778.65   798.15
                              913.00  1116.01  1188.18  1338.23  1350.72
                             1481.41  1499.94  1512.21  1517.59  1549.82
                             1663.94  1736.86  1744.12  1858.20  2002.70
                             2027.24  2032.83  2039.35  2119.06  2123.61
                             2126.05  2135.96  2143.86  2174.92  2620.85
                             3413.43  4324.08  4358.80  4386.63  4393.26
                             4447.44  4450.43  4488.83  4505.72  4519.03
                             4559.51

 Zero-point correction=                           0.154789 (Hartree/Particle)
 Thermal correction to Energy=                    0.165651
 Thermal correction to Enthalpy=                  0.166595
 Thermal correction to Gibbs Free Energy=         0.117511
 Sum of electronic and zero-point Energies=           -423.036277
 Sum of electronic and thermal Energies=              -423.025416
 Sum of electronic and thermal Enthalpies=            -423.024471
 Sum of electronic and thermal Free Energies=         -423.073555

                     E (Thermal)             CV                S
                      KCal/Mol        Cal/Mol-Kelvin    Cal/Mol-Kelvin
 Total                  103.947             37.589            103.305
 Electronic               0.000              0.000              0.000
 Translational            0.889              2.981             40.409
 Rotational               0.889              2.981             29.326
 Vibrational            102.170             31.627             33.571
 Vibration     1          0.593              1.986              6.815
 Vibration     2          0.599              1.967              4.057
 Vibration     3          0.604              1.948              3.439
 Vibration     4          0.609              1.931              3.074
 Vibration     5          0.639              1.837              2.115
 Vibration     6          0.650              1.803              1.920
 Vibration     7          0.659              1.774              1.781
 Vibration     8          0.674              1.730              1.601
 Vibration     9          0.685              1.695              1.484
 Vibration    10          0.705              1.637              1.314
 Vibration    11          0.729              1.570              1.155
 Vibration    12          0.746              1.522              1.058
 Vibration    13          0.775              1.446              0.922
 Vibration    14          0.896              1.159              0.563
 Vibration    15          0.910              1.129              0.534

 Normal termination of Gaussian 09 at Mon Jan 27 16:13:17 2020.
